Written by MDAnalysis
78843
    1CHTO  H203    1   6.328   6.632   6.344 -1.3942 -0.7018  0.9191
    1CHTO   O82    2   6.260   6.595   6.291 -0.4946 -0.2357 -0.5752
    1CHTO  C123    3   6.297   6.563   6.152 -0.2475 -0.1939 -0.4350
    1CHTO  H227    4   6.395   6.514   6.150 -0.6542 -1.0307  0.1843
    1CHTO   O77    5   6.204   6.459   6.124  0.3840 -0.9800  0.4350
    1CHTO  C118    6   6.207   6.397   5.995  0.3171  0.0529  0.4161
    1CHTO  H222    7   6.308   6.354   5.982  0.5501  0.5818  0.4575
    1CHTO  C125    8   6.101   6.282   5.985  0.7758 -0.1328 -0.0529
    1CHTO   O84    9   6.135   6.169   6.069  0.1713  0.3776  0.4033
    1CHTO  H205   10   6.103   6.088   6.035  3.0795 -1.0219  0.8168
    1CHTO  C114   11   6.178   6.511   5.885  0.5716 -0.5774 -1.0524
    1CHTO  H218   12   6.078   6.549   5.905  0.5383 -0.7152 -0.9602
    1CHTO  C116   13   6.269   6.628   5.897 -0.2164  0.7766  0.2260
    1CHTO  H220   14   6.372   6.608   5.859 -0.9561 -1.2713 -0.7765
    1CHTO   O79   15   6.211   6.725   5.807 -0.0128  0.4948 -0.1422
    1CHTO  H201   16   6.270   6.798   5.809  0.4384  0.1103  0.3869
    1CHTO  C120   17   6.282   6.682   6.045  0.2443  0.5555 -0.3816
    1CHTO  H224   18   6.187   6.735   6.067  0.7190  1.3968 -0.3278
    1CHTO   N21   19   6.382   6.795   6.050 -0.3056  0.0552  0.2181
    1CHTO  H211   20   6.484   6.758   6.053 -0.7016 -1.0425  0.7909
    1CHTO  H212   21   6.352   6.864   5.973 -1.9812 -0.4255  0.4247
    1CHTO   O75   22   6.184   6.435   5.765  0.1971 -0.3199 -0.1745
    1CHTO  C112   23   6.096   6.463   5.640 -0.4706  0.2094  0.4432
    1CHTO  H216   24   6.059   6.565   5.653 -0.7161  0.2667 -0.6110
    1CHTO   O73   25   5.993   6.366   5.653 -0.2626 -0.0547  0.5776
    1CHTO  C113   26   5.897   6.343   5.549  0.0369  0.5304 -0.2541
    1CHTO  H217   27   5.829   6.430   5.550 -1.9056 -0.9166 -2.3541
    1CHTO  C124   28   5.825   6.219   5.603 -0.1130 -0.2086 -0.1559
    1CHTO   O83   29   5.900   6.100   5.626 -0.2022 -0.2908 -0.2650
    1CHTO  H204   30   5.875   6.060   5.707  1.5992 -1.0174 -0.0293
    1CHTO  C109   31   5.963   6.319   5.413  1.0671  0.1865 -0.4295
    1CHTO  H213   32   6.014   6.222   5.424 -0.5104 -0.6371 -0.2273
    1CHTO  C110   33   6.067   6.436   5.385  0.5568  0.0642 -0.0390
    1CHTO  H214   34   6.021   6.532   5.365  0.0724  0.1249  1.3062
    1CHTO   O78   35   6.132   6.407   5.257 -0.4813  0.5193  0.8354
    1CHTO  H200   36   6.155   6.316   5.249  1.0926  0.9060  0.7671
    1CHTO  C111   37   6.168   6.452   5.500 -0.1740 -0.3108 -0.3634
    1CHTO  H215   38   6.226   6.358   5.504  1.3773  0.5246 -2.1719
    1CHTO   N19   39   6.271   6.555   5.485 -0.3649  0.0909  1.2117
    1CHTO  H207   40   6.335   6.542   5.571 -0.5085 -0.0149  1.3049
    1CHTO  H208   41   6.332   6.528   5.400 -1.5675 -1.4707  0.8113
    1CHTO   O74   42   5.856   6.299   5.314  0.5804 -0.9002  0.0544
    1CHTO  C115   43   5.844   6.161   5.236  0.6608 -0.2479  0.5497
    1CHTO  H219   44   5.907   6.085   5.282  2.0955  0.2808 -0.4780
    1CHTO   O76   45   5.685   6.097   5.247 -0.2732 -0.5840  0.0621
    1CHTO  C122   46   5.599   6.141   5.142  0.0476  0.0497  0.0436
    1CHTO  H226   47   5.565   6.239   5.176  1.4306  1.1566 -1.7159
    1CHTO  C126   48   5.471   6.046   5.153 -0.4357  0.0255  0.4569
    1CHTO   O85   49   5.492   5.922   5.085  0.5099 -0.4931 -0.5078
    1CHTO  H206   50   5.566   5.886   5.130  0.3051  0.1792  0.3822
    1CHTO  C121   51   5.655   6.148   4.987  0.1583  0.2815 -0.3910
    1CHTO  H225   52   5.593   6.078   4.927 -1.3922  0.2467  1.2301
    1CHTO   O81   53   5.648   6.278   4.925  0.3143  0.2772  0.0895
    1CHTO  H202   54   5.709   6.266   4.854  0.2829  0.3203  0.0562
    1CHTO  C119   55   5.804   6.089   4.998 -0.3374 -0.1951  0.8091
    1CHTO  H223   56   5.792   5.995   5.051 -1.0308  1.3557  3.5096
    1CHTO  C117   57   5.889   6.182   5.089  0.2298 -0.6980 -0.2053
    1CHTO  H221   58   5.884   6.290   5.070  0.4055 -0.8710 -1.2593
    1CHTO   N20   59   6.036   6.150   5.077 -0.7183  0.1739  0.7176
    1CHTO  H209   60   6.067   6.171   4.976 -1.8749  0.6431  0.4537
    1CHTO  H210   61   6.057   6.045   5.091  0.6119  0.1492 -1.3054
    1CHTO   O80   62   5.863   6.041   4.853  0.0527 -0.1320  0.3111
    1CHTO  C103   63   5.917   5.889   4.838  0.8071  0.2921 -0.5160
    1CHTO  H190   64   5.962   5.857   4.932 -1.2336  1.3064  0.8405
    1CHTO  C101   65   5.812   5.779   4.794 -0.3268 -0.2940 -0.1050
    1CHTO  H188   66   5.753   5.820   4.712  1.1516 -1.9245 -2.0251
    1CHTO   O68   67   5.722   5.755   4.911 -0.1812  0.1874  0.1341
    1CHTO  H168   68   5.640   5.727   4.875 -1.0782  0.0586  2.2052
    1CHTO   C99   69   5.888   5.640   4.742 -0.2584  0.2101 -0.2699
    1CHTO  H186   70   5.938   5.596   4.831 -1.9768  1.3164  1.2673
    1CHTO   N17   71   5.791   5.535   4.703 -0.0112  0.0892 -0.6142
    1CHTO  H174   72   5.729   5.577   4.626  1.0505 -0.4267 -1.7597
    1CHTO  H175   73   5.739   5.506   4.793 -1.6059  0.8866 -1.2570
    1CHTO   C97   74   5.999   5.678   4.641  0.1541 -0.5508 -0.0921
    1CHTO  H184   75   5.953   5.719   4.550  1.6016  1.1411 -0.0811
    1CHTO   O64   76   6.088   5.772   4.701  0.3329 -0.2448 -0.3566
    1CHTO  C104   77   6.034   5.905   4.732 -0.0004 -0.1581  0.2081
    1CHTO  H191   78   5.998   5.955   4.642  1.8243  4.8368  2.0967
    1CHTO  C108   79   6.154   5.984   4.781 -0.1829  0.1992  0.0905
    1CHTO   O71   80   6.250   6.003   4.676  0.2237 -0.0575 -0.4359
    1CHTO  H171   81   6.211   5.985   4.593 -2.2117 -0.1947  0.6808
    1CHTO   O62   82   6.082   5.560   4.607  0.2282  0.1422 -0.0409
    1CHTO   C91   83   6.178   5.567   4.501  0.0557 -0.1644  0.5529
    1CHTO  H178   84   6.216   5.669   4.494  0.5720 -0.3815  0.2432
    1CHTO   C92   85   6.097   5.549   4.374  0.0382  0.7637  0.4722
    1CHTO  H179   86   6.006   5.611   4.377 -1.4229 -1.2619 -1.2012
    1CHTO   O66   87   6.165   5.611   4.267 -0.4929  0.1294 -0.6786
    1CHTO  H166   88   6.094   5.627   4.209 -0.7537 -0.5654 -0.5656
    1CHTO   C93   89   6.078   5.395   4.333  0.2674 -0.0427  0.4240
    1CHTO  H180   90   6.056   5.394   4.226  0.4412 -2.6114  0.3819
    1CHTO   N16   91   5.979   5.307   4.400 -0.0127 -0.1510  0.6708
    1CHTO  H172   92   5.885   5.350   4.368  0.6080  0.6812 -0.0542
    1CHTO  H173   93   6.001   5.306   4.505 -0.2102 -1.0278  0.7083
    1CHTO   C94   94   6.221   5.316   4.346  0.0341 -0.8353 -0.5602
    1CHTO  H181   95   6.218   5.238   4.422  1.3623 -0.0151  0.3445
    1CHTO   O61   96   6.323   5.410   4.379 -0.3153 -0.3874  0.0200
    1CHTO   C95   97   6.305   5.475   4.506 -0.2578  0.3938  0.0121
    1CHTO  H182   98   6.298   5.399   4.584 -0.9652 -0.1617 -0.5762
    1CHTO  C106   99   6.426   5.557   4.541  1.0101  0.1760 -0.3128
    1CHTO   O69  100   6.542   5.472   4.579 -0.1515 -0.0194  0.1630
    1CHTO  H169  101   6.621   5.520   4.562 -0.4011  0.4641  0.3524
    1CHTO   O63  102   6.263   5.254   4.214 -0.2734 -0.4836  0.1682
    1CHTO   C96  103   6.355   5.134   4.220  0.1624  0.1455 -0.0471
    1CHTO  H183  104   6.323   5.077   4.307  0.7198 -0.3217 -0.1503
    1CHTO   C98  105   6.507   5.172   4.214  0.0210 -0.2504 -0.1656
    1CHTO  H185  106   6.527   5.248   4.291 -1.8750 -1.1297  1.2130
    1CHTO   O67  107   6.593   5.066   4.245 -0.2487  0.1464 -0.2161
    1CHTO  H167  108   6.581   4.989   4.193 -0.0601 -1.3731  1.9066
    1CHTO  C102  109   6.542   5.235   4.074  0.2813 -0.0579 -0.2851
    1CHTO  H189  110   6.650   5.253   4.080 -0.1839  2.2568  1.9247
    1CHTO   N18  111   6.487   5.372   4.046  0.3088 -0.6333 -0.2154
    1CHTO  H176  112   6.381   5.366   4.024  0.2938 -0.1609 -0.2627
    1CHTO  H177  113   6.530   5.413   3.957  0.4301  2.4499  1.2116
    1CHTO  C105  114   6.516   5.126   3.966 -0.2097  0.7891  0.0908
    1CHTO  H192  115   6.511   5.170   3.866  1.5647  0.3014 -0.2157
    1CHTO   O65  116   6.401   5.039   3.986 -0.3045 -0.0581 -0.8404
    1CHTO  C100  117   6.308   5.043   4.092 -0.1723  0.7176 -0.6410
    1CHTO  H187  118   6.214   5.081   4.050 -0.3246  1.5398  0.4077
    1CHTO  C107  119   6.265   4.903   4.124  0.2100  0.6658 -0.8040
    1CHTO   O70  120   6.379   4.832   4.158  0.1802 -0.0892  0.0925
    1CHTO  H170  121   6.418   4.870   4.234 -0.4770  2.2331 -0.6965
    1CHTO   O57  122   6.634   5.040   3.979 -0.7682 -0.4065 -0.0085
    1CHTO   C85  123   6.732   4.997   3.881 -0.1145 -0.0486  0.7382
    1CHTO  H157  124   6.676   4.987   3.786 -0.0713  2.4368  0.4251
    1CHTO   C83  125   6.779   4.853   3.926  0.8468  0.2583  0.4244
    1CHTO  H155  126   6.698   4.784   3.900  1.2182  0.6303 -1.8546
    1CHTO   O56  127   6.780   4.851   4.063 -0.7032 -0.2121 -0.4476
    1CHTO  H135  128   6.821   4.927   4.101 -0.8750  0.2472 -1.1757
    1CHTO   C81  129   6.904   4.812   3.851  0.2524  0.2280  0.1270
    1CHTO  H153  130   6.884   4.808   3.744 -1.3287  0.9777  0.3947
    1CHTO   N14  131   6.945   4.677   3.892 -0.0416  0.3633  0.2634
    1CHTO  H141  132   6.970   4.615   3.808  1.5998  0.7724  0.4348
    1CHTO  H142  133   7.028   4.687   3.959  2.0377 -1.9903 -1.8524
    1CHTO   C79  134   7.018   4.920   3.874  0.5544 -0.0276 -0.7930
    1CHTO  H151  135   7.109   4.877   3.831  0.7838 -1.5804  1.1475
    1CHTO   O52  136   6.979   5.045   3.819 -0.0503  0.2740  0.4941
    1CHTO   C86  137   6.850   5.095   3.869  0.0437  0.3470 -0.1443
    1CHTO  H158  138   6.875   5.127   3.972  0.4214 -2.4946  0.6909
    1CHTO   C90  139   6.810   5.220   3.789 -0.0651  0.5606  0.4234
    1CHTO   O60  140   6.815   5.199   3.649 -0.3875  0.4703 -0.5678
    1CHTO  H138  141   6.773   5.121   3.619  0.7358 -0.4950  0.3214
    1CHTO   O50  142   7.052   4.942   4.017 -0.0543  0.3078 -0.0735
    1CHTO   C73  143   7.151   4.994   4.111 -0.0934 -0.1903 -0.1137
    1CHTO  H145  144   7.248   4.941   4.109  1.1615  2.0263  0.5088
    1CHTO   C74  145   7.089   4.988   4.251 -0.3892 -0.9699 -0.3733
    1CHTO  H146  146   7.061   4.882   4.263  0.4780 -1.0338  1.1583
    1CHTO   O54  147   7.192   5.012   4.346 -0.0119  0.1174  0.5291
    1CHTO  H133  148   7.259   4.947   4.345 -0.1422 -0.0245 -2.3922
    1CHTO   C75  149   6.963   5.084   4.268  0.0881 -0.9568 -0.1217
    1CHTO  H147  150   6.887   5.065   4.191  0.0607 -1.0088 -0.0831
    1CHTO   N13  151   6.898   5.075   4.402 -0.1708 -0.1855  0.1585
    1CHTO  H139  152   6.914   4.982   4.456  0.8492 -1.3059 -2.0205
    1CHTO  H140  153   6.919   5.165   4.456 -0.3224 -0.7046  1.1058
    1CHTO   C76  154   7.008   5.232   4.236 -0.0892 -0.3289  0.6132
    1CHTO  H148  155   7.083   5.260   4.309  0.3228  1.1646 -0.3592
    1CHTO   O49  156   7.059   5.234   4.095 -0.5788 -0.0173 -0.1576
    1CHTO   C77  157   7.183   5.149   4.085 -0.1985  0.0491  0.4955
    1CHTO  H149  158   7.257   5.187   4.155 -0.4317  2.8031 -0.6532
    1CHTO   C88  159   7.254   5.181   3.950  0.2819 -0.4618 -0.1344
    1CHTO   O58  160   7.405   5.125   3.944  0.4687 -0.5941  0.1553
    1CHTO  H136  161   7.403   5.033   3.926 -1.3325 -0.4236 -0.6814
    1CHTO   O51  162   6.872   5.337   4.216  0.4084 -0.8178 -0.2846
    1CHTO   C78  163   6.904   5.473   4.262 -0.4148  0.1858  0.4423
    1CHTO  H150  164   7.013   5.492   4.266 -0.0803 -1.6880  0.6492
    1CHTO   C80  165   6.844   5.489   4.401  0.5548 -0.0993  0.0799
    1CHTO  H152  166   6.736   5.467   4.392 -0.1721  1.1277  4.5106
    1CHTO   O55  167   6.904   5.403   4.491  0.7249  1.2553  0.1219
    1CHTO  H134  168   6.882   5.314   4.472  1.2465  0.7698  1.6941
    1CHTO   C84  169   6.870   5.635   4.447 -0.9454  0.1521 -0.3987
    1CHTO  H156  170   6.976   5.651   4.469 -0.6342 -0.5767 -1.3139
    1CHTO   N15  171   6.802   5.675   4.581 -0.3712  1.3970  0.6826
    1CHTO  H143  172   6.697   5.666   4.565 -0.0225  1.7457 -2.1045
    1CHTO  H144  173   6.831   5.615   4.665 -1.2183 -0.7311 -0.4998
    1CHTO   C87  174   6.826   5.730   4.336  0.0052 -0.6129  0.2916
    1CHTO  H159  175   6.717   5.726   4.332  0.0403 -0.5767 -0.6878
    1CHTO   O53  176   6.872   5.701   4.210 -0.0264 -0.1242 -0.2283
    1CHTO   C82  177   6.848   5.571   4.157 -0.5006 -0.6228  0.5959
    1CHTO  H154  178   6.743   5.554   4.132  0.2336  0.5661 -3.8227
    1CHTO   C89  179   6.922   5.562   4.025 -0.3791 -0.2893  0.1693
    1CHTO   O59  180   6.854   5.632   3.920 -0.3731  0.3047  0.0611
    1CHTO  H137  181   6.893   5.634   3.835 -2.4716  0.2082 -0.9358
    1CHTO   O45  182   6.867   5.890   4.365  0.2586 -0.0632 -0.2985
    1CHTO   C67  183   6.765   5.990   4.320 -0.9712  1.0299 -0.9954
    1CHTO  H124  184   6.724   5.955   4.225 -0.0195 -0.6030 -0.8278
    1CHTO   C65  185   6.649   5.999   4.421  0.2508 -0.0011  0.2376
    1CHTO  H122  186   6.682   5.945   4.509 -1.6690 -0.1070  0.9071
    1CHTO   O44  187   6.536   5.932   4.367  0.0643  0.5393  0.1187
    1CHTO  H102  188   6.545   5.839   4.353 -1.4952  0.1700  1.4864
    1CHTO   C63  189   6.624   6.148   4.475  0.0806 -0.8375  0.0332
    1CHTO  H120  190   6.711   6.185   4.529 -1.3831  0.1203  1.8105
    1CHTO   N11  191   6.515   6.158   4.571  0.9494 -0.1318  0.3626
    1CHTO  H108  192   6.447   6.076   4.568  0.2833  0.3830  1.1875
    1CHTO  H109  193   6.467   6.253   4.575 -1.1466 -1.1225 -0.6114
    1CHTO   C61  194   6.621   6.251   4.357 -0.0143 -0.3895 -0.0212
    1CHTO  H118  195   6.634   6.347   4.408 -3.6144  0.7066 -0.9559
    1CHTO   O40  196   6.730   6.235   4.264  0.6402  0.3847 -0.1232
    1CHTO   C68  197   6.833   6.134   4.293  0.0740 -0.4106  0.0852
    1CHTO  H125  198   6.902   6.154   4.378  1.4801 -1.6041 -0.7482
    1CHTO   C72  199   6.929   6.115   4.167 -0.3732 -0.2708 -0.0962
    1CHTO   O48  200   7.004   6.231   4.126 -0.3277 -0.2355  0.3503
    1CHTO  H105  201   6.952   6.307   4.144 -0.7912 -0.1431 -1.3093
    1CHTO   O38  202   6.497   6.257   4.292  0.0278  0.2141  0.1431
    1CHTO   C55  203   6.476   6.376   4.210 -0.3707 -0.2886  0.5343
    1CHTO  H112  204   6.565   6.441   4.207  0.0595 -0.7059  2.8912
    1CHTO   C56  205   6.345   6.457   4.262 -0.2797  0.4293 -0.5016
    1CHTO  H113  206   6.265   6.381   4.254  0.5143 -0.3626 -0.8991
    1CHTO   O42  207   6.365   6.491   4.394 -0.2844  0.4912 -0.5200
    1CHTO  H100  208   6.387   6.422   4.453  1.7896  2.7967  1.5095
    1CHTO   C57  209   6.314   6.584   4.176 -0.2198 -0.3046 -0.6131
    1CHTO  H114  210   6.403   6.646   4.186 -0.7818  0.4202 -0.0026
    1CHTO   N10  211   6.187   6.656   4.213  0.4232  0.3885  0.8054
    1CHTO  H106  212   6.202   6.732   4.287 -0.7081 -0.3273  1.7900
    1CHTO  H107  213   6.107   6.590   4.244 -0.5988  0.0844 -2.2691
    1CHTO   C58  214   6.303   6.535   4.026 -0.3677 -0.3670  0.6847
    1CHTO  H115  215   6.206   6.484   4.010 -1.0316 -0.1517  3.7519
    1CHTO   O37  216   6.417   6.457   3.981 -0.5788 -0.2386 -0.0932
    1CHTO   C59  217   6.448   6.339   4.061 -0.0623  0.1409 -0.2308
    1CHTO  H116  218   6.363   6.272   4.056  0.1272 -0.0691 -0.6575
    1CHTO   C70  219   6.570   6.280   3.990 -0.1624  0.4253  0.4451
    1CHTO   O46  220   6.599   6.143   4.026  0.1661 -0.3260 -0.6344
    1CHTO  H103  221   6.660   6.110   3.963 -0.3210 -1.0417 -0.7372
    1CHTO   O39  222   6.310   6.657   3.935  0.1294 -0.2074  0.1214
    1CHTO   C60  223   6.249   6.642   3.807 -0.0742  1.0292 -0.2407
    1CHTO  H117  224   6.234   6.534   3.802  0.2985  0.9084  1.0250
    1CHTO   C62  225   6.113   6.721   3.797 -0.0215 -0.8311 -0.3823
    1CHTO  H119  226   6.049   6.666   3.869 -0.7065  2.3248  1.4955
    1CHTO   O43  227   6.121   6.856   3.835  0.7650  0.6455  0.3449
    1CHTO  H101  228   6.082   6.871   3.919  0.0273 -1.8913  0.5176
    1CHTO   C66  229   6.050   6.697   3.643  0.8700 -0.6034 -0.5558
    1CHTO  H123  230   6.045   6.589   3.630 -0.7905 -0.4802 -1.0373
    1CHTO   N12  231   5.919   6.760   3.625 -0.2026 -0.7785 -0.1456
    1CHTO  H110  232   5.877   6.733   3.530 -0.2049  1.2102 -0.7338
    1CHTO  H111  233   5.939   6.866   3.624 -1.2803 -0.5616  0.5098
    1CHTO   C69  234   6.152   6.743   3.534 -0.4685  0.2961 -0.1021
    1CHTO  H126  235   6.165   6.853   3.537 -0.4589  0.3777 -2.0888
    1CHTO   O41  236   6.280   6.668   3.552  0.1803 -0.7466  0.2642
    1CHTO   C64  237   6.340   6.682   3.688 -0.2948  0.6366 -0.0239
    1CHTO  H121  238   6.360   6.789   3.707  1.0420  0.3061  0.4769
    1CHTO   C71  239   6.474   6.611   3.698 -0.0447 -0.4172 -0.2193
    1CHTO   O47  240   6.559   6.644   3.588  0.3327  0.0088  0.2341
    1CHTO  H104  241   6.649   6.626   3.605  0.7553 -0.5576 -2.3046
    1CHTO   O34  242   6.105   6.714   3.396  0.2194  0.5893  0.4845
    1CHTO   C49  243   6.094   6.713   3.268 -0.1624 -0.5599 -0.0493
    1CHTO   H91  244   6.093   6.609   3.235 -0.2216  0.0317 -1.9795
    1CHTO   C47  245   6.215   6.786   3.201  0.3179 -0.1731 -0.4476
    1CHTO   H89  246   6.212   6.760   3.093  0.6062 -0.0615 -0.4837
    1CHTO   O33  247   6.341   6.739   3.264 -0.4368  0.3104  0.0677
    1CHTO   H70  248   6.418   6.755   3.213 -0.8572 -0.8768 -0.9481
    1CHTO   C45  249   6.199   6.944   3.228  0.2836  0.2190 -0.6125
    1CHTO   H87  250   6.187   6.960   3.337 -1.7171 -1.4328 -0.5567
    1CHTO    N8  251   6.312   7.025   3.174  0.0116 -0.1473  0.5983
    1CHTO   H75  252   6.371   7.080   3.245 -1.4497  1.3545  0.6657
    1CHTO   H76  253   6.267   7.083   3.095  1.2179 -0.8801 -0.6568
    1CHTO   C43  254   6.057   6.985   3.161  0.5482  0.4453  0.5031
    1CHTO   H85  255   6.040   7.090   3.183  1.6571  0.5956  0.6799
    1CHTO   O29  256   5.955   6.909   3.209  0.4053  0.4253  0.3817
    1CHTO   C50  257   5.962   6.767   3.217  0.1892  0.3430  0.7928
    1CHTO   H92  258   5.883   6.741   3.289  1.5992 -0.3447  2.1494
    1CHTO   C54  259   5.916   6.709   3.076 -0.1621 -0.1258 -0.3335
    1CHTO   O36  260   5.776   6.700   3.041  0.1700  0.7035  0.1317
    1CHTO   H72  261   5.742   6.782   3.010 -1.7916 -0.1454 -0.0732
    1CHTO   O27  262   6.068   6.969   3.018 -0.1859 -0.3382  0.0683
    1CHTO   C37  263   6.009   6.988   2.889  0.3082 -0.5554 -0.1880
    1CHTO   H79  264   5.925   6.918   2.879 -0.9615  0.5991  1.9400
    1CHTO   C38  265   5.951   7.133   2.881  0.3518  0.1865 -0.0307
    1CHTO   H80  266   6.031   7.203   2.909  1.6034 -0.0263 -2.8574
    1CHTO   O31  267   5.839   7.135   2.974  0.1875  0.7895  0.2428
    1CHTO   H68  268   5.867   7.163   3.059  1.3630  0.0488  0.1167
    1CHTO   C39  269   5.899   7.176   2.739 -0.0195 -0.2696 -0.7937
    1CHTO   H81  270   5.802   7.127   2.734  0.9688 -2.2995 -0.3596
    1CHTO    N7  271   5.870   7.323   2.722  0.1113  0.2564 -0.2023
    1CHTO   H73  272   5.781   7.328   2.660 -0.9568  0.2834  1.2994
    1CHTO   H74  273   5.851   7.366   2.819  1.8580 -2.0617  1.2057
    1CHTO   C40  274   5.984   7.123   2.620  0.4377 -0.0555  0.5753
    1CHTO   H82  275   6.060   7.197   2.594 -0.4153  0.3780 -0.7495
    1CHTO   O26  276   6.038   6.991   2.640 -0.3936 -0.5483  0.4871
    1CHTO   C41  277   6.108   6.982   2.768  0.6195 -0.2145 -0.0683
    1CHTO   H83  278   6.180   7.064   2.778  0.5089 -0.3191  1.7513
    1CHTO   C52  279   6.200   6.853   2.778  0.4623 -0.5307 -0.6946
    1CHTO   O35  280   6.315   6.875   2.689 -0.3578 -0.6376 -0.6115
    1CHTO   H71  281   6.402   6.858   2.720 -0.5013 -0.8354 -0.3123
    1CHTO   O28  282   5.903   7.100   2.494  0.3387 -0.4470 -0.2877
    1CHTO   C42  283   5.952   7.101   2.353 -0.1899 -0.5019 -0.5233
    1CHTO   H84  284   5.861   7.088   2.292 -0.3606  0.3706 -0.4608
    1CHTO   C44  285   6.049   6.984   2.302  0.9522 -0.0858 -0.1213
    1CHTO   H86  286   6.148   6.998   2.346 -0.6438 -0.3400  3.7359
    1CHTO   O32  287   6.002   6.854   2.351 -0.1916  0.3119 -0.4634
    1CHTO   H69  288   5.915   6.832   2.323 -0.8571 -0.4963  2.1590
    1CHTO   C48  289   6.054   6.979   2.142  0.1184 -0.0828 -0.1061
    1CHTO   H90  290   5.956   6.946   2.110  0.3465 -2.4571  1.5224
    1CHTO    N9  291   6.138   6.868   2.084 -0.1382 -0.3024  0.1732
    1CHTO   H77  292   6.227   6.861   2.144  0.0152 -0.0937 -0.0271
    1CHTO   H78  293   6.157   6.894   1.981 -0.4034 -3.6244 -0.7524
    1CHTO   C51  294   6.104   7.117   2.093  0.4305 -0.0462 -0.0700
    1CHTO   H93  295   6.208   7.136   2.116  0.8660  0.1019 -2.0111
    1CHTO   O30  296   6.021   7.225   2.139  0.6840  0.6068 -0.6185
    1CHTO   C46  297   6.019   7.238   2.306  0.3658 -0.1059 -0.3682
    1CHTO   H88  298   6.121   7.243   2.344 -0.0448  0.4042  0.6721
    1CHTO   C53  299   5.933   7.362   2.338  0.1994 -0.1478  0.9027
    1CHTO   O72  300   5.806   7.338   2.288 -0.1321 -0.6829  0.5238
    1CHTO  H199  301   5.805   7.371   2.200 -1.4712  0.6683  1.0138
    1CHTO   O22  302   6.087   7.126   1.947  0.4496 -0.0546  0.3819
    1CHTO   C31  303   6.155   7.227   1.860 -0.3570  0.0802 -0.0615
    1CHTO   H59  304   6.147   7.190   1.756  0.8744 -1.6026  0.4052
    1CHTO   C29  305   6.094   7.372   1.868 -0.4740 -0.1036  0.4251
    1CHTO   H57  306   6.108   7.392   1.975  1.5449 -2.1986  0.5913
    1CHTO   O21  307   5.955   7.366   1.846  0.1334  0.3464  0.1609
    1CHTO   H37  308   5.922   7.453   1.861 -2.5920 -0.7154  0.6207
    1CHTO   C27  309   6.169   7.475   1.778 -0.6621  0.7836 -0.0933
    1CHTO   H55  310   6.141   7.450   1.675 -1.3354  1.2958 -0.0354
    1CHTO    N5  311   6.129   7.613   1.799 -0.5826  0.0652  0.1159
    1CHTO   H43  312   6.121   7.629   1.906 -0.0289 -0.8291  0.2998
    1CHTO   H44  313   6.198   7.680   1.752 -0.0636 -1.4932 -1.3710
    1CHTO   C25  314   6.328   7.461   1.787  1.1994 -0.5522  0.0649
    1CHTO   H53  315   6.362   7.518   1.875  0.2722 -1.3602  0.9632
    1CHTO   O17  316   6.370   7.322   1.787  0.3497 -0.1444 -0.2613
    1CHTO   C32  317   6.308   7.231   1.879 -0.2514 -0.4799  0.0459
    1CHTO   H60  318   6.325   7.260   1.983 -1.6098 -0.3835  0.2523
    1CHTO   C36  319   6.380   7.093   1.867  0.3984  0.2575 -0.4372
    1CHTO   O25  320   6.516   7.102   1.908  0.0781  0.5759 -0.1407
    1CHTO   H40  321   6.559   7.019   1.897  0.5310  0.8236 -0.2378
    1CHTO   O15  322   6.396   7.518   1.677  0.0440 -0.0008 -0.2992
    1CHTO   C19  323   6.391   7.554   1.531  0.0839  0.4268  0.4082
    1CHTO   H47  324   6.284   7.562   1.504  1.0537  1.1810 -3.5416
    1CHTO   C20  325   6.453   7.695   1.498  0.6711  0.0423  0.0233
    1CHTO   H48  326   6.552   7.707   1.545  1.2523 -0.0051 -1.1709
    1CHTO   O19  327   6.373   7.794   1.557 -0.1070  0.0150 -0.3059
    1CHTO   H35  328   6.405   7.829   1.638 -0.4996  0.0423 -0.1587
    1CHTO   C21  329   6.466   7.727   1.340  0.0267 -0.3706 -0.7638
    1CHTO   H49  330   6.364   7.753   1.311 -1.7226 -5.1146  0.5945
    1CHTO    N4  331   6.563   7.838   1.320  0.4351 -0.3988  0.3513
    1CHTO   H41  332   6.661   7.813   1.359 -0.2174  2.5091  4.2652
    1CHTO   H42  333   6.539   7.937   1.357 -3.1199 -0.1235 -2.4296
    1CHTO   C22  334   6.510   7.598   1.262  0.5017  0.8607 -0.0021
    1CHTO   H50  335   6.616   7.575   1.271  0.1164 -1.4198 -0.9662
    1CHTO   O14  336   6.439   7.484   1.293 -0.1607  0.3382 -0.0942
    1CHTO   C23  337   6.453   7.446   1.435 -0.2676  0.1078 -0.0311
    1CHTO   H51  338   6.559   7.428   1.456 -0.3197 -0.0418  0.1034
    1CHTO   C34  339   6.382   7.310   1.459  0.0638 -0.4404  0.2753
    1CHTO   O23  340   6.460   7.207   1.404  0.0645 -0.2568  0.5729
    1CHTO   H38  341   6.410   7.130   1.383  0.2816 -0.0796 -0.6430
    1CHTO   O16  342   6.478   7.624   1.125 -0.2838 -0.1665  0.3208
    1CHTO   C24  343   6.530   7.528   1.004 -0.0943 -0.4380  0.4194
    1CHTO   H52  344   6.573   7.435   1.041 -0.4092 -1.2617 -1.2265
    1CHTO   C26  345   6.641   7.589   0.923 -0.0624  0.8297 -0.7758
    1CHTO   H54  346   6.615   7.695   0.902 -0.2110  0.8911 -0.2757
    1CHTO   O20  347   6.755   7.579   1.006 -0.4938  0.7881 -0.1180
    1CHTO   H36  348   6.777   7.662   1.044  2.3152  0.6853 -1.3761
    1CHTO   C30  349   6.674   7.512   0.792  0.3926  0.0852 -0.5629
    1CHTO   H58  350   6.709   7.409   0.808 -1.6317 -0.4725  0.4897
    1CHTO    N6  351   6.780   7.581   0.718  0.6220  0.4300  0.6128
    1CHTO   H45  352   6.842   7.508   0.667  0.6151  1.4560 -0.8863
    1CHTO   H46  353   6.744   7.655   0.648 -0.9609  1.5499  2.5698
    1CHTO   C33  354   6.535   7.490   0.714 -0.3092 -0.3107  0.1861
    1CHTO   H61  355   6.490   7.585   0.684  0.5184  0.3537  1.0389
    1CHTO   O18  356   6.450   7.417   0.807 -0.4408  0.2887  0.4937
    1CHTO   C28  357   6.407   7.495   0.918  0.3313  0.6285  0.2275
    1CHTO   H56  358   6.358   7.588   0.888 -1.3488 -0.2019  0.3346
    1CHTO   C35  359   6.307   7.411   1.006 -0.4272  0.1572  0.6721
    1CHTO   O24  360   6.210   7.358   0.913  0.5652  0.4789  0.4413
    1CHTO   H39  361   6.133   7.411   0.926 -0.1700 -0.6302  0.6627
    1CHTO    O9  362   6.554   7.417   0.591 -0.0487 -0.2757 -0.0514
    1CHTO   C13  363   6.492   7.503   0.455 -0.2112 -0.2344 -0.7867
    1CHTO   H26  364   6.541   7.601   0.464 -1.4794  0.1730  2.5904
    1CHTO   C11  365   6.332   7.522   0.466 -0.1947  0.6943 -0.1914
    1CHTO   H24  366   6.317   7.565   0.566  0.0807  1.9489 -0.6913
    1CHTO    O8  367   6.263   7.392   0.479 -0.4318 -0.5130  0.3136
    1CHTO    H3  368   6.324   7.337   0.434  1.7321 -0.5432  3.1048
    1CHTO    C9  369   6.281   7.594   0.335 -0.3279 -0.1323 -0.2882
    1CHTO   H22  370   6.335   7.690   0.330  0.2833 -0.3866  1.0387
    1CHTO    N2  371   6.136   7.637   0.340  0.4830 -0.1293  0.6058
    1CHTO   H10  372   6.077   7.555   0.302 -0.9356  1.7312 -1.2963
    1CHTO   H11  373   6.113   7.671   0.440  1.0858 -1.3098  1.1593
    1CHTO    C7  374   6.334   7.510   0.208  1.0779 -0.2941  0.0288
    1CHTO   H20  375   6.372   7.588   0.139  0.7936 -1.1808 -1.1391
    1CHTO    O4  376   6.431   7.407   0.243  0.2815  0.0134  0.6877
    1CHTO   C14  377   6.547   7.436   0.319  0.0275  0.1694 -0.7910
    1CHTO   H27  378   6.603   7.501   0.249 -0.6609  1.0585 -0.5343
    1CHTO   C18  379   6.632   7.315   0.346 -0.6714 -0.0112  0.0614
    1CHTO   O13  380   6.557   7.204   0.396 -0.2283 -0.0134 -0.0098
    1CHTO    H7  381   6.594   7.169   0.474  0.3043 -4.6402 -2.1671
    1CHTO    O2  382   6.211   7.440   0.138 -0.6863  0.2970 -0.1503
    1CHTO    C1  383   6.254   7.357   0.028  0.3459 -0.4498 -0.0035
    1CHTO   H14  384   6.357   7.317   0.032 -0.3699 -2.2762  0.2364
    1CHTO    C2  385   6.234   7.442  -0.110 -0.2919  0.1346 -0.4637
    1CHTO   H15  386   6.127   7.468  -0.111 -0.0388  1.2158  0.2716
    1CHTO    O6  387   6.314   7.562  -0.107 -0.0074 -0.2978  0.3151
    1CHTO    H1  388   6.391   7.549  -0.055 -0.0214 -1.2971  0.0940
    1CHTO    C3  389   6.268   7.328  -0.231 -0.1524 -0.1700 -0.3525
    1CHTO   H16  390   6.375   7.301  -0.239  0.1053  0.5569  0.6136
    1CHTO    N1  391   6.234   7.389  -0.361  0.5536  0.0805  0.1780
    1CHTO    H8  392   6.206   7.315  -0.434  1.1934 -0.4046  0.4178
    1CHTO    H9  393   6.154   7.461  -0.358 -0.9441 -1.5975  2.0042
    1CHTO    C4  394   6.194   7.194  -0.216  0.7329 -0.8493 -0.3176
    1CHTO   H17  395   6.092   7.205  -0.253  0.8340  0.6784 -0.1449
    1CHTO    O1  396   6.200   7.139  -0.083 -0.2898  0.0411  0.4571
    1CHTO    C5  397   6.161   7.235   0.018  0.4804  0.0627  0.0998
    1CHTO   H18  398   6.058   7.267   0.003 -0.1898 -1.5854  1.0196
    1CHTO   C16  399   6.164   7.145   0.146  0.2176  0.2907 -0.1158
    1CHTO   O11  400   6.289   7.109   0.204  0.1653  0.2668 -0.2233
    1CHTO    H5  401   6.268   7.059   0.281 -0.3615  0.3410 -0.3140
    1CHTO    O3  402   6.258   7.090  -0.295 -0.0475 -0.3568  0.1112
    1CHTO    C6  403   6.161   6.991  -0.340 -0.1906  0.4184  0.3192
    1CHTO   H19  404   6.060   7.002  -0.299 -0.3570  1.6584 -0.4261
    1CHTO    C8  405   6.160   7.011  -0.496  0.4107  0.3091 -1.0683
    1CHTO   H21  406   6.261   7.002  -0.534  0.7387  1.1136 -0.4129
    1CHTO    O7  407   6.102   7.143  -0.522 -0.2360 -0.1587 -0.1527
    1CHTO    H2  408   6.099   7.164  -0.614 -0.3055  1.9837  0.3093
    1CHTO   C12  409   6.077   6.891  -0.566 -0.1944  0.3074  0.6097
    1CHTO   H25  410   5.970   6.899  -0.536 -0.7131 -1.0062 -0.8327
    1CHTO    N3  411   6.075   6.905  -0.714  0.5962  0.4069  0.0160
    1CHTO   H12  412   6.172   6.915  -0.761  2.5400 -0.3053  3.6706
    1CHTO   H13  413   6.023   6.997  -0.735 -0.7228 -0.4342 -0.4904
    1CHTO   C15  414   6.130   6.753  -0.516  1.1866  0.2645  0.1268
    1CHTO   H28  415   6.226   6.731  -0.561  1.2411  0.0836  0.3292
    1CHTO   O10  416   6.033   6.619  -0.557  0.1259 -0.2084 -0.1720
    1CHTO    H4  417   5.946   6.650  -0.572 -0.0094  0.2157  1.3904
    1CHTO    O5  418   6.132   6.748  -0.370  0.3308  0.0361  0.2306
    1CHTO   C10  419   6.218   6.849  -0.307  0.1540 -0.4196 -0.0382
    1CHTO   H23  420   6.319   6.834  -0.345 -0.0758 -0.0282 -0.8064
    1CHTO   C17  421   6.240   6.833  -0.153  0.2520 -0.0037 -0.3002
    1CHTO   O12  422   6.114   6.838  -0.088 -0.0344  0.2306  0.0016
    1CHTO    H6  423   6.109   6.779  -0.015  1.6720 -0.3584 -0.3148
    2CHTO  H203  424   6.074   5.122   7.192 -0.7870 -1.3927  0.6538
    2CHTO   O82  425   5.996   5.174   7.198  0.0184 -0.1287  0.1844
    2CHTO  C123  426   5.912   5.136   7.085  0.4656  0.0102  1.1014
    2CHTO  H227  427   5.926   5.028   7.073 -0.4856 -0.5441  4.4923
    2CHTO   O77  428   5.774   5.162   7.132  0.4903 -0.0906 -1.4961
    2CHTO  C118  429   5.674   5.138   7.027 -0.6210  0.1988 -0.4099
    2CHTO  H222  430   5.672   5.034   6.991  0.2682 -0.8970  2.6271
    2CHTO  C125  431   5.540   5.168   7.095 -0.4411  0.0179  0.1638
    2CHTO   O84  432   5.543   5.299   7.161  0.1669  0.1254  0.1922
    2CHTO  H205  433   5.485   5.311   7.234  1.7111 -0.4319  1.5292
    2CHTO  C114  434   5.700   5.233   6.913  0.0498 -0.5140 -0.3547
    2CHTO  H218  435   5.697   5.337   6.947  0.3883 -0.7582  0.4581
    2CHTO  C116  436   5.839   5.202   6.850 -0.3961 -0.1033 -0.0380
    2CHTO  H220  437   5.845   5.099   6.808  1.3656  0.3568 -0.9838
    2CHTO   O79  438   5.858   5.305   6.747  0.0852 -0.3358 -0.3357
    2CHTO  H201  439   5.818   5.286   6.664  0.0748 -1.3710 -0.1002
    2CHTO  C120  440   5.953   5.217   6.953 -0.4262 -0.5593 -0.4220
    2CHTO  H224  441   5.956   5.323   6.984  2.0241 -1.1147  1.3357
    2CHTO   N21  442   6.090   5.194   6.904 -0.1821 -0.2636 -0.5229
    2CHTO  H211  443   6.114   5.098   6.861  3.4063  0.8106 -1.1150
    2CHTO  H212  444   6.154   5.222   6.987  1.9797  0.3847 -2.3381
    2CHTO   O75  445   5.592   5.218   6.818 -0.2272  0.1107  0.0759
    2CHTO  C112  446   5.542   5.374   6.768  0.2917 -0.2827  0.4596
    2CHTO  H216  447   5.625   5.445   6.750  0.2133  0.0071  1.1900
    2CHTO   O73  448   5.457   5.421   6.870 -0.9076 -0.5827 -1.0996
    2CHTO  C113  449   5.398   5.546   6.850  0.3243 -0.9148  0.1032
    2CHTO  H217  450   5.476   5.618   6.819  0.4478 -0.3426  1.7237
    2CHTO  C124  451   5.321   5.595   6.969 -0.3948 -0.2076 -0.1785
    2CHTO   O83  452   5.417   5.612   7.075  0.3412  0.1696 -0.0799
    2CHTO  H204  453   5.425   5.530   7.120  1.2586 -0.5315 -1.5269
    2CHTO  C109  454   5.305   5.531   6.729 -1.3088  0.0857  0.3164
    2CHTO  H213  455   5.225   5.460   6.755  0.2399 -1.8237 -0.0170
    2CHTO  C110  456   5.385   5.489   6.604  0.2226 -0.0747 -0.1615
    2CHTO  H214  457   5.454   5.569   6.578  0.2311  0.0699  0.3030
    2CHTO   O78  458   5.300   5.469   6.490 -0.3354 -0.1650 -0.0588
    2CHTO  H200  459   5.232   5.406   6.506 -0.8612 -0.2914 -2.6087
    2CHTO  C111  460   5.463   5.357   6.630  0.3794 -0.9152 -0.2744
    2CHTO  H215  461   5.394   5.276   6.658  0.3078 -0.1979  1.7573
    2CHTO   N19  462   5.551   5.305   6.520  0.1334  0.2714  0.6574
    2CHTO  H207  463   5.630   5.251   6.571  1.6330 -0.1343 -1.9756
    2CHTO  H208  464   5.486   5.242   6.461 -2.0775  1.3926  1.8696
    2CHTO   O74  465   5.243   5.665   6.703  0.0806 -0.0715 -0.1509
    2CHTO  C115  466   5.076   5.648   6.644  0.6048  0.2200  0.3521
    2CHTO  H219  467   5.069   5.667   6.537  0.0273 -2.7407 -0.1761
    2CHTO   O76  468   5.024   5.518   6.671  0.2009 -0.3372  0.8210
    2CHTO  C122  469   4.888   5.488   6.637 -0.2827 -0.2299 -0.1959
    2CHTO  H226  470   4.854   5.402   6.694  1.5369 -0.0812  1.1570
    2CHTO  C126  471   4.877   5.454   6.488 -0.5347 -0.6493  0.4505
    2CHTO   O85  472   4.960   5.344   6.447  0.8642  0.5848  0.3675
    2CHTO  H206  473   4.941   5.317   6.359  0.0022  1.1860  0.3657
    2CHTO  C121  474   4.789   5.612   6.676  0.6384 -0.8917 -0.7268
    2CHTO  H225  475   4.696   5.614   6.616  1.4923  0.3117 -2.0541
    2CHTO   O81  476   4.751   5.595   6.816 -0.2895 -0.0049  0.5804
    2CHTO  H202  477   4.737   5.506   6.840 -0.3519  0.3539  1.9240
    2CHTO  C119  478   4.851   5.754   6.658 -0.6513 -0.3930  0.2997
    2CHTO  H223  479   4.858   5.758   6.549 -1.9243 -2.2433  0.1209
    2CHTO  C117  480   4.991   5.755   6.719 -0.8574 -0.4978  0.6804
    2CHTO  H221  481   5.004   5.743   6.827 -2.0965 -1.7257  0.7062
    2CHTO   N20  482   5.056   5.888   6.686 -0.4229 -0.5561  0.2261
    2CHTO  H209  483   5.003   5.978   6.714 -0.4854 -0.1138 -1.2714
    2CHTO  H210  484   5.082   5.896   6.581  2.5049  2.6028  1.0955
    2CHTO   O80  485   4.756   5.880   6.695  0.0278 -0.8954  0.1478
    2CHTO  C103  486   4.621   5.903   6.632 -0.2620 -0.0198 -0.5461
    2CHTO  H190  487   4.609   5.840   6.544 -2.3446  0.3624 -0.5752
    2CHTO  C101  488   4.499   5.871   6.717  0.0220  0.4549 -0.7337
    2CHTO  H188  489   4.517   5.921   6.812 -0.3302  0.2680 -0.5712
    2CHTO   O68  490   4.493   5.711   6.738 -0.5932  0.4031  0.4179
    2CHTO  H168  491   4.422   5.672   6.691 -0.3356 -0.7636  0.9873
    2CHTO   C99  492   4.357   5.923   6.651 -0.1150  0.8653 -0.4619
    2CHTO  H186  493   4.343   5.856   6.564 -3.6032 -1.1030  1.4764
    2CHTO   N17  494   4.236   5.902   6.740 -0.2035  0.2981 -0.6794
    2CHTO  H174  495   4.215   5.800   6.770  1.5523  0.0753 -0.2015
    2CHTO  H175  496   4.153   5.960   6.702 -1.0200  0.2131  0.9222
    2CHTO   C97  497   4.377   6.067   6.605 -0.8959 -0.3419  0.9490
    2CHTO  H184  498   4.396   6.133   6.691 -0.1600  1.2191 -0.3797
    2CHTO   O64  499   4.490   6.075   6.516 -0.8449 -0.3569  0.6505
    2CHTO  C104  500   4.615   6.049   6.580  0.5082 -0.1705  0.0833
    2CHTO  H191  501   4.635   6.121   6.659 -0.4672  0.0586  0.1313
    2CHTO  C108  502   4.716   6.078   6.468  0.7637  0.3045  0.5537
    2CHTO   O71  503   4.854   6.107   6.511 -0.4499  0.6124 -0.4260
    2CHTO  H171  504   4.872   6.039   6.572  0.5899 -0.3969 -1.8406
    2CHTO   O62  505   4.273   6.119   6.527  0.2332 -0.0702 -0.0777
    2CHTO   C91  506   4.193   6.223   6.597 -0.1679  0.0126  0.0400
    2CHTO  H178  507   4.184   6.199   6.703 -0.2294 -2.5452 -0.5026
    2CHTO   C92  508   4.048   6.227   6.538 -0.1961  0.5698 -0.0672
    2CHTO  H179  509   4.006   6.126   6.527 -0.9891  0.8868  0.0375
    2CHTO   O66  510   3.975   6.282   6.642  0.4123 -0.0353 -0.2188
    2CHTO  H166  511   3.909   6.222   6.673 -0.1389  0.2361 -0.8647
    2CHTO   C93  512   4.029   6.298   6.403 -0.3276 -0.4518 -1.1075
    2CHTO  H180  513   3.932   6.351   6.398 -0.4798 -0.6492 -0.3336
    2CHTO   N16  514   4.016   6.219   6.279 -0.8275  0.0597  0.3457
    2CHTO  H172  515   3.943   6.249   6.204  0.0761  0.8038 -0.2459
    2CHTO  H173  516   4.040   6.114   6.283  3.6008  0.9096 -1.2198
    2CHTO   C94  517   4.141   6.407   6.387 -0.4061 -0.5192  0.2762
    2CHTO  H181  518   4.231   6.364   6.344  0.8486  0.6880  1.6479
    2CHTO   O61  519   4.181   6.462   6.508  0.1614  0.1323 -0.1635
    2CHTO   C95  520   4.263   6.368   6.584 -0.0386 -0.0725  0.3486
    2CHTO  H182  521   4.360   6.350   6.537 -0.5075  0.8713 -1.0086
    2CHTO  C106  522   4.287   6.431   6.729  0.1511  0.3864 -0.4474
    2CHTO   O69  523   4.165   6.424   6.807  0.4603 -0.3511 -0.1781
    2CHTO  H169  524   4.187   6.459   6.892 -1.1288  3.0156 -1.0397
    2CHTO   O63  525   4.098   6.510   6.295  0.2999  0.0930 -0.1172
    2CHTO   C96  526   4.226   6.597   6.228 -0.6515  0.2633  0.1903
    2CHTO  H183  527   4.324   6.552   6.247 -0.8646 -0.2206  0.1568
    2CHTO   C98  528   4.245   6.741   6.276  0.9141 -0.2932 -0.1023
    2CHTO  H185  529   4.150   6.797   6.273  0.5868 -0.9487 -2.6239
    2CHTO   O67  530   4.279   6.731   6.419  0.2703 -0.1197 -0.5009
    2CHTO  H167  531   4.279   6.805   6.478  0.8252 -2.5057  2.6077
    2CHTO  C102  532   4.360   6.830   6.198 -0.3376 -0.5769 -0.6876
    2CHTO  H189  533   4.456   6.780   6.216 -1.0859 -2.1699 -1.0887
    2CHTO   N18  534   4.377   6.974   6.240 -0.1830 -0.2203 -0.1881
    2CHTO  H176  535   4.281   7.018   6.263  0.4213  0.6684  0.6555
    2CHTO  H177  536   4.423   7.028   6.159  4.3800 -0.3286  2.1842
    2CHTO  C105  537   4.353   6.811   6.043 -0.5241 -0.4280  0.7489
    2CHTO  H192  538   4.272   6.869   5.999  0.1974  0.7685  0.9572
    2CHTO   O65  539   4.340   6.670   6.010 -0.1125  0.5450 -0.2837
    2CHTO  C100  540   4.223   6.604   6.070 -0.5678 -0.3758  0.1314
    2CHTO  H187  541   4.133   6.661   6.042  1.3117  2.5737 -0.0972
    2CHTO  C107  542   4.203   6.460   6.013  0.1036 -0.6468 -0.1691
    2CHTO   O70  543   4.325   6.386   6.004  0.1279  0.8345  0.2239
    2CHTO  H170  544   4.323   6.321   6.071  2.8802  0.1978 -0.2470
    2CHTO   O57  545   4.492   6.874   5.975  0.2759  0.8830  0.2858
    2CHTO   C85  546   4.596   6.785   5.928  0.1111  0.7235  0.3032
    2CHTO  H157  547   4.551   6.697   5.877 -0.9839  1.9789 -0.9634
    2CHTO   C83  548   4.681   6.729   6.041 -0.2857 -0.4172  0.1325
    2CHTO  H155  549   4.617   6.667   6.103  1.8422 -1.0779  1.7194
    2CHTO   O56  550   4.735   6.837   6.121 -0.3474  0.0210 -0.5133
    2CHTO  H135  551   4.666   6.885   6.164 -0.3412 -0.8432  0.4751
    2CHTO   C81  552   4.789   6.637   5.966  0.7581  0.7030 -0.1030
    2CHTO  H153  553   4.735   6.570   5.899 -0.4129  1.1704  0.3621
    2CHTO   N14  554   4.864   6.557   6.071  0.5127 -0.1001  0.2122
    2CHTO  H141  555   4.942   6.615   6.115  2.6614  0.4386 -4.0673
    2CHTO  H142  556   4.798   6.511   6.141  0.4386 -0.4555 -0.0884
    2CHTO   C79  557   4.891   6.720   5.884 -0.5279 -0.0764 -1.0719
    2CHTO  H151  558   4.956   6.650   5.833  0.7470 -1.1655  1.9004
    2CHTO   O52  559   4.802   6.774   5.775 -0.1258 -0.0893 -0.0513
    2CHTO   C86  560   4.694   6.860   5.828  0.2667 -1.2553 -0.4956
    2CHTO  H158  561   4.751   6.943   5.876  0.3881 -0.5796 -1.7899
    2CHTO   C90  562   4.627   6.925   5.711 -0.6920  0.0192  0.6345
    2CHTO   O60  563   4.723   6.997   5.636 -0.3538 -0.3591  0.1222
    2CHTO  H138  564   4.682   7.058   5.578 -0.1431  0.0730  0.4276
    2CHTO   O50  565   4.960   6.831   5.941  0.0963  0.0298 -0.0317
    2CHTO   C73  566   5.000   6.964   5.925 -0.2998 -0.0952 -0.1700
    2CHTO  H145  567   4.918   7.038   5.930  0.4480  0.6107  2.1484
    2CHTO   C74  568   5.084   6.980   5.795 -1.0584  0.1803  0.1884
    2CHTO  H146  569   5.012   6.947   5.719 -2.0426  2.1340  0.2643
    2CHTO   O54  570   5.114   7.117   5.767  0.2972  0.4910  0.5296
    2CHTO  H133  571   5.033   7.162   5.760  1.9902  3.3165 -2.3307
    2CHTO   C75  572   5.212   6.886   5.802  0.1200 -0.8555 -0.9313
    2CHTO  H147  573   5.175   6.782   5.807 -0.7134 -0.5300  0.0019
    2CHTO   N13  574   5.299   6.878   5.683 -0.0940  0.6649  0.5250
    2CHTO  H139  575   5.330   6.775   5.670  1.2705  0.8070  2.4331
    2CHTO  H140  576   5.260   6.920   5.592 -1.3179 -2.3049 -0.4092
    2CHTO   C76  577   5.301   6.934   5.926  0.4452 -0.2344 -0.5218
    2CHTO  H148  578   5.329   7.035   5.895  0.8150 -1.1870 -3.4371
    2CHTO   O49  579   5.217   6.938   6.045 -0.0553  0.1266 -0.0607
    2CHTO   C77  580   5.096   7.009   6.047 -0.3303 -0.2502  0.0058
    2CHTO  H149  581   5.115   7.116   6.041  0.6893 -0.4825 -1.2815
    2CHTO   C88  582   5.040   6.987   6.187 -0.0999 -0.1237  0.4131
    2CHTO   O58  583   5.135   7.034   6.303  0.2384 -0.4670  0.3976
    2CHTO  H136  584   5.164   6.952   6.339  1.9619  0.7330  1.8761
    2CHTO   O51  585   5.417   6.828   5.958  0.2452 -0.0236  0.0128
    2CHTO   C78  586   5.513   6.848   6.068 -0.0314 -0.1830 -0.1328
    2CHTO  H150  587   5.495   6.945   6.120 -0.6384  1.2776 -2.9988
    2CHTO   C80  588   5.653   6.855   6.000  0.5083  0.5263  0.5366
    2CHTO  H152  589   5.657   6.769   5.931 -0.6309  1.1653 -0.3458
    2CHTO   O55  590   5.667   6.987   5.936  0.6061  0.1646 -0.1711
    2CHTO  H134  591   5.632   6.990   5.849  1.9581 -0.9230 -0.7773
    2CHTO   C84  592   5.768   6.835   6.104  0.4927 -0.0839  0.1211
    2CHTO  H156  593   5.779   6.932   6.153  2.3777  0.5115 -1.4099
    2CHTO   N15  594   5.902   6.831   6.039 -0.2292 -0.0576  0.6689
    2CHTO  H143  595   5.901   6.833   5.932  1.9304  2.7336  0.6479
    2CHTO  H144  596   5.970   6.906   6.075 -0.9878  0.8561  0.2315
    2CHTO   C87  597   5.746   6.713   6.192  0.3338  0.4257 -0.2638
    2CHTO  H159  598   5.748   6.619   6.137 -1.6464  1.0412 -1.4449
    2CHTO   O53  599   5.614   6.743   6.253 -0.0801  0.0051  0.7657
    2CHTO   C82  600   5.501   6.735   6.167 -0.5963  0.2645  0.2346
    2CHTO  H154  601   5.502   6.636   6.123  1.0129 -0.0377  0.9346
    2CHTO   C89  602   5.375   6.739   6.254 -0.3831 -0.6173 -0.8073
    2CHTO   O59  603   5.266   6.690   6.178  0.4463 -0.1432  0.4682
    2CHTO  H137  604   5.191   6.707   6.232  1.4936  2.2130  1.2582
    2CHTO   O45  605   5.862   6.708   6.313  0.4533  0.7611  0.3487
    2CHTO   C67  606   5.820   6.615   6.419  0.3704 -0.5195  0.0618
    2CHTO  H124  607   5.718   6.586   6.397  0.3041  0.1987 -0.6073
    2CHTO   C65  608   5.911   6.491   6.413  0.3914 -0.3097  0.5000
    2CHTO  H122  609   6.007   6.515   6.368  1.9391  0.7792  4.2159
    2CHTO   O44  610   5.851   6.403   6.324 -0.1103 -0.1557 -0.5296
    2CHTO  H102  611   5.908   6.329   6.311  0.7013  0.3599  0.0386
    2CHTO   C63  612   5.962   6.436   6.549 -0.3857 -0.1140  0.8870
    2CHTO  H120  613   6.041   6.500   6.589  0.5732 -1.9134  1.9596
    2CHTO   N11  614   6.032   6.304   6.536  0.2947  0.0112 -0.6814
    2CHTO  H108  615   6.094   6.287   6.621  1.9007  2.4930 -1.2958
    2CHTO  H109  616   5.955   6.230   6.542  0.1514  0.2930  1.1437
    2CHTO   C61  617   5.853   6.450   6.657 -0.6403  0.1678 -0.3872
    2CHTO  H118  618   5.903   6.431   6.753  0.6785 -0.0920 -1.1175
    2CHTO   O40  619   5.799   6.587   6.669 -0.5674 -0.1329 -0.3266
    2CHTO   C68  620   5.820   6.682   6.563  0.1012 -0.0747  0.4192
    2CHTO  H125  621   5.921   6.725   6.581 -0.2024  1.1503 -0.6856
    2CHTO   C72  622   5.718   6.796   6.585  0.7015 -0.4150 -0.2072
    2CHTO   O48  623   5.579   6.758   6.550 -0.5052 -0.6637 -0.5914
    2CHTO  H105  624   5.561   6.675   6.589 -0.2085 -0.4285  0.0589
    2CHTO   O38  625   5.739   6.361   6.639 -0.0329 -0.0189 -0.4530
    2CHTO   C55  626   5.685   6.295   6.757  0.3701  0.0836  0.9436
    2CHTO  H112  627   5.716   6.349   6.847 -3.3986 -0.1601  2.4557
    2CHTO   C56  628   5.733   6.144   6.760  0.2164 -0.8996 -0.4191
    2CHTO  H113  629   5.700   6.096   6.667  0.5700 -3.4290  0.7105
    2CHTO   O42  630   5.877   6.136   6.776  0.4615  0.2088 -0.2060
    2CHTO  H100  631   5.901   6.178   6.856 -2.7181  0.5861  0.6272
    2CHTO   C57  632   5.664   6.072   6.888  0.3355  0.2437 -0.1435
    2CHTO  H114  633   5.712   6.116   6.975 -0.4915  1.0081 -0.0660
    2CHTO   N10  634   5.692   5.926   6.887 -0.1570 -0.6903  0.8868
    2CHTO  H106  635   5.692   5.891   6.989 -2.6109 -1.2796  0.7138
    2CHTO  H107  636   5.614   5.877   6.831 -0.7024 -0.9459  1.8714
    2CHTO   C58  637   5.510   6.095   6.892  0.3140  0.0051  0.5991
    2CHTO  H115  638   5.458   6.035   6.815  0.3961  0.3198  0.2989
    2CHTO   O37  639   5.490   6.235   6.868 -0.2067  0.2863 -0.3936
    2CHTO   C59  640   5.531   6.304   6.751 -0.2353  0.1278 -0.5389
    2CHTO  H116  641   5.487   6.251   6.667  1.3142 -2.3415  0.1745
    2CHTO   C70  642   5.496   6.451   6.754  0.5170  0.8895  0.2234
    2CHTO   O46  643   5.356   6.473   6.760  0.9921  0.4121 -0.0324
    2CHTO  H103  644   5.308   6.435   6.688 -2.1217  0.3935  1.9590
    2CHTO   O39  645   5.444   6.053   7.035  0.4466 -0.2921  0.3000
    2CHTO   C60  646   5.304   6.087   7.050  0.3955 -0.0021  0.7534
    2CHTO  H117  647   5.249   6.119   6.961  2.4626 -0.3296 -0.6760
    2CHTO   C62  648   5.222   5.960   7.087 -0.4352 -0.4258 -0.5570
    2CHTO  H119  649   5.231   5.889   7.003  0.6490 -2.5819  1.3144
    2CHTO   O43  650   5.277   5.884   7.195  0.7484 -0.5614 -0.2903
    2CHTO  H101  651   5.216   5.815   7.215  2.5930 -2.2458 -0.2817
    2CHTO   C66  652   5.060   6.001   7.093 -0.1539 -0.0182  0.1191
    2CHTO  H123  653   5.033   6.041   6.995 -1.0774 -2.4364 -0.6421
    2CHTO   N12  654   4.963   5.889   7.114 -0.8168  0.1437  0.1578
    2CHTO  H110  655   5.020   5.797   7.117 -0.4045  0.4318  3.9501
    2CHTO  H111  656   4.924   5.897   7.215  2.2906  0.0053  1.4362
    2CHTO   C69  657   5.035   6.121   7.190 -0.3402  0.0719  0.3383
    2CHTO  H126  658   5.024   6.094   7.297  1.4315  0.8007  0.7358
    2CHTO   O41  659   5.142   6.235   7.171 -0.0430 -0.9140  0.0080
    2CHTO   C64  660   5.284   6.197   7.158 -0.0911  0.2355  0.3608
    2CHTO  H121  661   5.322   6.155   7.253  0.0979  3.2128  1.6604
    2CHTO   C71  662   5.376   6.317   7.141  0.1940 -0.2136  0.4971
    2CHTO   O47  663   5.316   6.419   7.061  0.2062  0.2430  0.1352
    2CHTO  H104  664   5.358   6.503   7.055  0.0924  0.1824 -1.9390
    2CHTO   O34  665   4.890   6.191   7.145 -0.2061 -0.4128 -0.4245
    2CHTO   C49  666   4.813   6.296   7.044 -0.0288  0.6222 -0.4157
    2CHTO   H91  667   4.707   6.292   7.070 -0.2788  3.5687 -0.8238
    2CHTO   C47  668   4.850   6.279   6.899 -0.9723  0.2173  0.6744
    2CHTO   H89  669   4.778   6.346   6.847 -1.6456 -0.6877  0.4459
    2CHTO   O33  670   4.821   6.141   6.871  0.5074  0.0259  0.2053
    2CHTO   H70  671   4.869   6.090   6.934 -0.2312  2.1380  2.5367
    2CHTO   C45  672   5.002   6.318   6.866 -0.0766  0.0884 -0.0436
    2CHTO   H87  673   5.059   6.256   6.937  0.9206  1.8254  0.7065
    2CHTO    N8  674   5.048   6.290   6.727  0.4516  0.4953 -0.0275
    2CHTO   H75  675   4.983   6.340   6.656 -0.9576  3.0906  2.9805
    2CHTO   H76  676   5.144   6.333   6.707 -0.6167  1.6700 -2.8948
    2CHTO   C43  677   5.018   6.472   6.913  0.7695  0.7828 -0.5529
    2CHTO   H85  678   5.123   6.493   6.898  1.5926 -2.6784 -0.2087
    2CHTO   O29  679   4.978   6.488   7.050  0.7193 -0.6162  0.3703
    2CHTO   C50  680   4.849   6.442   7.088 -0.1209 -0.6472 -0.1969
    2CHTO   H92  681   4.846   6.441   7.198  3.6556 -2.5592 -0.0593
    2CHTO   C54  682   4.745   6.552   7.061 -0.4353  0.1519 -0.1751
    2CHTO   O36  683   4.776   6.667   7.142 -0.2911 -0.0782  0.5765
    2CHTO   H72  684   4.828   6.723   7.087  0.6277  0.8731  2.3467
    2CHTO   O27  685   4.948   6.563   6.827 -0.8137 -0.0081 -0.1009
    2CHTO   C37  686   4.945   6.650   6.715  0.2079  0.3682  1.1515
    2CHTO   H79  687   5.015   6.616   6.637 -0.6248 -2.0560  1.4158
    2CHTO   C38  688   4.816   6.637   6.637  0.4322  0.1652 -1.1805
    2CHTO   H80  689   4.734   6.640   6.710 -0.0460 -1.2142 -1.6523
    2CHTO   O31  690   4.825   6.509   6.573 -0.7755  0.5906 -0.2080
    2CHTO   H68  691   4.745   6.484   6.532 -0.2111  0.9256 -1.5306
    2CHTO   C39  692   4.800   6.757   6.533 -0.5899 -0.6122 -0.2353
    2CHTO   H81  693   4.877   6.749   6.456 -1.2782  0.0906 -1.0063
    2CHTO    N7  694   4.676   6.757   6.447 -0.0143 -0.1234  0.5847
    2CHTO   H73  695   4.692   6.690   6.363  1.2174  2.1717 -1.0574
    2CHTO   H74  696   4.577   6.761   6.488  1.1147 -0.3377  3.4443
    2CHTO   C40  697   4.831   6.897   6.602  0.2598  0.0597  0.0106
    2CHTO   H82  698   4.749   6.917   6.672  1.0730  1.7028  0.5253
    2CHTO   O26  699   4.958   6.900   6.665  0.7881  0.1055  0.3433
    2CHTO   C41  700   4.968   6.793   6.765 -0.1000 -0.3604  0.7095
    2CHTO   H83  701   4.897   6.815   6.846 -1.2029  0.2061 -0.4064
    2CHTO   C52  702   5.112   6.802   6.817 -0.1747 -0.1632  0.2610
    2CHTO   O35  703   5.150   6.932   6.879 -0.3286 -0.1357 -0.6474
    2CHTO   H71  704   5.219   6.922   6.941 -1.3865 -1.0750  0.4138
    2CHTO   O28  705   4.841   7.005   6.507  0.0777  0.0096  0.3885
    2CHTO   C42  706   4.826   7.147   6.534  0.2737  0.0566  0.2242
    2CHTO   H84  707   4.842   7.188   6.434 -0.5899 -0.0385  0.0386
    2CHTO   C44  708   4.934   7.205   6.615 -0.4668  0.1926 -0.0119
    2CHTO   H86  709   4.945   7.145   6.706  0.5637  1.4120  0.6929
    2CHTO   O32  710   5.061   7.198   6.551 -0.0283  0.1722 -0.2826
    2CHTO   H69  711   5.130   7.149   6.593  0.7690  1.9583  0.5529
    2CHTO   C48  712   4.914   7.358   6.651  0.4781  0.2651  0.0051
    2CHTO   H90  713   4.932   7.410   6.557  1.4540  1.5408  0.8765
    2CHTO    N9  714   5.008   7.413   6.757 -0.0430  0.0796  0.0286
    2CHTO   H77  715   4.943   7.439   6.839 -1.6755  1.1798 -1.5760
    2CHTO   H78  716   5.048   7.502   6.711  1.2376  0.0404  1.0463
    2CHTO   C51  717   4.767   7.390   6.691 -0.2881  0.3439  0.3524
    2CHTO   H93  718   4.748   7.341   6.787 -0.6691 -0.1543  0.0259
    2CHTO   O30  719   4.677   7.344   6.587 -0.2782 -0.5770  0.5971
    2CHTO   C46  720   4.684   7.184   6.571 -0.1983 -0.2856  0.1314
    2CHTO   H88  721   4.666   7.141   6.669  3.0052 -0.9742  0.4538
    2CHTO   C53  722   4.571   7.153   6.470 -0.0753 -0.3693 -0.1919
    2CHTO   O72  723   4.432   7.183   6.513  0.1936  0.3712  0.0618
    2CHTO  H199  724   4.394   7.111   6.561 -1.0247  0.8532 -0.1552
    2CHTO   O22  725   4.739   7.532   6.697 -0.4863  0.2972  0.1704
    2CHTO   C31  726   4.623   7.603   6.745  0.0151 -0.1521 -0.6191
    2CHTO   H59  727   4.640   7.708   6.712  1.4092 -0.1174  0.1883
    2CHTO   C29  728   4.487   7.564   6.680 -0.5483 -0.1123 -1.1399
    2CHTO   H57  729   4.489   7.460   6.714 -1.5232 -0.0757 -0.9537
    2CHTO   O21  730   4.502   7.565   6.533  0.8029  0.3123 -0.5899
    2CHTO   H37  731   4.477   7.652   6.506  0.7195  0.7179  0.7555
    2CHTO   C27  732   4.366   7.643   6.743 -0.4122 -0.2736  0.1308
    2CHTO   H55  733   4.383   7.750   6.723 -0.6909 -0.0648  0.9619
    2CHTO    N5  734   4.236   7.611   6.679 -0.8390  0.2555 -0.2847
    2CHTO   H43  735   4.200   7.687   6.612  0.8483 -0.3593 -1.9251
    2CHTO   H44  736   4.167   7.569   6.750  3.0863 -0.4955  3.3144
    2CHTO   C25  737   4.372   7.632   6.897 -0.2735 -0.2984 -0.4708
    2CHTO   H53  738   4.366   7.532   6.941 -1.6563 -0.2146 -0.4477
    2CHTO   O17  739   4.501   7.692   6.940 -0.0439  0.6723  0.1128
    2CHTO   C32  740   4.614   7.608   6.900 -0.3240  0.0810  0.0326
    2CHTO   H60  741   4.590   7.507   6.932  1.3776 -0.8765 -1.6290
    2CHTO   C36  742   4.749   7.664   6.955  0.1724 -0.1191  0.5317
    2CHTO   O25  743   4.783   7.797   6.923  0.2114 -0.2235  0.2347
    2CHTO   H40  744   4.770   7.847   7.001 -1.3922 -1.5174  0.8276
    2CHTO   O15  745   4.270   7.717   6.982  0.1473 -0.9266  0.0254
    2CHTO   C19  746   4.190   7.690   7.106  0.6067 -0.2100  0.1855
    2CHTO   H47  747   4.126   7.779   7.116  1.7889  0.5513  1.1433
    2CHTO   C20  748   4.106   7.553   7.093  0.1506  0.0883 -0.5145
    2CHTO   H48  749   4.171   7.465   7.081 -1.2719 -1.2484  1.2164
    2CHTO   O19  750   4.019   7.559   6.974 -0.4490  0.1513 -0.0427
    2CHTO   H35  751   3.957   7.628   6.978  0.7205  1.3107 -1.2939
    2CHTO   C21  752   4.015   7.538   7.226  0.1160  0.1177  0.5766
    2CHTO   H49  753   3.939   7.616   7.229  1.2464  1.4731 -2.9276
    2CHTO    N4  754   3.938   7.410   7.226  0.4739 -0.7252  0.3607
    2CHTO   H41  755   3.877   7.397   7.314  1.1383  0.3695  0.9780
    2CHTO   H42  756   3.872   7.407   7.140 -0.1843 -2.2313  0.8977
    2CHTO   C22  757   4.107   7.547   7.346  0.2113  0.6909 -0.4667
    2CHTO   H50  758   4.182   7.470   7.360 -0.5897  0.0050  0.1380
    2CHTO   O14  759   4.180   7.671   7.348 -0.1244  0.0547 -0.6039
    2CHTO   C23  760   4.271   7.692   7.238  0.0353  0.4149 -0.6772
    2CHTO   H51  761   4.350   7.615   7.242  0.1823  0.5872 -0.0341
    2CHTO   C34  762   4.342   7.819   7.272  0.4079 -0.1992  0.8965
    2CHTO   O23  763   4.433   7.863   7.167  0.6132 -0.9981 -0.4359
    2CHTO   H38  764   4.475   7.940   7.198  1.4945 -1.9432  0.7485
    2CHTO   O16  765   4.025   7.556   7.462  0.0908 -0.1523  0.4913
    2CHTO   C24  766   4.068   7.507   7.589  0.8496  0.0026 -0.0044
    2CHTO   H52  767   4.173   7.480   7.590  0.2458 -2.4554 -0.5407
    2CHTO   C26  768   3.999   7.374   7.622  0.8500  0.0209 -0.8056
    2CHTO   H54  769   3.891   7.384   7.599  0.5520  0.8887  0.8650
    2CHTO   O20  770   4.045   7.269   7.532  0.1103 -0.2591 -0.0291
    2CHTO   H36  771   3.981   7.255   7.465 -2.0103 -1.1091  2.0822
    2CHTO   C30  772   4.009   7.331   7.773 -0.0429 -0.0530  0.1981
    2CHTO   H58  773   4.114   7.301   7.790 -0.6366 -1.2724  1.7633
    2CHTO    N6  774   3.926   7.209   7.799  0.2400  0.2570 -0.5370
    2CHTO   H45  775   3.820   7.230   7.792  0.2932  0.8227  0.3571
    2CHTO   H46  776   3.946   7.182   7.901  1.5311  3.2355  0.0366
    2CHTO   C33  777   3.976   7.450   7.864  0.0197 -0.4329  0.9006
    2CHTO   H61  778   3.871   7.478   7.847  0.1167 -1.3311 -1.3300
    2CHTO   O18  779   4.061   7.561   7.833  0.2225  0.1710  0.0649
    2CHTO   C28  780   4.045   7.610   7.701 -0.6074  0.4339  0.0657
    2CHTO   H56  781   3.948   7.658   7.688 -0.1702  0.9493 -1.3686
    2CHTO   C35  782   4.149   7.721   7.670 -0.3493 -0.1386  0.3392
    2CHTO   O24  783   4.130   7.832   7.759 -0.2735 -0.2600  0.3065
    2CHTO   H39  784   4.122   7.811   7.850 -0.2941  1.2080  0.6548
    2CHTO    O9  785   3.987   7.420   8.006  0.4408 -0.5019 -0.0116
    2CHTO   C13  786   3.901   7.510   8.100 -0.2256 -0.3501  0.0307
    2CHTO   H26  787   3.804   7.527   8.048 -0.6911  2.5918  1.7890
    2CHTO   C11  788   3.978   7.646   8.124  0.4376  0.0370  0.1391
    2CHTO   H24  789   3.965   7.702   8.031 -1.2351  0.4356  0.5820
    2CHTO    O8  790   4.114   7.631   8.151 -0.0810 -0.6065 -0.5551
    2CHTO    H3  791   4.131   7.554   8.202 -0.9379  0.3099  1.1546
    2CHTO    C9  792   3.903   7.720   8.237 -0.3280 -0.8683 -0.1037
    2CHTO   H22  793   3.795   7.712   8.218 -0.6433 -2.1458  2.0790
    2CHTO    N2  794   3.929   7.867   8.233 -0.1070 -0.7777 -0.3663
    2CHTO   H10  795   3.876   7.921   8.311 -2.1105  0.7640 -2.7301
    2CHTO   H11  796   4.034   7.887   8.247 -0.4312  0.1093  0.9736
    2CHTO    C7  797   3.917   7.633   8.375  0.6491 -0.1383  0.1390
    2CHTO   H20  798   3.818   7.643   8.424 -0.3850  1.1648 -2.1194
    2CHTO    O4  799   3.942   7.491   8.338  0.5254 -0.5018 -0.3901
    2CHTO   C14  800   3.862   7.435   8.230  0.5766 -0.1120 -0.0320
    2CHTO   H27  801   3.754   7.436   8.253  0.9088 -0.1534  1.5936
    2CHTO   C18  802   3.900   7.285   8.218 -0.4321  0.1002  0.2317
    2CHTO   O13  803   3.836   7.195   8.123  0.5528  0.1568 -0.3180
    2CHTO    H7  804   3.789   7.126   8.164  2.8153 -1.4365 -0.2913
    2CHTO    O2  805   4.042   7.697   8.470 -0.6019  0.2180  0.3109
    2CHTO    C1  806   4.016   7.718   8.609  1.1879  0.0442 -0.1675
    2CHTO   H14  807   3.952   7.631   8.635 -0.9722  1.6628  0.1188
    2CHTO    C2  808   3.936   7.855   8.642  0.0586  0.4989 -0.7220
    2CHTO   H15  809   4.009   7.923   8.597  1.6288 -0.7070 -0.0705
    2CHTO    O6  810   3.810   7.856   8.576  0.6285  0.4769  0.2528
    2CHTO    H1  811   3.775   7.942   8.578  0.3174  0.3588 -0.1697
    2CHTO    C3  812   3.919   7.882   8.798  0.4367  0.2001 -0.0977
    2CHTO   H16  813   3.845   7.813   8.842  1.1193 -1.8309 -2.0390
    2CHTO    N1  814   3.867   8.016   8.826 -0.2392  0.5566 -0.0632
    2CHTO    H8  815   3.935   8.076   8.886  1.6113  0.6153 -2.1650
    2CHTO    H9  816   3.770   8.012   8.874 -0.1314  0.3259  0.1384
    2CHTO    C4  817   4.058   7.863   8.871  0.0382  0.4080  0.8149
    2CHTO   H17  818   4.126   7.943   8.844 -0.1745  0.5004  0.5381
    2CHTO    O1  819   4.109   7.735   8.836 -0.1633  0.2648 -0.9698
    2CHTO    C5  820   4.147   7.713   8.693  0.2044 -1.0202 -0.0693
    2CHTO   H18  821   4.214   7.795   8.665 -0.1505 -0.3649  0.9805
    2CHTO   C16  822   4.224   7.578   8.674  0.0980 -0.5433  0.0892
    2CHTO   O11  823   4.359   7.571   8.708 -0.7229 -0.4365 -0.0196
    2CHTO    H5  824   4.390   7.483   8.719  0.1602 -0.3711 -1.8468
    2CHTO    O3  825   4.049   7.857   9.014 -0.1347  0.4628 -0.0998
    2CHTO    C6  826   4.169   7.882   9.098  0.1305 -0.4483  0.2186
    2CHTO   H19  827   4.260   7.877   9.038 -0.8966  0.3781 -1.4212
    2CHTO    C8  828   4.146   8.009   9.173 -0.1387  0.3984  0.2247
    2CHTO   H21  829   4.055   7.996   9.232 -0.4794 -0.8450 -0.5634
    2CHTO    O7  830   4.146   8.110   9.072  0.9866 -0.0541 -0.5642
    2CHTO    H2  831   4.159   8.196   9.105 -0.4364 -0.2066  0.4652
    2CHTO   C12  832   4.258   8.029   9.283  0.5200  0.3897 -0.0927
    2CHTO   H25  833   4.357   8.027   9.233  0.6857 -1.9552  0.2782
    2CHTO    N3  834   4.235   8.165   9.351  0.3697 -0.4450  0.6425
    2CHTO   H12  835   4.311   8.164   9.428  0.0468 -1.3526  0.9590
    2CHTO   H13  836   4.140   8.171   9.401  1.2658  0.6455  2.2541
    2CHTO   C15  837   4.256   7.900   9.382  0.6529 -0.9464  1.0078
    2CHTO   H28  838   4.168   7.898   9.445 -1.1693  3.3774 -1.2058
    2CHTO   O10  839   4.384   7.906   9.475  0.1398  0.1968  0.3782
    2CHTO    H4  840   4.376   7.847   9.547 -1.1868  0.7645  0.7144
    2CHTO    O5  841   4.276   7.782   9.303  0.1980  0.1875  0.0320
    2CHTO   C10  842   4.177   7.764   9.201 -0.1149  0.0026 -1.1790
    2CHTO   H23  843   4.086   7.752   9.260  0.7061 -1.7984 -0.2570
    2CHTO   C17  844   4.212   7.637   9.140 -0.2935 -0.1066  0.4753
    2CHTO   O12  845   4.107   7.568   9.082 -0.2663  0.1399 -0.0803
    2CHTO    H6  846   4.067   7.622   9.016  0.9262  0.2362 -0.7354
    3CHTO  H203  847   5.947   3.521   4.835  0.6442  1.9558  0.3319
    3CHTO   O82  848   5.867   3.520   4.884  0.6371  0.1824  0.3175
    3CHTO  C123  849   5.777   3.418   4.833  0.1905 -0.5274 -0.0926
    3CHTO  H227  850   5.696   3.405   4.906  1.5682  1.1778  1.7916
    3CHTO   O77  851   5.720   3.491   4.717 -0.1727  0.4647  0.4642
    3CHTO  C118  852   5.607   3.426   4.651 -0.1255  0.0656 -0.0970
    3CHTO  H222  853   5.529   3.407   4.725  0.5300 -0.1906  0.5283
    3CHTO  C125  854   5.555   3.520   4.532  0.0106  0.2386 -0.0180
    3CHTO   O84  855   5.513   3.654   4.573 -0.4543  0.5529  0.3623
    3CHTO  H205  856   5.580   3.706   4.613  1.6894 -1.0625 -1.0504
    3CHTO  C114  857   5.666   3.294   4.587 -0.4811  0.1040  0.2261
    3CHTO  H218  858   5.745   3.320   4.517 -0.5213  1.6122  0.7199
    3CHTO  C116  859   5.726   3.206   4.695  0.3476  0.1303 -0.3420
    3CHTO  H220  860   5.644   3.151   4.745  1.3381 -2.1853 -1.1661
    3CHTO   O79  861   5.802   3.100   4.630  0.3622  0.1648  0.1190
    3CHTO  H201  862   5.894   3.108   4.614  0.6499 -2.5133  0.1632
    3CHTO  C120  863   5.827   3.279   4.787 -0.0395  0.5982 -0.8093
    3CHTO  H224  864   5.922   3.287   4.730  0.4512 -0.1280 -0.1073
    3CHTO   N21  865   5.863   3.197   4.908 -0.0753  0.2137  0.0258
    3CHTO  H211  866   5.867   3.094   4.876 -0.1286  0.4562 -0.7897
    3CHTO  H212  867   5.959   3.239   4.933  0.1409 -0.4163  0.2604
    3CHTO   O75  868   5.562   3.233   4.519  0.8718 -1.0140 -0.4566
    3CHTO  C112  869   5.612   3.129   4.389  0.4836  0.5270 -0.0975
    3CHTO  H216  870   5.623   3.029   4.432  1.0934  1.1632  1.2787
    3CHTO   O73  871   5.730   3.182   4.323  0.5663 -0.1396  0.4101
    3CHTO  C113  872   5.773   3.115   4.207 -0.0364  0.1726 -0.0156
    3CHTO  H217  873   5.791   3.010   4.238  1.1445  0.6480  0.9383
    3CHTO  C124  874   5.905   3.174   4.164 -0.0967 -0.6500  0.4577
    3CHTO   O83  875   6.010   3.150   4.261 -0.1557 -0.6690 -0.3716
    3CHTO  H204  876   6.063   3.076   4.239  1.2717  0.4945 -0.9631
    3CHTO  C109  877   5.663   3.122   4.094  0.4291  0.8164 -0.0236
    3CHTO  H213  878   5.645   3.229   4.077 -0.1429  0.4732 -1.6812
    3CHTO  C110  879   5.536   3.056   4.154 -0.3995 -0.0844  0.4864
    3CHTO  H214  880   5.554   2.949   4.166  0.2771  0.1363  1.4833
    3CHTO   O78  881   5.438   3.068   4.055 -0.2359  0.1020  0.1235
    3CHTO  H200  882   5.368   3.007   4.069 -0.5784 -0.3084 -2.9951
    3CHTO  C111  883   5.494   3.132   4.290 -0.0655  1.1145 -0.3002
    3CHTO  H215  884   5.480   3.239   4.270 -0.6799  1.6577  2.7703
    3CHTO   N19  885   5.367   3.088   4.348  0.4221 -0.0742 -0.3799
    3CHTO  H207  886   5.304   3.173   4.372  2.3304  0.4903  3.0273
    3CHTO  H208  887   5.318   3.015   4.287 -0.5497 -0.4138  0.7928
    3CHTO   O74  888   5.716   3.064   3.967 -0.8203 -0.4563  0.0898
    3CHTO  C115  889   5.727   3.150   3.862  0.1534  0.5131  0.5737
    3CHTO  H219  890   5.711   3.253   3.892 -4.8939 -0.4563  1.6671
    3CHTO   O76  891   5.871   3.138   3.781 -0.0042 -0.1534 -0.5935
    3CHTO  C122  892   5.904   3.003   3.735  0.0446 -0.1760  0.0519
    3CHTO  H226  893   5.946   2.952   3.822 -3.4910 -1.3295  1.1841
    3CHTO  C126  894   6.029   3.019   3.635 -0.2406  0.6819  0.0367
    3CHTO   O85  895   5.999   3.098   3.519  0.2481 -0.1862  1.4591
    3CHTO  H206  896   6.077   3.133   3.481 -0.7264 -0.9090 -1.3476
    3CHTO  C121  897   5.784   2.934   3.667 -0.3606  0.3254  0.1411
    3CHTO  H225  898   5.822   2.877   3.580 -2.0016 -0.4734 -0.0835
    3CHTO   O81  899   5.733   2.833   3.757  0.5470 -0.1661 -0.4591
    3CHTO  H202  900   5.671   2.779   3.712  0.1536  0.0071 -0.1252
    3CHTO  C119  901   5.670   3.035   3.621 -0.7077 -0.1283 -0.5007
    3CHTO  H223  902   5.720   3.104   3.553 -0.4237  0.6814  0.5093
    3CHTO  C117  903   5.618   3.106   3.747 -0.3155 -0.4041 -0.2375
    3CHTO  H221  904   5.547   3.046   3.804 -0.0313 -0.3265  0.2000
    3CHTO   N20  905   5.535   3.230   3.699 -0.1057  0.6659  0.2135
    3CHTO  H209  906   5.583   3.269   3.610  2.0627 -0.2368  0.9487
    3CHTO  H210  907   5.542   3.301   3.779 -1.1893  1.3647 -0.2999
    3CHTO   O80  908   5.569   2.969   3.519 -0.1150 -0.3426  0.5869
    3CHTO  C103  909   5.490   2.862   3.567 -0.1367  0.2142  0.4724
    3CHTO  H190  910   5.529   2.816   3.657 -1.5657 -1.5759  0.1962
    3CHTO  C101  911   5.339   2.886   3.594  0.2850 -0.4386  0.1515
    3CHTO  H188  912   5.299   2.937   3.507  0.5114 -0.0763  0.2589
    3CHTO   O68  913   5.315   2.964   3.730  0.4841 -0.0463  0.1016
    3CHTO  H168  914   5.363   3.044   3.743 -0.1573  0.3525  0.0417
    3CHTO   C99  915   5.247   2.753   3.587 -0.3648 -0.2096 -0.2570
    3CHTO  H186  916   5.257   2.696   3.682 -0.7926 -0.8055 -0.5722
    3CHTO   N17  917   5.099   2.781   3.592 -0.0152  0.2939 -0.7426
    3CHTO  H174  918   5.071   2.825   3.687  0.0081 -0.7716 -0.2276
    3CHTO  H175  919   5.073   2.848   3.512  0.7409 -0.9517 -2.0579
    3CHTO   C97  920   5.291   2.660   3.473  0.0216  0.7536  0.2099
    3CHTO  H184  921   5.257   2.707   3.379 -1.0459  1.4154  0.9177
    3CHTO   O64  922   5.428   2.631   3.477  0.1872 -0.1060  0.2977
    3CHTO  C104  923   5.500   2.750   3.454 -0.0209 -0.1678 -0.3991
    3CHTO  H191  924   5.478   2.793   3.356 -0.3016 -1.1075 -0.7509
    3CHTO  C108  925   5.648   2.705   3.448 -0.0298  0.2136 -0.1134
    3CHTO   O71  926   5.672   2.615   3.336  0.0632 -0.3470  0.2179
    3CHTO  H171  927   5.734   2.549   3.360  0.5505  0.3474  0.8656
    3CHTO   O62  928   5.227   2.528   3.476  0.8329 -0.3466  0.0990
    3CHTO   C91  929   5.203   2.463   3.355 -0.1358 -0.0781  0.4404
    3CHTO  H178  930   5.180   2.542   3.283  0.6048 -1.9741 -1.9629
    3CHTO   C92  931   5.077   2.366   3.377  0.3105 -0.2758  0.1231
    3CHTO  H179  932   5.083   2.310   3.472 -1.6485  0.3875  0.6688
    3CHTO   O66  933   4.967   2.459   3.384  0.0079 -0.0847 -0.1392
    3CHTO  H166  934   4.954   2.499   3.301 -0.9059 -1.2051 -0.5477
    3CHTO   C93  935   5.064   2.260   3.257 -0.1454 -0.4167 -0.0633
    3CHTO  H180  936   5.053   2.322   3.167  1.5996  0.2851  0.1939
    3CHTO   N16  937   4.946   2.170   3.261 -0.9667 -0.5743  0.0283
    3CHTO  H172  938   4.907   2.146   3.163 -0.3388  0.0345 -0.3749
    3CHTO  H173  939   4.957   2.088   3.331 -1.8954  0.1671  1.0435
    3CHTO   C94  940   5.193   2.171   3.244 -0.1169  0.1718 -0.0091
    3CHTO  H181  941   5.192   2.085   3.312 -0.7267  0.2543  0.0940
    3CHTO   O61  942   5.311   2.237   3.299  0.6682  1.0036 -0.7394
    3CHTO   C95  943   5.327   2.383   3.301 -0.3480 -0.4505 -0.8439
    3CHTO  H182  944   5.417   2.407   3.359  0.0734 -0.9690 -1.2809
    3CHTO  C106  945   5.364   2.434   3.153  0.2320  0.1320 -0.2356
    3CHTO   O69  946   5.458   2.346   3.103  0.3298  0.1099  0.5932
    3CHTO  H169  947   5.533   2.389   3.066 -0.9268 -0.3515 -2.5897
    3CHTO   O63  948   5.201   2.126   3.101 -0.5199  0.1164 -0.0219
    3CHTO   C96  949   5.288   1.985   3.098 -0.0153 -0.0846 -0.0817
    3CHTO  H183  950   5.248   1.921   3.020  3.1030  0.9331 -2.6572
    3CHTO   C98  951   5.301   1.884   3.220 -0.2709  0.0488 -0.3597
    3CHTO  H185  952   5.344   1.942   3.304 -2.7934  0.2650  0.8296
    3CHTO   O67  953   5.169   1.838   3.249  0.5518 -0.2621  0.1571
    3CHTO  H167  954   5.152   1.759   3.202  1.6492  0.1735 -0.9968
    3CHTO  C102  955   5.395   1.749   3.192 -0.3242 -0.1513 -0.4761
    3CHTO  H189  956   5.331   1.679   3.136  1.2463 -1.1309 -1.0909
    3CHTO   N18  957   5.437   1.672   3.316 -0.2875  0.2973 -0.6093
    3CHTO  H176  958   5.523   1.613   3.288  0.0812  0.1773  0.7367
    3CHTO  H177  959   5.469   1.741   3.393  1.9268 -0.8803 -0.4426
    3CHTO  C105  960   5.511   1.788   3.094  0.5346  1.2231  0.4363
    3CHTO  H192  961   5.604   1.737   3.122 -1.1975 -1.1571  2.0273
    3CHTO   O65  962   5.540   1.928   3.080  0.3217 -0.3596  0.2222
    3CHTO  C100  963   5.437   2.021   3.047 -0.0249  0.0878 -1.0310
    3CHTO  H187  964   5.469   2.106   3.108  2.0722 -1.1957 -0.2831
    3CHTO  C107  965   5.442   2.062   2.896  0.0213  0.1120 -0.0407
    3CHTO   O70  966   5.343   2.159   2.870  0.7280  0.6320  0.2384
    3CHTO  H170  967   5.386   2.242   2.880  1.3184  0.5067 -1.2222
    3CHTO   O57  968   5.459   1.709   2.954  0.5499 -0.2382 -0.0976
    3CHTO   C85  969   5.451   1.588   2.890 -0.1884  0.0802  0.3619
    3CHTO  H157  970   5.533   1.591   2.815 -0.3028 -0.3542  0.2217
    3CHTO   C83  971   5.318   1.589   2.807 -0.0298  0.2642 -0.5263
    3CHTO  H155  972   5.331   1.664   2.728  2.5012 -0.3606 -0.7411
    3CHTO   O56  973   5.209   1.643   2.888  0.4132  0.1736 -0.2779
    3CHTO  H135  974   5.164   1.579   2.940  0.3321  1.4788  1.3137
    3CHTO   C81  975   5.298   1.447   2.741  0.5890  0.6131 -0.3386
    3CHTO  H153  976   5.388   1.424   2.685 -0.6157 -1.1004 -1.6413
    3CHTO   N14  977   5.196   1.440   2.638  0.3040  0.3849 -0.7759
    3CHTO  H141  978   5.205   1.521   2.569 -0.7919  0.8432 -0.3897
    3CHTO  H142  979   5.096   1.436   2.677 -0.4740 -0.5746 -2.7879
    3CHTO   C79  980   5.287   1.347   2.859  0.6226 -0.4860 -0.4451
    3CHTO  H151  981   5.275   1.246   2.819  0.3874 -0.3529 -0.7169
    3CHTO   O52  982   5.406   1.337   2.935  0.5521  0.0306 -0.1104
    3CHTO   C86  983   5.463   1.460   2.990  0.8302  0.3685  0.1027
    3CHTO  H158  984   5.401   1.469   3.082 -1.5424  0.6678 -1.4779
    3CHTO   C90  985   5.605   1.437   3.035 -0.1093 -0.1119 -0.1060
    3CHTO   O60  986   5.684   1.402   2.923  0.1144  0.3603  0.1663
    3CHTO  H138  987   5.697   1.482   2.876  3.0903  0.7288  1.5157
    3CHTO   O50  988   5.171   1.368   2.941 -0.1175 -0.1231 -0.2044
    3CHTO   C73  989   5.079   1.287   3.011 -0.1515  0.3429  0.1056
    3CHTO  H145  990   5.132   1.193   3.032  0.7699  0.2192 -2.5709
    3CHTO   C74  991   4.953   1.266   2.930  0.1965 -0.3868  0.4465
    3CHTO  H146  992   4.984   1.222   2.834 -0.2083  1.3104 -0.4885
    3CHTO   O54  993   4.867   1.171   2.991 -0.4008  0.2166  0.4562
    3CHTO  H133  994   4.914   1.105   3.038 -1.2304 -0.5340  0.2380
    3CHTO   C75  995   4.891   1.411   2.905 -0.2732 -0.5515 -0.2441
    3CHTO  H147  996   4.971   1.478   2.871 -1.0625 -0.3562 -1.7479
    3CHTO   N13  997   4.778   1.416   2.806 -0.4072  0.0134 -0.5700
    3CHTO  H139  998   4.705   1.337   2.820 -2.3947  1.8058 -0.4807
    3CHTO  H140  999   4.802   1.418   2.701  0.5055  0.8837 -0.3560
    3CHTO   C76 1000   4.856   1.470   3.047 -0.6856 -0.4955 -0.2543
    3CHTO  H148 1001   4.782   1.404   3.093 -1.6920  0.3936 -0.5633
    3CHTO   O49 1002   4.987   1.478   3.118  0.3605 -0.5308  0.0266
    3CHTO   C77 1003   5.050   1.348   3.148 -0.3112 -0.1238  0.6458
    3CHTO  H149 1004   4.971   1.290   3.195 -2.2365  0.2206 -2.0388
    3CHTO   C88 1005   5.177   1.356   3.236 -0.3872 -0.4138  0.7697
    3CHTO   O58 1006   5.167   1.473   3.344  0.1057 -0.4209  0.1225
    3CHTO  H136 1007   5.247   1.520   3.336 -0.8352  0.7634 -3.0583
    3CHTO   O51 1008   4.796   1.630   3.040  0.1397  0.1059  0.3443
    3CHTO   C78 1009   4.689   1.666   3.170  0.5414  0.0028 -0.0253
    3CHTO  H150 1010   4.647   1.574   3.217  1.4600  0.5796  1.9995
    3CHTO   C80 1011   4.580   1.747   3.104 -0.0207  0.4663 -0.5113
    3CHTO  H152 1012   4.628   1.834   3.055  0.7899 -0.3368 -1.1633
    3CHTO   O55 1013   4.529   1.660   3.004  0.1788  0.4083 -1.6454
    3CHTO  H134 1014   4.559   1.664   2.915  0.5593 -0.0570 -1.5434
    3CHTO   C84 1015   4.469   1.797   3.203  0.9152 -0.0661  0.1837
    3CHTO  H156 1016   4.427   1.706   3.245  1.5398 -0.6430 -0.4273
    3CHTO   N15 1017   4.356   1.872   3.137  0.5764  0.8431 -0.2338
    3CHTO  H143 1018   4.265   1.852   3.189  0.5174 -0.2856 -0.7529
    3CHTO  H144 1019   4.346   1.838   3.036 -1.0950  0.6283 -0.0134
    3CHTO   C87 1020   4.527   1.870   3.318  0.1123 -0.3603  0.1349
    3CHTO  H159 1021   4.569   1.966   3.290  0.8598 -1.1498 -1.5259
    3CHTO   O53 1022   4.658   1.784   3.383 -0.0847 -0.3558 -0.8447
    3CHTO   C82 1023   4.757   1.740   3.287 -0.1772 -0.4761  0.3030
    3CHTO  H154 1024   4.801   1.834   3.257 -1.0136  0.0201  0.5893
    3CHTO   C89 1025   4.864   1.652   3.356 -1.0695  0.3719 -0.2549
    3CHTO   O59 1026   4.933   1.725   3.456 -0.1744 -0.3195  0.6569
    3CHTO  H137 1027   5.011   1.682   3.485  1.1910  1.6015 -0.0976
    3CHTO   O45 1028   4.406   1.908   3.424  0.2972  0.1905 -0.4310
    3CHTO   C67 1029   4.440   2.018   3.508 -0.2360  0.0646 -0.0009
    3CHTO  H124 1030   4.547   2.032   3.500  0.0491 -1.8222  0.4161
    3CHTO   C65 1031   4.369   2.150   3.460 -0.1420  0.2210 -0.2246
    3CHTO  H122 1032   4.270   2.119   3.426  0.1461 -0.0930 -0.7681
    3CHTO   O44 1033   4.448   2.193   3.347 -0.0572  0.2558  0.3470
    3CHTO  H102 1034   4.537   2.198   3.378 -0.3089  0.5629  1.0202
    3CHTO   C63 1035   4.336   2.252   3.583 -0.2982  0.4930 -0.1317
    3CHTO  H120 1036   4.244   2.216   3.630  0.4175 -0.3973  0.6124
    3CHTO   N11 1037   4.305   2.387   3.540 -0.0493 -0.5994 -0.0121
    3CHTO  H108 1038   4.237   2.392   3.458  0.6002 -2.4628 -0.7020
    3CHTO  H109 1039   4.281   2.448   3.624 -5.3613  2.0174 -3.1748
    3CHTO   C61 1040   4.440   2.234   3.707  0.9171 -0.2594  0.5128
    3CHTO  H118 1041   4.400   2.285   3.796 -0.9625  1.0335 -1.0138
    3CHTO   O40 1042   4.468   2.097   3.748  0.1539 -1.1214 -0.5069
    3CHTO   C68 1043   4.405   1.996   3.666 -0.7134 -0.5229 -0.5861
    3CHTO  H125 1044   4.297   2.004   3.688 -1.2761 -0.4770 -3.2201
    3CHTO   C72 1045   4.454   1.857   3.712  0.0969  0.2175 -0.9096
    3CHTO   O48 1046   4.594   1.834   3.691 -0.3023 -0.0838 -0.3178
    3CHTO  H105 1047   4.648   1.855   3.764 -0.0810  0.9650 -0.7749
    3CHTO   O38 1048   4.576   2.279   3.671 -0.4514  0.0484 -0.4283
    3CHTO   C55 1049   4.666   2.312   3.780  0.1493 -0.5323 -0.7837
    3CHTO  H112 1050   4.644   2.253   3.870 -0.5178  0.5910 -0.1942
    3CHTO   C56 1051   4.673   2.466   3.811 -0.5097 -0.0220  0.4737
    3CHTO  H113 1052   4.704   2.509   3.715  0.3254 -0.3900  0.5745
    3CHTO   O42 1053   4.543   2.517   3.858  0.0461 -0.4371  0.0026
    3CHTO  H100 1054   4.532   2.605   3.827 -0.2987 -0.1341  0.9838
    3CHTO   C57 1055   4.789   2.496   3.907 -0.1277 -0.1765 -0.2640
    3CHTO  H114 1056   4.760   2.470   4.009 -0.3269 -0.0190 -0.2812
    3CHTO   N10 1057   4.823   2.640   3.909  0.1578  0.7513 -0.7432
    3CHTO  H106 1058   4.746   2.688   3.968  2.4719  3.0566  0.5116
    3CHTO  H107 1059   4.915   2.650   3.965  0.4433 -0.1590 -1.0445
    3CHTO   C58 1060   4.919   2.419   3.864  0.3938 -1.0677  0.0954
    3CHTO  H115 1061   4.955   2.467   3.771  0.8150 -1.3909  0.0917
    3CHTO   O37 1062   4.897   2.282   3.841  0.6125 -0.6473  0.2323
    3CHTO   C59 1063   4.804   2.266   3.734 -0.6061  0.1043  0.6453
    3CHTO  H116 1064   4.840   2.330   3.653 -0.0338  0.8147  1.4527
    3CHTO   C70 1065   4.816   2.123   3.697  0.6700 -0.0736 -0.0193
    3CHTO   O46 1066   4.807   2.101   3.555  0.1893  0.1448  0.5415
    3CHTO  H103 1067   4.877   2.147   3.513  0.4548  0.5379  1.4155
    3CHTO   O39 1068   5.031   2.404   3.995  0.6141 -0.5524  0.3024
    3CHTO   C60 1069   5.167   2.397   3.950 -0.4122  0.4825  0.2861
    3CHTO  H117 1070   5.163   2.386   3.842 -2.5709  0.5653  0.3501
    3CHTO   C62 1071   5.236   2.538   3.988  0.3600  0.9559 -0.9869
    3CHTO  H119 1072   5.179   2.619   3.938 -2.1576  0.2545  0.6550
    3CHTO   O43 1073   5.240   2.554   4.129 -0.7529 -0.5364  0.9738
    3CHTO  H101 1074   5.326   2.550   4.167 -0.5042  1.8843  0.7218
    3CHTO   C66 1075   5.380   2.537   3.922  0.3807  0.1372 -0.0192
    3CHTO  H123 1076   5.365   2.528   3.814  4.1739  0.3598 -0.6360
    3CHTO   N12 1077   5.459   2.663   3.943 -0.5587  0.3804  0.7270
    3CHTO  H110 1078   5.561   2.634   3.921 -1.5258 -3.1908  0.6035
    3CHTO  H111 1079   5.446   2.676   4.049 -1.9989 -0.9933  0.7451
    3CHTO   C69 1080   5.463   2.410   3.964 -0.1189 -0.6005 -0.0239
    3CHTO  H126 1081   5.496   2.423   4.069  0.9148 -1.2339 -0.2645
    3CHTO   O41 1082   5.382   2.273   3.958  0.1967  0.0076 -0.0198
    3CHTO   C64 1083   5.249   2.271   4.008 -0.1949 -0.0648 -0.0224
    3CHTO  H121 1084   5.254   2.282   4.119  1.2100 -0.2584 -0.0528
    3CHTO   C71 1085   5.172   2.144   3.975 -0.1399  0.1177  0.3250
    3CHTO   O47 1086   5.157   2.054   4.088 -0.3185  0.2850 -0.0883
    3CHTO  H104 1087   5.161   1.964   4.062  0.1620  0.1417  0.4827
    3CHTO   O34 1088   5.567   2.395   3.878  0.1447  0.0371  0.3374
    3CHTO   C49 1089   5.596   2.389   3.714  0.2306 -0.7367 -0.0217
    3CHTO   H91 1090   5.603   2.493   3.681  0.3388 -0.5231  0.6502
    3CHTO   C47 1091   5.500   2.304   3.628  0.2958 -0.0525  0.9553
    3CHTO   H89 1092   5.522   2.323   3.521 -1.5123  0.6202  0.6869
    3CHTO   O33 1093   5.361   2.349   3.656 -0.3900 -0.6923  0.0260
    3CHTO   H70 1094   5.345   2.439   3.638  0.4720 -0.2497  1.4225
    3CHTO   C45 1095   5.518   2.145   3.656  0.1788 -0.2320 -0.7768
    3CHTO   H87 1096   5.500   2.126   3.763  0.1034 -1.1714 -0.9484
    3CHTO    N8 1097   5.420   2.063   3.581  1.1134 -0.0709 -0.2452
    3CHTO   H75 1098   5.479   1.993   3.524 -0.1303 -0.6481 -0.8471
    3CHTO   H76 1099   5.360   1.995   3.639  1.5645 -0.1181  0.1717
    3CHTO   C43 1100   5.659   2.103   3.632 -0.5522 -0.0348 -0.5377
    3CHTO   H85 1101   5.663   1.999   3.661 -0.3901  0.3946  1.0190
    3CHTO   O29 1102   5.751   2.181   3.705  0.7166  0.1209  0.6672
    3CHTO   C50 1103   5.736   2.323   3.698 -0.3417 -1.0003 -0.6981
    3CHTO   H92 1104   5.798   2.351   3.785  2.9703 -2.7522 -2.3995
    3CHTO   C54 1105   5.821   2.389   3.580 -0.4948 -0.6806  0.7188
    3CHTO   O36 1106   5.966   2.383   3.590 -0.3422  0.2911  0.1285
    3CHTO   H72 1107   5.995   2.472   3.590  1.4540 -0.2443  2.4749
    3CHTO   O27 1108   5.691   2.105   3.485 -0.0180 -0.0687  0.1571
    3CHTO   C37 1109   5.785   2.053   3.397 -0.4238  0.1658  0.3574
    3CHTO   H79 1110   5.887   2.080   3.428 -0.2210 -0.7319  0.4664
    3CHTO   C38 1111   5.778   1.899   3.395  0.0232 -0.5056  0.7488
    3CHTO   H80 1112   5.683   1.855   3.360 -0.3585  0.2107  0.8689
    3CHTO   O31 1113   5.801   1.845   3.528  0.1334  0.5161  0.5869
    3CHTO   H68 1114   5.794   1.752   3.519  2.3188  0.5037 -1.1692
    3CHTO   C39 1115   5.879   1.839   3.292  0.0786  0.7980 -0.1232
    3CHTO   H81 1116   5.974   1.859   3.342 -0.0388  0.9471  0.0414
    3CHTO    N7 1117   5.876   1.684   3.286  0.0806 -0.1811  0.7061
    3CHTO   H73 1118   5.969   1.654   3.240 -1.6461 -3.3246 -0.9360
    3CHTO   H74 1119   5.792   1.647   3.228  1.7439 -2.2747 -0.4241
    3CHTO   C40 1120   5.867   1.904   3.145  0.4448 -0.0433  0.1696
    3CHTO   H82 1121   5.780   1.867   3.091 -0.1869 -0.2575  1.3042
    3CHTO   O26 1122   5.866   2.049   3.162 -0.1092  0.7235  0.2482
    3CHTO   C41 1123   5.770   2.104   3.254  0.3005  0.3672  0.2537
    3CHTO   H83 1124   5.671   2.062   3.233  0.5144  0.1346 -0.2997
    3CHTO   C52 1125   5.765   2.262   3.253 -0.0760 -0.1810  0.0722
    3CHTO   O35 1126   5.757   2.305   3.121 -0.3293  0.1102  0.2860
    3CHTO   H71 1127   5.673   2.316   3.081  0.0947  0.0382 -0.6215
    3CHTO   O28 1128   5.971   1.870   3.055 -0.3893 -0.6909  0.1414
    3CHTO   C42 1129   5.968   1.825   2.914 -0.0188 -0.0129 -0.4709
    3CHTO   H84 1130   6.070   1.843   2.882  0.0319 -0.7542 -0.7447
    3CHTO   C44 1131   5.879   1.900   2.819  0.5187  0.3622  0.2344
    3CHTO   H86 1132   5.774   1.885   2.845  0.9702 -2.0469  0.7740
    3CHTO   O32 1133   5.912   2.037   2.834 -0.2138  0.3343  0.0879
    3CHTO   H69 1134   5.848   2.090   2.789 -1.9695 -2.3928 -0.7491
    3CHTO   C48 1135   5.890   1.837   2.672  0.0465  0.2420 -0.0682
    3CHTO   H90 1136   5.997   1.845   2.649  0.3937  0.3052  1.4882
    3CHTO    N9 1137   5.810   1.915   2.576  0.1811 -0.2233 -0.4461
    3CHTO   H77 1138   5.751   1.985   2.633 -0.7549  1.0782 -2.9400
    3CHTO   H78 1139   5.878   1.953   2.502  1.7246  0.6440  1.3664
    3CHTO   C51 1140   5.849   1.684   2.671  0.3280 -0.1978  0.0360
    3CHTO   H93 1141   5.751   1.672   2.716  0.7403 -3.5346  0.1710
    3CHTO   O30 1142   5.948   1.621   2.748  0.0549  0.3007  0.2346
    3CHTO   C46 1143   5.938   1.670   2.903  0.1074 -0.3590 -0.8557
    3CHTO   H88 1144   5.841   1.639   2.940  0.3950  1.5835  1.6621
    3CHTO   C53 1145   6.043   1.592   2.976  0.1661  0.6781 -0.1977
    3CHTO   O72 1146   5.997   1.457   2.984 -0.1113 -0.3882  0.3867
    3CHTO  H199 1147   6.063   1.395   3.007 -1.5583 -2.2725 -0.3798
    3CHTO   O22 1148   5.841   1.619   2.537 -0.7356 -0.8150 -0.8848
    3CHTO   C31 1149   5.779   1.485   2.520 -0.8841 -0.3896 -0.0933
    3CHTO   H59 1150   5.808   1.454   2.418 -0.7249 -1.1482  0.1788
    3CHTO   C29 1151   5.834   1.380   2.616 -0.1638  0.3100 -0.1873
    3CHTO   H57 1152   5.811   1.410   2.719 -0.3223 -0.9677  0.1581
    3CHTO   O21 1153   5.983   1.378   2.602 -0.2371  0.3045  0.0771
    3CHTO   H37 1154   6.018   1.317   2.663 -0.0987  0.5011  0.1959
    3CHTO   C27 1155   5.775   1.238   2.588  0.5196 -0.6435  0.2126
    3CHTO   H55 1156   5.806   1.212   2.486  0.0971 -0.7288  0.1042
    3CHTO    N5 1157   5.824   1.138   2.679 -0.3197 -0.2436  0.0028
    3CHTO   H43 1158   5.932   1.135   2.674 -0.3009  0.5177 -0.1251
    3CHTO   H44 1159   5.787   1.042   2.647 -0.5276 -0.1143 -0.1426
    3CHTO   C25 1160   5.614   1.243   2.583 -0.3495  0.1194  0.6964
    3CHTO   H53 1161   5.574   1.263   2.684 -1.3688 -1.7517  0.6918
    3CHTO   O17 1162   5.567   1.357   2.500  0.2499  0.1177 -0.1531
    3CHTO   C32 1163   5.616   1.486   2.531  0.0676  0.3413 -0.6517
    3CHTO   H60 1164   5.581   1.502   2.633  1.5341  0.6931 -0.1973
    3CHTO   C36 1165   5.555   1.584   2.433 -0.7713  0.3141  0.3333
    3CHTO   O25 1166   5.563   1.722   2.477 -0.3896 -0.4617 -0.4044
    3CHTO   H40 1167   5.481   1.765   2.461 -0.2404 -0.2524 -0.6093
    3CHTO   O15 1168   5.554   1.105   2.537 -0.0464  0.3816  0.2400
    3CHTO   C19 1169   5.426   1.043   2.539 -0.1043 -0.6511 -0.2376
    3CHTO   H47 1170   5.426   0.958   2.469  0.8030 -0.7116 -0.1598
    3CHTO   C20 1171   5.382   0.984   2.687  0.1553 -0.2566 -0.1301
    3CHTO   H48 1172   5.383   1.057   2.769 -1.8671  0.4402 -0.7142
    3CHTO   O19 1173   5.464   0.875   2.718 -0.3719 -0.3633 -0.9198
    3CHTO   H35 1174   5.456   0.849   2.808  3.0104  0.6135 -0.2688
    3CHTO   C21 1175   5.236   0.922   2.706 -0.2487 -0.3757  0.0081
    3CHTO   H49 1176   5.237   0.824   2.657 -3.1307 -0.3631 -0.1849
    3CHTO    N4 1177   5.191   0.907   2.851 -0.0007 -0.4193 -0.2291
    3CHTO   H41 1178   5.269   0.862   2.911  0.0100  0.1675  0.2045
    3CHTO   H42 1179   5.169   1.000   2.900  1.1371 -1.4749  2.4240
    3CHTO   C22 1180   5.142   1.013   2.621 -0.1973  0.4331  0.2425
    3CHTO   H50 1181   5.097   1.098   2.672  0.1152  0.5781  0.2836
    3CHTO   O14 1182   5.192   1.059   2.492  0.0802 -0.2588 -0.3460
    3CHTO   C23 1183   5.311   1.131   2.490 -0.3973  0.1228 -0.4005
    3CHTO   H51 1184   5.304   1.223   2.550 -0.0581 -0.1879  0.1162
    3CHTO   C34 1185   5.330   1.175   2.347  0.0033 -0.1548  0.0182
    3CHTO   O23 1186   5.217   1.259   2.301  0.0265  0.3897 -0.2984
    3CHTO   H38 1187   5.230   1.321   2.232 -2.9032 -0.9898 -2.1726
    3CHTO   O16 1188   5.031   0.929   2.588 -0.1304  0.4049 -0.0045
    3CHTO   C24 1189   4.893   0.981   2.609 -0.0411 -0.0574 -0.2772
    3CHTO   H52 1190   4.893   1.075   2.665  3.2812  0.5232 -1.1298
    3CHTO   C26 1191   4.807   0.897   2.706 -0.0163  0.0347  0.4257
    3CHTO   H54 1192   4.792   0.795   2.664 -2.1817  0.6518 -0.3560
    3CHTO   O20 1193   4.890   0.881   2.822  0.0682 -0.1230 -0.2097
    3CHTO   H36 1194   4.869   0.951   2.881 -0.7952 -0.8200  0.3099
    3CHTO   C30 1195   4.674   0.975   2.733 -0.2192 -0.3653 -0.2984
    3CHTO   H58 1196   4.705   1.076   2.766  1.3962 -0.6008 -1.0409
    3CHTO    N6 1197   4.604   0.915   2.853  0.3698 -0.2905 -0.1453
    3CHTO   H45 1198   4.538   0.833   2.828 -0.7723  0.7463 -0.5777
    3CHTO   H46 1199   4.675   0.889   2.930  1.3384  1.0782 -0.5638
    3CHTO   C33 1200   4.603   0.996   2.596  0.5354  0.2524  0.1059
    3CHTO   H61 1201   4.584   0.897   2.553 -1.2268  1.4145 -1.9332
    3CHTO   O18 1202   4.694   1.069   2.507  0.9382  0.7808  0.1485
    3CHTO   C28 1203   4.822   1.011   2.476 -0.3500 -0.1075 -0.3414
    3CHTO   H56 1204   4.810   0.917   2.421 -0.5387 -0.1588 -0.2117
    3CHTO   C35 1205   4.897   1.106   2.387 -0.1614  0.1512  0.1282
    3CHTO   O24 1206   4.903   1.238   2.439  0.0481 -0.0625  0.1655
    3CHTO   H39 1207   4.885   1.295   2.367 -2.5707  0.9553  1.5394
    3CHTO    O9 1208   4.474   1.053   2.603 -0.0755 -0.6285 -0.0465
    3CHTO   C13 1209   4.489   1.221   2.622  0.3675  0.4935  0.4822
    3CHTO   H26 1210   4.593   1.249   2.648  0.7148 -1.4848  1.3232
    3CHTO   C11 1211   4.386   1.268   2.737  0.4287 -0.0064  0.6455
    3CHTO   H24 1212   4.411   1.218   2.832 -1.0661  2.9766  2.6781
    3CHTO    O8 1213   4.255   1.217   2.694  0.0192 -0.2364 -0.8577
    3CHTO    H3 1214   4.241   1.129   2.722  0.7665  0.2127  0.9982
    3CHTO    C9 1215   4.397   1.423   2.751  0.1931 -0.4591  0.7788
    3CHTO   H22 1216   4.496   1.442   2.795  1.1855 -0.6345 -1.2884
    3CHTO    N2 1217   4.300   1.477   2.849  0.0144 -0.2112  0.4309
    3CHTO   H10 1218   4.349   1.521   2.935 -1.0381 -0.5175  1.2158
    3CHTO   H11 1219   4.220   1.409   2.876 -0.3768  0.0418 -0.0868
    3CHTO    C7 1220   4.394   1.491   2.607 -0.2450  0.1213  0.7865
    3CHTO   H20 1221   4.496   1.529   2.587 -0.5714  0.3573 -0.4725
    3CHTO    O4 1222   4.355   1.405   2.506 -0.1994 -0.4704  0.4565
    3CHTO   C14 1223   4.452   1.305   2.490 -0.4758 -0.0733 -0.0017
    3CHTO   H27 1224   4.540   1.358   2.448  0.0766  0.4730  1.8080
    3CHTO   C18 1225   4.392   1.216   2.377  0.0032  0.0350 -0.2364
    3CHTO   O13 1226   4.268   1.149   2.390  0.1267  0.5570  0.0012
    3CHTO    H7 1227   4.266   1.084   2.323  0.6322 -0.7814  1.2499
    3CHTO    O2 1228   4.278   1.638   2.603  0.7990  0.2872 -0.7549
    3CHTO    C1 1229   4.352   1.754   2.570  0.0418 -0.0208 -0.8625
    3CHTO   H14 1230   4.447   1.719   2.524  1.1671  1.3754  0.3339
    3CHTO    C2 1231   4.390   1.866   2.677  0.0720  0.4182  0.1604
    3CHTO   H15 1232   4.299   1.894   2.733 -0.1813 -0.5632  0.2450
    3CHTO    O6 1233   4.487   1.801   2.764  0.1412 -0.0693  0.0470
    3CHTO    H1 1234   4.450   1.738   2.822 -1.3576  0.3380 -0.4412
    3CHTO    C3 1235   4.446   1.992   2.598 -0.1086 -0.0492 -0.6414
    3CHTO   H16 1236   4.548   1.966   2.565  0.4558  0.1940  0.8745
    3CHTO    N1 1237   4.465   2.103   2.699  0.0656 -0.5322  0.3134
    3CHTO    H8 1238   4.550   2.082   2.762  1.1997  0.0272 -1.0013
    3CHTO    H9 1239   4.479   2.202   2.658  0.9513 -0.5540  0.5472
    3CHTO    C4 1240   4.369   2.039   2.464 -0.0555 -0.1922 -0.3006
    3CHTO   H17 1241   4.283   2.095   2.502 -0.0568 -0.2143 -0.2723
    3CHTO    O1 1242   4.340   1.923   2.379 -0.1930  0.0906 -0.5946
    3CHTO    C5 1243   4.281   1.807   2.434 -0.1555 -0.1494  0.1042
    3CHTO   H18 1244   4.176   1.820   2.457  0.0711 -0.1933  1.1733
    3CHTO   C16 1245   4.296   1.709   2.310  0.5888 -0.6919 -0.7099
    3CHTO   O11 1246   4.218   1.744   2.199 -0.2710 -0.1806  1.1107
    3CHTO    H5 1247   4.267   1.767   2.122 -0.9942 -1.1988  0.3332
    3CHTO    O3 1248   4.456   2.125   2.388  0.2034 -0.2926  0.0449
    3CHTO    C6 1249   4.379   2.236   2.324 -0.4890  0.2416  0.4602
    3CHTO   H19 1250   4.272   2.230   2.345 -0.2871 -1.2038  1.1479
    3CHTO    C8 1251   4.437   2.375   2.365  0.7189  0.0587  0.1634
    3CHTO   H21 1252   4.545   2.371   2.357  0.5991 -2.3193 -0.7215
    3CHTO    O7 1253   4.402   2.391   2.508  0.9552 -0.3441  0.7046
    3CHTO    H2 1254   4.459   2.449   2.554 -1.3025  1.7473  0.9855
    3CHTO   C12 1255   4.374   2.489   2.281 -0.2117 -0.4283  0.0407
    3CHTO   H25 1256   4.266   2.496   2.308  0.1713  1.2372  1.2046
    3CHTO    N3 1257   4.429   2.624   2.323 -0.0042  0.0239  0.2611
    3CHTO   H12 1258   4.356   2.703   2.322 -0.9440 -0.8311 -1.7345
    3CHTO   H13 1259   4.497   2.626   2.407 -0.4862 -0.7382  0.6755
    3CHTO   C15 1260   4.383   2.459   2.137  0.8688 -0.0899 -0.2016
    3CHTO   H28 1261   4.483   2.457   2.092  0.0683  1.1550 -2.1183
    3CHTO   O10 1262   4.268   2.570   2.043 -0.2542 -0.1342 -0.4638
    3CHTO    H4 1263   4.181   2.549   2.072  0.0323 -1.7755 -0.6938
    3CHTO    O5 1264   4.320   2.334   2.107  0.1755 -0.0339 -0.3064
    3CHTO   C10 1265   4.399   2.228   2.164  0.9192 -0.2567 -0.0460
    3CHTO   H23 1266   4.503   2.251   2.144  0.2322  0.0368 -3.4876
    3CHTO   C17 1267   4.370   2.092   2.100  0.0604  0.5127  0.0832
    3CHTO   O12 1268   4.232   2.056   2.102  0.6083 -0.2796 -0.2035
    3CHTO    H6 1269   4.189   2.097   2.029  0.7209 -0.1680 -0.2065
    4CHTO  H203 1270   5.521   8.186   1.336 -1.5785  0.9031  0.8970
    4CHTO   O82 1271   5.572   8.213   1.409  0.1912  0.0372 -0.0012
    4CHTO  C123 1272   5.710   8.182   1.387 -0.2639  0.0776 -0.1691
    4CHTO  H227 1273   5.716   8.086   1.335  2.9164 -0.1758  0.5754
    4CHTO   O77 1274   5.764   8.299   1.313 -0.2022  0.6959  0.1774
    4CHTO  C118 1275   5.904   8.292   1.279  0.2088 -0.2228  0.0466
    4CHTO  H222 1276   5.922   8.195   1.231  1.8614  1.2295 -2.3758
    4CHTO  C125 1277   5.932   8.409   1.178 -0.6591  0.1626  0.9217
    4CHTO   O84 1278   5.890   8.531   1.241  0.2864  0.2012 -0.0535
    4CHTO  H205 1279   5.856   8.595   1.181  0.1558  0.8817  0.7470
    4CHTO  C114 1280   5.978   8.292   1.408 -0.5175  0.1770 -0.4862
    4CHTO  H218 1281   5.961   8.388   1.457  1.7767  1.1628 -1.5941
    4CHTO  C116 1282   5.933   8.173   1.504  0.1586  0.2105  0.7711
    4CHTO  H220 1283   5.954   8.086   1.438 -2.4058 -0.5003  0.8692
    4CHTO   O79 1284   6.013   8.156   1.622  0.1366 -0.5155  0.2218
    4CHTO  H201 1285   5.960   8.180   1.697 -1.9022  0.4949 -1.4752
    4CHTO  C120 1286   5.781   8.175   1.526  0.0504  0.2690  0.6080
    4CHTO  H224 1287   5.762   8.263   1.591 -0.5075 -0.1549  1.0287
    4CHTO   N21 1288   5.734   8.054   1.599 -0.5465 -0.2805  0.0237
    4CHTO  H211 1289   5.703   7.967   1.543  1.2636 -1.5055  0.8817
    4CHTO  H212 1290   5.657   8.077   1.672  0.2633 -2.0083  1.4774
    4CHTO   O75 1291   6.112   8.279   1.372 -0.5320 -0.2654 -0.2274
    4CHTO  C112 1292   6.210   8.351   1.440 -0.3960 -0.1539 -0.3571
    4CHTO  H216 1293   6.190   8.335   1.547 -1.1095 -1.9955 -0.7470
    4CHTO   O73 1294   6.192   8.491   1.408 -0.1505 -0.4228  0.2713
    4CHTO  C113 1295   6.289   8.582   1.449  0.5283  0.0109  0.0162
    4CHTO  H217 1296   6.280   8.596   1.558  0.8723  2.7453 -0.2713
    4CHTO  C124 1297   6.241   8.707   1.379 -0.2764  0.0016 -0.2188
    4CHTO   O83 1298   6.096   8.743   1.385 -0.1114 -0.1590 -0.4838
    4CHTO  H204 1299   6.071   8.824   1.346 -0.4998  0.7689  1.5857
    4CHTO  C109 1300   6.429   8.534   1.406  0.0937  0.2969  0.5349
    4CHTO  H213 1301   6.437   8.545   1.297 -1.1050 -3.1345  0.0511
    4CHTO  C110 1302   6.461   8.387   1.442 -0.4726 -0.5525 -0.6043
    4CHTO  H214 1303   6.470   8.383   1.551 -1.1247  1.8275 -0.4366
    4CHTO   O78 1304   6.586   8.353   1.380 -0.1343  0.4361 -0.0845
    4CHTO  H200 1305   6.584   8.259   1.371 -0.1720  0.4376 -0.0849
    4CHTO  C111 1306   6.349   8.292   1.395 -0.6293 -0.0286 -0.4547
    4CHTO  H215 1307   6.343   8.291   1.285  0.5247 -0.2887 -0.5277
    4CHTO   N19 1308   6.373   8.148   1.437 -0.1304  0.5861  0.0105
    4CHTO  H207 1309   6.277   8.101   1.453 -2.6258  5.1932 -0.3707
    4CHTO  H208 1310   6.424   8.155   1.532 -0.9843  1.5377  0.4229
    4CHTO   O74 1311   6.534   8.623   1.468 -0.0962 -0.5612 -0.6177
    4CHTO  C115 1312   6.614   8.705   1.347  0.5189 -0.2487  0.1323
    4CHTO  H219 1313   6.604   8.655   1.250  2.0730 -1.7303  0.7155
    4CHTO   O76 1314   6.564   8.839   1.333  0.0580 -0.1360  0.0963
    4CHTO  C122 1315   6.614   8.928   1.431  0.1443  0.4608 -0.3143
    4CHTO  H226 1316   6.586   8.888   1.529 -0.8815  2.9441  0.4752
    4CHTO  C126 1317   6.543   9.061   1.427 -0.3126  0.5734 -0.6383
    4CHTO   O85 1318   6.401   9.046   1.407 -0.4006 -0.1211 -0.9527
    4CHTO  H206 1319   6.359   8.991   1.470 -0.7654  0.1902 -0.9249
    4CHTO  C121 1320   6.769   8.951   1.435 -0.0615 -0.2070  0.2440
    4CHTO  H225 1321   6.801   9.049   1.393  1.4197 -0.6393  0.3179
    4CHTO   O81 1322   6.825   8.950   1.566 -0.1998 -0.0995 -0.3387
    4CHTO  H202 1323   6.910   8.989   1.562 -0.3105  0.2032  0.1718
    4CHTO  C119 1324   6.835   8.843   1.353  0.3972 -0.2286 -0.4671
    4CHTO  H223 1325   6.810   8.881   1.254 -0.5527  1.2060  0.2992
    4CHTO  C117 1326   6.766   8.700   1.385 -0.0160 -0.2374  0.3355
    4CHTO  H221 1327   6.772   8.679   1.492  1.1142  0.0163  0.3321
    4CHTO   N20 1328   6.846   8.587   1.319 -0.2402 -0.0448  0.1726
    4CHTO  H209 1329   6.782   8.513   1.274 -0.1018  1.5082 -2.6957
    4CHTO  H210 1330   6.907   8.618   1.235 -0.4201 -0.0598  0.0372
    4CHTO   O80 1331   7.009   8.846   1.347 -0.0705 -0.0145  0.4119
    4CHTO  C103 1332   7.085   8.970   1.309 -0.1244  0.3282 -1.3049
    4CHTO  H190 1333   7.018   9.053   1.285 -1.3889 -0.3369 -0.1017
    4CHTO  C101 1334   7.188   9.023   1.419 -0.1978 -0.3904 -0.1607
    4CHTO  H188 1335   7.250   8.942   1.458  1.8581  0.5598 -1.3316
    4CHTO   O68 1336   7.110   9.101   1.543  0.2597 -0.0389  0.3263
    4CHTO  H168 1337   7.029   9.060   1.566 -1.7119  2.2595 -2.0906
    4CHTO   C99 1338   7.293   9.130   1.354 -0.6132 -0.1747  0.0418
    4CHTO  H186 1339   7.240   9.222   1.322  0.2230 -0.0131 -0.9106
    4CHTO   N17 1340   7.388   9.183   1.453 -0.3006  0.1070 -0.3300
    4CHTO  H174 1341   7.458   9.112   1.493  0.6943  1.3177  0.1183
    4CHTO  H175 1342   7.341   9.236   1.534  2.6724  0.1891  1.4315
    4CHTO   C97 1343   7.353   9.071   1.222  0.2916 -1.2294  0.3736
    4CHTO  H184 1344   7.419   8.983   1.233  2.3557  0.4094  1.2679
    4CHTO   O64 1345   7.243   9.043   1.134 -0.2140 -0.2007  0.8333
    4CHTO  C104 1346   7.165   8.934   1.172 -0.1763 -1.0623  0.0830
    4CHTO  H191 1347   7.232   8.850   1.191  1.0268 -0.2732 -0.6125
    4CHTO  C108 1348   7.070   8.902   1.058  0.2748  0.2862 -0.5100
    4CHTO   O71 1349   7.031   8.760   1.066 -0.6115 -0.3363  0.6252
    4CHTO  H171 1350   6.957   8.755   1.124 -0.9027  0.5440  0.3345
    4CHTO   O62 1351   7.422   9.170   1.147  0.0347 -0.3754  0.0854
    4CHTO   C91 1352   7.542   9.140   1.072 -0.6685  0.4606 -0.1520
    4CHTO  H178 1353   7.572   9.036   1.089 -1.6298  0.1530 -0.3076
    4CHTO   C92 1354   7.667   9.227   1.094 -0.3502  0.2795  0.0857
    4CHTO  H179 1355   7.701   9.225   1.198  1.9927 -2.1458 -0.6626
    4CHTO   O66 1356   7.777   9.167   1.020 -0.0139  0.0560 -0.6188
    4CHTO  H166 1357   7.848   9.228   1.028  1.3594 -1.4537 -0.9108
    4CHTO   C93 1358   7.657   9.378   1.045  0.1059  1.0060  0.1618
    4CHTO  H180 1359   7.758   9.419   1.029 -0.5514  2.8138  0.5786
    4CHTO   N16 1360   7.599   9.464   1.153 -0.0656 -0.4886  0.3700
    4CHTO  H172 1361   7.517   9.413   1.203 -0.6692  0.8108  0.7244
    4CHTO  H173 1362   7.577   9.561   1.112 -1.6980 -1.1365 -0.3439
    4CHTO   C94 1363   7.577   9.383   0.908 -0.4099  1.3140 -0.4408
    4CHTO  H181 1364   7.478   9.425   0.922 -0.8971 -0.6194  2.2979
    4CHTO   O61 1365   7.559   9.257   0.836 -0.1112  0.0638  0.0587
    4CHTO   C95 1366   7.504   9.146   0.912  0.3063 -0.1450  0.8914
    4CHTO  H182 1367   7.396   9.153   0.902  0.3379 -3.0249 -2.4279
    4CHTO  C106 1368   7.539   9.013   0.836 -0.4218 -0.1475  0.6615
    4CHTO   O69 1369   7.482   8.896   0.887  0.0474  0.5868  0.3886
    4CHTO  H169 1370   7.406   8.886   0.833  0.4860 -1.2656  0.0842
    4CHTO   O63 1371   7.667   9.486   0.806  0.3883 -0.2869 -0.3005
    4CHTO   C96 1372   7.558   9.530   0.677 -0.3190 -0.2833 -0.1453
    4CHTO  H183 1373   7.453   9.516   0.703 -0.2867 -0.2980 -0.0203
    4CHTO   C98 1374   7.595   9.454   0.537  0.6599  0.0219 -0.2424
    4CHTO  H185 1375   7.693   9.483   0.498  0.3393  1.1436 -0.2244
    4CHTO   O67 1376   7.589   9.318   0.561  0.1555 -0.1135 -0.1728
    4CHTO  H167 1377   7.617   9.269   0.486 -0.4937 -0.8898  0.0832
    4CHTO  C102 1378   7.487   9.495   0.424  0.1625 -0.1897  0.4599
    4CHTO  H189 1379   7.389   9.459   0.459  0.4004 -0.0043  1.3296
    4CHTO   N18 1380   7.513   9.428   0.291 -0.4224 -0.0929  0.1877
    4CHTO  H176 1381   7.510   9.492   0.204  1.4322 -0.2818 -0.0306
    4CHTO  H177 1382   7.445   9.348   0.265  0.3557 -1.1497  1.3942
    4CHTO  C105 1383   7.486   9.651   0.415  0.5109  0.1292  0.8100
    4CHTO  H192 1384   7.557   9.682   0.338  1.0310 -2.7868  0.0232
    4CHTO   O65 1385   7.492   9.726   0.537  0.7351  0.2293  0.8536
    4CHTO  C100 1386   7.581   9.682   0.642 -0.1117 -0.5127 -0.1248
    4CHTO  H187 1387   7.685   9.702   0.614  0.7427 -1.5010  2.1958
    4CHTO  C107 1388   7.545   9.773   0.761 -0.1970  0.0355 -0.4780
    4CHTO   O70 1389   7.405   9.762   0.790 -0.4601 -0.0619 -0.6990
    4CHTO  H170 1390   7.384   9.784   0.879  1.8382  1.2189 -0.4555
    4CHTO   O57 1391   7.322   9.675   0.360  0.3525  0.1421 -0.1812
    4CHTO   C85 1392   7.220   9.733   0.444 -0.2085 -0.4275 -0.0676
    4CHTO  H157 1393   7.275   9.817   0.490  1.1237 -0.1177 -2.1615
    4CHTO   C83 1394   7.171   9.644   0.563 -0.3393 -0.2269 -1.5908
    4CHTO  H155 1395   7.262   9.622   0.619 -1.0802 -0.3871 -0.4257
    4CHTO   O56 1396   7.114   9.520   0.519  0.1540 -0.0489 -0.3501
    4CHTO  H135 1397   7.058   9.480   0.583 -2.4720 -0.6367 -2.8759
    4CHTO   C81 1398   7.077   9.740   0.654  0.1000  1.1754  0.0589
    4CHTO  H153 1399   7.132   9.832   0.675  1.5552  0.5757 -1.0322
    4CHTO   N14 1400   7.056   9.690   0.790 -0.3066 -0.6437 -0.3001
    4CHTO  H141 1401   6.960   9.717   0.829 -0.1343 -2.6588  1.5676
    4CHTO  H142 1402   7.056   9.583   0.789 -1.1008 -0.6617  0.8023
    4CHTO   C79 1403   6.954   9.766   0.567  0.2032  0.3071  0.8456
    4CHTO  H151 1404   6.890   9.832   0.625 -0.0298 -0.0532  1.0029
    4CHTO   O52 1405   6.996   9.841   0.453  0.1553 -0.0439  0.3074
    4CHTO   C86 1406   7.094   9.786   0.362  0.1983 -0.5534 -0.7892
    4CHTO  H158 1407   7.040   9.699   0.318 -2.0236 -1.0703  2.7077
    4CHTO   C90 1408   7.125   9.889   0.249 -0.1220 -0.1844 -0.7205
    4CHTO   O60 1409   7.165  10.018   0.304  0.3843  0.5959 -0.2656
    4CHTO  H138 1410   7.180  10.078   0.233  0.6443 -1.4455 -1.9975
    4CHTO   O50 1411   6.883   9.645   0.541  0.0910 -0.0849  0.4441
    4CHTO   C73 1412   6.766   9.559   0.526 -0.5914 -0.0226  0.7519
    4CHTO  H145 1413   6.687   9.620   0.479 -0.1693 -1.3465 -1.7805
    4CHTO   C74 1414   6.701   9.502   0.663  0.5194  0.1999  0.9870
    4CHTO  H146 1415   6.681   9.590   0.726 -0.2754  0.9335 -0.2683
    4CHTO   O54 1416   6.571   9.441   0.643 -0.3365  0.4651  0.2773
    4CHTO  H133 1417   6.561   9.412   0.554  0.4927 -0.8533  0.5958
    4CHTO   C75 1418   6.809   9.409   0.724 -0.0873  0.2867 -0.0959
    4CHTO  H147 1419   6.904   9.464   0.724  1.0688 -1.6922 -0.1181
    4CHTO   N13 1420   6.771   9.351   0.853 -0.3118 -0.4041 -0.4497
    4CHTO  H139 1421   6.756   9.422   0.933 -1.9212 -0.2028 -0.9076
    4CHTO  H140 1422   6.856   9.288   0.873 -0.2204  0.1923  1.0876
    4CHTO   C76 1423   6.845   9.299   0.616  0.2274  0.0822 -0.5788
    4CHTO  H148 1424   6.758   9.235   0.604 -0.3036 -0.0240  3.3919
    4CHTO   O49 1425   6.899   9.357   0.490 -0.4281 -0.5724 -0.3207
    4CHTO   C77 1426   6.798   9.440   0.425  0.0703 -0.6822 -0.4053
    4CHTO  H149 1427   6.704   9.389   0.403  0.3451 -0.7680 -1.4015
    4CHTO   C88 1428   6.848   9.494   0.288 -0.4174  0.4273  0.0293
    4CHTO   O58 1429   6.895   9.377   0.197  0.3565 -0.4825  0.3185
    4CHTO  H136 1430   6.924   9.305   0.250  1.2290  0.7892  1.6085
    4CHTO   O51 1431   6.982   9.216   0.680  0.0882 -0.5358 -0.8098
    4CHTO   C78 1432   7.029   9.097   0.613  0.0529 -0.5392  0.7966
    4CHTO  H150 1433   7.037   9.114   0.503  0.2612  0.6497  0.9857
    4CHTO   C80 1434   6.940   8.974   0.644 -0.1280  0.2561 -0.5866
    4CHTO  H152 1435   6.932   8.959   0.753  1.1916  0.3506 -0.4746
    4CHTO   O55 1436   6.812   8.999   0.585  0.4125 -0.5172  0.6255
    4CHTO  H134 1437   6.761   8.940   0.638  0.9791 -1.6971 -0.1189
    4CHTO   C84 1438   7.008   8.849   0.593  0.0063  0.1911  0.2511
    4CHTO  H156 1439   7.030   8.863   0.487 -0.6201 -0.9528 -0.0442
    4CHTO   N15 1440   6.926   8.725   0.618  0.2133  0.4121  0.0299
    4CHTO  H143 1441   6.970   8.653   0.684  0.0865  0.2995 -0.0067
    4CHTO  H144 1442   6.907   8.685   0.521 -0.1380  4.5134 -1.6971
    4CHTO   C87 1443   7.152   8.844   0.653 -0.0207  1.3216  0.7817
    4CHTO  H159 1444   7.149   8.838   0.762 -2.4382  0.7522  0.6969
    4CHTO   O53 1445   7.223   8.946   0.607  0.1411  0.4653  0.4892
    4CHTO   C82 1446   7.174   9.075   0.665 -0.3251 -0.0042  0.3909
    4CHTO  H154 1447   7.174   9.068   0.774 -1.0076 -0.8551  0.3438
    4CHTO   C89 1448   7.261   9.193   0.625  0.3249 -0.4067 -0.9036
    4CHTO   O59 1449   7.260   9.261   0.497  0.4304  0.3445 -0.0378
    4CHTO  H137 1450   7.204   9.209   0.442 -2.3872  1.6871  1.4955
    4CHTO   O45 1451   7.223   8.697   0.603 -0.9278  0.3265 -0.2062
    4CHTO   C67 1452   7.346   8.660   0.660  0.8133 -0.1592 -0.1006
    4CHTO  H124 1453   7.391   8.747   0.708 -0.7711  0.0107  1.1117
    4CHTO   C65 1454   7.325   8.543   0.756  0.4664  0.7349 -0.4904
    4CHTO  H122 1455   7.246   8.572   0.825  2.5590  0.1360  2.2392
    4CHTO   O44 1456   7.450   8.523   0.835 -0.2363 -0.9998 -0.3191
    4CHTO  H102 1457   7.443   8.459   0.903  1.9785 -0.6441  0.3010
    4CHTO   C63 1458   7.276   8.412   0.689 -0.6970  0.2495 -0.7532
    4CHTO  H120 1459   7.186   8.434   0.632 -0.2985  1.8035 -0.8170
    4CHTO   N11 1460   7.229   8.300   0.788 -0.2593 -0.1215 -0.1135
    4CHTO  H108 1461   7.237   8.318   0.893  0.2470 -0.6246 -0.0626
    4CHTO  H109 1462   7.268   8.202   0.771 -1.1248 -0.3298 -0.9434
    4CHTO   C61 1463   7.389   8.370   0.589  0.8160 -0.2762 -0.3335
    4CHTO  H118 1464   7.333   8.307   0.519  0.8025  1.5886 -2.0542
    4CHTO   O40 1465   7.443   8.475   0.509 -0.6093 -0.1104 -0.4060
    4CHTO   C68 1466   7.443   8.620   0.548 -0.0139 -0.5737 -0.4213
    4CHTO  H125 1467   7.417   8.667   0.451 -0.4618 -0.7474 -0.3877
    4CHTO   C72 1468   7.587   8.650   0.570 -0.4168 -0.2418 -0.5575
    4CHTO   O48 1469   7.608   8.795   0.558  0.3875  0.8720 -0.3200
    4CHTO  H105 1470   7.625   8.831   0.643 -0.1126  2.2328 -0.7869
    4CHTO   O38 1471   7.499   8.300   0.635  0.4000 -0.0787 -0.3719
    4CHTO   C55 1472   7.539   8.183   0.563 -0.2851 -0.1961 -0.0236
    4CHTO  H112 1473   7.521   8.197   0.456  1.5240 -2.5317 -0.6806
    4CHTO   C56 1474   7.469   8.058   0.613 -0.2117 -0.4835 -0.4627
    4CHTO  H113 1475   7.485   8.044   0.722 -0.3345 -2.7582 -0.6975
    4CHTO   O42 1476   7.326   8.061   0.616  0.0990 -0.4494  0.2286
    4CHTO  H100 1477   7.299   8.130   0.673 -2.3645 -0.8908 -0.3097
    4CHTO   C57 1478   7.519   7.927   0.532 -0.5338 -0.1541  0.0548
    4CHTO  H114 1479   7.488   7.949   0.430 -1.1917 -0.4888  0.1790
    4CHTO   N10 1480   7.461   7.795   0.587  0.6989 -0.2299  0.1520
    4CHTO  H106 1481   7.487   7.721   0.512  1.5416 -0.8111  1.0066
    4CHTO  H107 1482   7.488   7.764   0.687  2.1919 -0.0449 -0.1812
    4CHTO   C58 1483   7.676   7.916   0.536 -0.1494  0.0786 -0.3004
    4CHTO  H115 1484   7.709   7.895   0.640 -1.8227  0.5147  0.3404
    4CHTO   O37 1485   7.737   8.041   0.504 -0.3595  0.0893  0.4865
    4CHTO   C59 1486   7.688   8.160   0.579 -0.2330 -0.1955  0.2118
    4CHTO  H116 1487   7.706   8.145   0.686 -0.5823 -1.1510  0.1435
    4CHTO   C70 1488   7.766   8.282   0.531  0.1312 -0.2800 -0.1246
    4CHTO   O46 1489   7.899   8.260   0.488 -0.2762 -0.7730  0.0650
    4CHTO  H103 1490   7.923   8.333   0.434 -2.9895 -0.3390 -0.6120
    4CHTO   O39 1491   7.728   7.806   0.427 -0.0716 -0.4578  0.3320
    4CHTO   C60 1492   7.704   7.814   0.290 -0.0095 -0.5412  0.7343
    4CHTO  H117 1493   7.602   7.842   0.265  0.4181 -1.2028 -1.9200
    4CHTO   C62 1494   7.799   7.923   0.223 -0.0121  0.2376  0.1304
    4CHTO  H119 1495   7.756   8.022   0.252 -3.6378 -1.3032  0.2898
    4CHTO   O43 1496   7.928   7.891   0.279  0.5405 -0.7721 -0.0555
    4CHTO  H101 1497   7.963   7.808   0.253  0.3010  0.0997 -3.3878
    4CHTO   C66 1498   7.795   7.915   0.061 -0.1391  0.1353 -0.3880
    4CHTO  H123 1499   7.692   7.917   0.024  0.5243 -1.4411 -2.4542
    4CHTO   N12 1500   7.873   8.015  -0.007 -0.4792 -0.3000  0.5465
    4CHTO  H110 1501   7.979   7.999   0.009 -0.2560  2.0570  1.5976
    4CHTO  H111 1502   7.842   8.107   0.041  0.2403 -0.0521  0.5534
    4CHTO   C69 1503   7.834   7.766   0.025  0.3425  0.9584 -0.0040
    4CHTO  H126 1504   7.928   7.728   0.072  0.4857 -0.2792 -1.2601
    4CHTO   O41 1505   7.720   7.678   0.071 -0.6170 -0.2434 -0.1082
    4CHTO   C64 1506   7.729   7.679   0.225 -0.7559 -0.5806  0.3734
    4CHTO  H121 1507   7.827   7.648   0.265  0.2829 -0.4822 -1.9634
    4CHTO   C71 1508   7.637   7.577   0.280 -0.1595  0.0891 -0.2556
    4CHTO   O47 1509   7.683   7.455   0.229 -0.1271 -0.1637  0.1904
    4CHTO  H104 1510   7.625   7.383   0.247  2.1644 -1.5862  2.1581
    4CHTO   O34 1511   7.846   7.731  -0.136  0.6115  0.0846  0.0432
    4CHTO   C49 1512   7.901   7.619  -0.226 -0.1141 -0.2176  0.1745
    4CHTO   H91 1513   8.000   7.657  -0.255  0.3612 -1.4331  0.1637
    4CHTO   C47 1514   7.816   7.599  -0.351  0.0601 -0.1436 -0.3590
    4CHTO   H89 1515   7.880   7.534  -0.414  1.9877  0.8743  0.4929
    4CHTO   O33 1516   7.814   7.730  -0.406 -0.4122 -0.4570  0.1628
    4CHTO   H70 1517   7.890   7.741  -0.460 -0.3808  1.7559  0.6347
    4CHTO   C45 1518   7.672   7.540  -0.313 -0.6183  0.2124 -0.2623
    4CHTO   H87 1519   7.631   7.608  -0.237 -1.2550  0.5688 -0.9296
    4CHTO    N8 1520   7.577   7.545  -0.426  0.3969  0.1814  0.4641
    4CHTO   H75 1521   7.629   7.501  -0.510 -1.8826  2.8313 -2.4516
    4CHTO   H76 1522   7.560   7.649  -0.450  0.9373  0.2955  0.5474
    4CHTO   C43 1523   7.693   7.398  -0.236  0.2828  0.2058  0.3671
    4CHTO   H85 1524   7.593   7.372  -0.201 -0.5601 -0.0922 -2.1634
    4CHTO   O29 1525   7.782   7.408  -0.125 -0.1262 -0.1284  0.4759
    4CHTO   C50 1526   7.903   7.486  -0.146 -0.2921  0.5792 -0.3725
    4CHTO   H92 1527   7.933   7.516  -0.044  1.3076 -1.3768 -0.2289
    4CHTO   C54 1528   8.016   7.392  -0.193  0.6151 -0.0170  0.2714
    4CHTO   O36 1529   8.072   7.309  -0.094 -0.1701 -0.0304 -0.1780
    4CHTO   H72 1530   8.162   7.327  -0.078 -0.0591 -1.2816  0.6691
    4CHTO   O27 1531   7.730   7.288  -0.321 -0.0073  0.3079 -0.4104
    4CHTO   C37 1532   7.693   7.152  -0.316  0.0689  0.0242  0.3004
    4CHTO   H79 1533   7.758   7.099  -0.387  0.9731  0.3132  0.8889
    4CHTO   C38 1534   7.715   7.089  -0.176  0.8329  0.2696  0.0601
    4CHTO   H80 1535   7.664   7.152  -0.102  0.6185  0.1763 -0.0085
    4CHTO   O31 1536   7.857   7.082  -0.152  0.4412 -0.2544  0.5626
    4CHTO   H68 1537   7.889   7.104  -0.066 -0.1634 -1.5680  1.1439
    4CHTO   C39 1538   7.659   6.946  -0.167 -0.0594  0.1668 -0.5562
    4CHTO   H81 1539   7.725   6.883  -0.226 -0.2402 -0.3766 -0.1800
    4CHTO    N7 1540   7.665   6.893  -0.025  0.1302 -0.2255  0.1321
    4CHTO   H73 1541   7.619   6.964   0.042  0.0679 -1.4568  1.4077
    4CHTO   H74 1542   7.763   6.860   0.004  0.0172 -1.5014 -0.8363
    4CHTO   C40 1543   7.516   6.935  -0.233  0.0087  0.0185  0.2004
    4CHTO   H82 1544   7.435   6.968  -0.168  0.8372  2.7892 -0.1442
    4CHTO   O26 1545   7.506   6.997  -0.361 -0.1337  0.1543 -0.1537
    4CHTO   C41 1546   7.541   7.136  -0.363 -0.2105  0.2873  0.2188
    4CHTO   H83 1547   7.482   7.195  -0.292 -0.0859  0.1434  0.4385
    4CHTO   C52 1548   7.535   7.195  -0.501  0.1566 -0.7958  0.7195
    4CHTO   O35 1549   7.407   7.173  -0.568 -0.0706 -0.1136 -0.0580
    4CHTO   H71 1550   7.407   7.107  -0.635 -0.9849  0.4058 -0.5855
    4CHTO   O28 1551   7.491   6.794  -0.264  0.5932  0.1203 -1.0950
    4CHTO   C42 1552   7.366   6.722  -0.273 -0.2392 -0.4671 -0.1874
    4CHTO   H84 1553   7.395   6.621  -0.302  1.7224  0.6383 -2.2451
    4CHTO   C44 1554   7.255   6.775  -0.381 -0.2844 -0.3234  0.2596
    4CHTO   H86 1555   7.228   6.876  -0.350 -1.5022 -0.0405 -1.6223
    4CHTO   O32 1556   7.328   6.769  -0.509  0.4008 -0.1869 -0.0583
    4CHTO   H69 1557   7.373   6.687  -0.510 -0.3995 -0.6575  1.2319
    4CHTO   C48 1558   7.129   6.682  -0.372  0.2756  0.3073 -0.0359
    4CHTO   H90 1559   7.156   6.582  -0.404  0.2874  0.2721  0.0819
    4CHTO    N9 1560   7.025   6.726  -0.475 -0.2211 -0.0722  0.0030
    4CHTO   H77 1561   6.972   6.641  -0.516 -0.9825 -0.3266  1.4485
    4CHTO   H78 1562   6.951   6.787  -0.424 -0.2784 -0.4127  0.3341
    4CHTO   C51 1563   7.077   6.683  -0.228  0.1300 -0.0374 -0.8192
    4CHTO   H93 1564   7.050   6.784  -0.198 -1.7302  0.0610 -2.7343
    4CHTO   O30 1565   7.183   6.628  -0.148  0.3808 -0.4037 -0.7021
    4CHTO   C46 1566   7.297   6.711  -0.136 -0.0111 -0.0945  0.9414
    4CHTO   H88 1567   7.262   6.808  -0.101  2.2184  0.7565  0.9255
    4CHTO   C53 1568   7.384   6.643  -0.026  0.2976 -0.5856 -0.1503
    4CHTO   O72 1569   7.400   6.505  -0.061 -0.5045  0.6835  0.7534
    4CHTO  H199 1570   7.338   6.465  -0.002 -0.7334  0.6861  0.5165
    4CHTO   O22 1571   6.963   6.595  -0.213  0.1712 -0.0693  0.5506
    4CHTO   C31 1572   6.906   6.575  -0.080  0.2463  0.4702 -0.0660
    4CHTO   H59 1573   6.992   6.580  -0.010  1.0540  2.4245 -1.1380
    4CHTO   C29 1574   6.810   6.689  -0.043  0.1278  0.4334  0.0847
    4CHTO   H57 1575   6.728   6.689  -0.117 -0.2464  0.1943  0.4933
    4CHTO   O21 1576   6.886   6.811  -0.047  0.3048  0.1233  0.0889
    4CHTO   H37 1577   6.842   6.876  -0.098 -0.9587  0.9867  2.2528
    4CHTO   C27 1578   6.747   6.672   0.098  0.1985 -0.1256 -0.4706
    4CHTO   H55 1579   6.829   6.675   0.172  0.0423  0.8876 -0.3283
    4CHTO    N5 1580   6.644   6.773   0.138  0.2495 -0.6342  0.8096
    4CHTO   H43 1581   6.636   6.768   0.246 -2.0310  0.2176  0.6987
    4CHTO   H44 1582   6.674   6.874   0.116  0.2541 -1.0820 -1.3148
    4CHTO   C25 1583   6.697   6.524   0.119  1.2084 -0.0879 -0.0988
    4CHTO   H53 1584   6.612   6.508   0.051  1.8836  1.9185 -1.4582
    4CHTO   O17 1585   6.795   6.422   0.078  0.0582  0.4628 -0.3124
    4CHTO   C32 1586   6.836   6.436  -0.055 -0.7828 -0.1640  0.2877
    4CHTO   H60 1587   6.739   6.438  -0.104 -0.5944 -0.6752 -0.1159
    4CHTO   C36 1588   6.919   6.308  -0.092  0.0569 -0.4117 -0.5541
    4CHTO   O25 1589   7.021   6.285   0.009 -0.0451 -0.5423  0.4528
    4CHTO   H40 1590   6.989   6.315   0.092  0.3392 -1.0008  0.7664
    4CHTO   O15 1591   6.652   6.496   0.267 -1.1256 -0.2378  0.1294
    4CHTO   C19 1592   6.729   6.491   0.400  0.1833  0.2312 -0.3939
    4CHTO   H47 1593   6.692   6.395   0.440  0.2863  0.3700  0.0334
    4CHTO   C20 1594   6.881   6.473   0.397  0.2077  0.2344 -0.0525
    4CHTO   H48 1595   6.929   6.546   0.330 -0.2381 -0.6966 -1.4119
    4CHTO   O19 1596   6.897   6.343   0.343  0.6929  0.3115 -0.2050
    4CHTO   H35 1597   6.990   6.331   0.337  0.6056 -0.7203  0.4609
    4CHTO   C21 1598   6.945   6.486   0.544 -0.0346 -0.8356  0.3585
    4CHTO   H49 1599   6.929   6.395   0.602  0.0115 -0.3295  1.1684
    4CHTO    N4 1600   7.091   6.503   0.537 -0.6797 -0.3361  0.6372
    4CHTO   H41 1601   7.124   6.606   0.544 -1.1867 -0.0750 -0.6609
    4CHTO   H42 1602   7.140   6.455   0.453  0.3221  0.6457  0.6438
    4CHTO   C22 1603   6.865   6.591   0.624 -0.8507  0.3914 -0.6234
    4CHTO   H50 1604   6.892   6.690   0.588  0.0429 -1.2003 -4.5907
    4CHTO   O14 1605   6.722   6.575   0.619  0.0598  0.1086 -0.3411
    4CHTO   C23 1606   6.670   6.602   0.486 -0.6222 -0.8878  0.0580
    4CHTO   H51 1607   6.710   6.701   0.460 -0.6805 -0.8216  0.2171
    4CHTO   C34 1608   6.520   6.604   0.493 -0.0016  0.6811 -0.7135
    4CHTO   O23 1609   6.463   6.497   0.583  0.6271 -0.0194 -0.1038
    4CHTO   H38 1610   6.373   6.510   0.607 -0.2309 -2.2301 -1.9755
    4CHTO   O16 1611   6.896   6.580   0.762  0.5397 -0.1810  0.8150
    4CHTO   C24 1612   6.916   6.723   0.852 -0.0384  0.8397  0.0417
    4CHTO   H52 1613   6.862   6.809   0.811  2.5406  2.2138 -0.5454
    4CHTO   C26 1614   7.068   6.761   0.863 -1.4389  0.7117  0.1408
    4CHTO   H54 1615   7.123   6.676   0.909  0.9601  2.1961  0.1419
    4CHTO   O20 1616   7.129   6.789   0.740 -0.5197 -0.0122 -0.4308
    4CHTO   H36 1617   7.136   6.719   0.678  0.1671 -0.2617 -0.0873
    4CHTO   C30 1618   7.084   6.879   0.969 -0.4640 -0.4836  0.4594
    4CHTO   H58 1619   7.036   6.968   0.927 -0.6834 -0.5331  0.6076
    4CHTO    N6 1620   7.226   6.923   0.979 -0.2573  0.2683 -0.2260
    4CHTO   H45 1621   7.294   6.840   0.973 -1.4567 -0.9799  2.7092
    4CHTO   H46 1622   7.246   6.995   0.901  1.0889 -2.4551 -2.4649
    4CHTO   C33 1623   7.013   6.856   1.106 -0.3412  0.5893  0.3551
    4CHTO   H61 1624   7.056   6.770   1.160  0.5721  0.0445 -1.2009
    4CHTO   O18 1625   6.885   6.821   1.063 -0.2945 -0.0408 -0.0935
    4CHTO   C28 1626   6.866   6.700   0.996  0.0474  0.7456 -0.0015
    4CHTO   H56 1627   6.911   6.612   1.041 -2.1158  0.8400  2.4507
    4CHTO   C35 1628   6.712   6.678   0.981  0.2122 -0.0554 -0.5626
    4CHTO   O24 1629   6.666   6.555   0.941 -0.4633 -0.2734  0.2704
    4CHTO   H39 1630   6.728   6.488   0.961  0.8737  0.3403 -1.6282
    4CHTO    O9 1631   7.018   6.968   1.192 -0.4327 -0.2136 -0.5350
    4CHTO   C13 1632   6.991   6.945   1.346 -0.9280  0.1801 -0.1755
    4CHTO   H26 1633   7.018   6.841   1.374 -1.2685  0.1200 -0.0662
    4CHTO   C11 1634   6.834   6.973   1.370 -0.4404  0.1733  0.9006
    4CHTO   H24 1635   6.787   6.896   1.306 -2.5385  0.6094  1.8772
    4CHTO    O8 1636   6.808   7.097   1.311 -0.3227  0.0621 -0.3913
    4CHTO    H3 1637   6.718   7.123   1.322 -0.4145 -0.9981  1.4546
    4CHTO    C9 1638   6.804   6.955   1.520 -0.2565 -0.3868  0.6049
    4CHTO   H22 1639   6.852   6.859   1.544  0.5058 -0.2686 -0.4173
    4CHTO    N2 1640   6.665   6.944   1.563 -0.0179 -0.3738  0.3818
    4CHTO   H10 1641   6.652   6.879   1.648  1.3855 -2.9531 -1.2836
    4CHTO   H11 1642   6.588   6.950   1.487 -1.1732 -0.4599  1.5431
    4CHTO    C7 1643   6.872   7.075   1.587 -0.1605  0.1607 -0.5823
    4CHTO   H20 1644   6.847   7.072   1.695 -2.1963 -0.5411 -1.0603
    4CHTO    O4 1645   7.018   7.065   1.571  0.6957  0.1884 -0.4659
    4CHTO   C14 1646   7.071   7.044   1.438 -0.0573 -0.8470 -0.2238
    4CHTO   H27 1647   7.166   6.987   1.444  0.1647 -0.4406  0.1698
    4CHTO   C18 1648   7.107   7.182   1.378 -0.1947 -0.4535  0.6342
    4CHTO   O13 1649   7.225   7.159   1.298 -0.2091 -0.1742 -0.1613
    4CHTO    H7 1650   7.279   7.235   1.300 -0.7374  0.1934  0.2058
    4CHTO    O2 1651   6.818   7.247   1.547  0.6114 -0.6717  0.2550
    4CHTO    C1 1652   6.846   7.349   1.647  0.2689 -0.2724 -0.3158
    4CHTO   H14 1653   6.956   7.354   1.661  0.0806  0.6598  0.9402
    4CHTO    C2 1654   6.780   7.334   1.785  0.7587 -0.8313  0.3451
    4CHTO   H15 1655   6.672   7.312   1.783  0.2502  1.6390 -0.8736
    4CHTO    O6 1656   6.854   7.236   1.864 -0.4311  0.0968 -0.0968
    4CHTO    H1 1657   6.800   7.165   1.893 -2.0783  1.7202  0.9953
    4CHTO    C3 1658   6.795   7.472   1.866 -0.8468  0.5072  1.1956
    4CHTO   H16 1659   6.897   7.493   1.901 -0.2161 -0.9973  0.3163
    4CHTO    N1 1660   6.713   7.473   1.993  0.3900  0.7431  0.2004
    4CHTO    H8 1661   6.771   7.501   2.080 -0.9008  1.3724  0.8712
    4CHTO    H9 1662   6.615   7.518   1.987 -0.2063 -0.5789 -0.1961
    4CHTO    C4 1663   6.757   7.596   1.776 -0.0108  0.2179  0.0646
    4CHTO   H17 1664   6.650   7.592   1.754 -0.1047 -0.9559  0.6833
    4CHTO    O1 1665   6.841   7.597   1.660  0.2481 -0.1108  0.5465
    4CHTO    C5 1666   6.816   7.484   1.576 -0.2880 -0.0843  0.2597
    4CHTO   H18 1667   6.710   7.487   1.552  0.1313  0.0788 -1.6525
    4CHTO   C16 1668   6.901   7.510   1.452  0.3439  0.5065  0.4498
    4CHTO   O11 1669   6.855   7.432   1.337  0.1756 -0.4221  0.0564
    4CHTO    H5 1670   6.844   7.489   1.263 -2.2728 -0.1877  0.5637
    4CHTO    O3 1671   6.776   7.723   1.843  0.5904 -0.3626  0.1882
    4CHTO    C6 1672   6.717   7.838   1.782  0.2096  0.2135 -0.4106
    4CHTO   H19 1673   6.693   7.826   1.677 -1.4457  2.1170 -0.2844
    4CHTO    C8 1674   6.583   7.873   1.860  0.5161  0.2034  0.0551
    4CHTO   H21 1675   6.610   7.903   1.962 -3.0097  0.1050  1.0821
    4CHTO    O7 1676   6.508   7.750   1.851  0.3246 -0.2349  0.2271
    4CHTO    H2 1677   6.423   7.770   1.885  0.1471 -1.9213  0.8493
    4CHTO   C12 1678   6.523   7.996   1.785  0.2909 -0.3323 -0.2369
    4CHTO   H25 1679   6.513   7.965   1.679  2.0424 -0.7266 -0.3008
    4CHTO    N3 1680   6.382   8.023   1.830  0.1595  0.3529  0.1218
    4CHTO   H12 1681   6.380   8.070   1.928  0.9894  2.5423 -0.8922
    4CHTO   H13 1682   6.342   8.092   1.757  0.9675  1.8335  1.0315
    4CHTO   C15 1683   6.619   8.123   1.790  0.1689  0.5609  0.5138
    4CHTO   H28 1684   6.648   8.143   1.893  0.0966  0.3727  0.5716
    4CHTO   O10 1685   6.569   8.255   1.722 -0.1382  0.4835  0.3208
    4CHTO    H4 1686   6.523   8.311   1.781 -3.3572 -2.4011  0.6821
    4CHTO    O5 1687   6.742   8.076   1.728  0.3764 -0.1298  0.3883
    4CHTO   C10 1688   6.812   7.963   1.792  0.4860 -0.1751 -0.3334
    4CHTO   H23 1689   6.833   7.978   1.898  1.4062  1.0195 -0.6663
    4CHTO   C17 1690   6.942   7.937   1.719  0.0469 -0.0569 -0.1035
    4CHTO   O12 1691   6.921   7.909   1.580 -0.4295  0.7211 -0.4608
    4CHTO    H6 1692   6.933   7.819   1.558 -1.2892  0.4176  0.2596
    5CHTO  H203 1693   6.915   3.801   4.041 -1.4887 -1.9182  0.2904
    5CHTO   O82 1694   6.961   3.772   4.118  0.7014  0.6744  0.0469
    5CHTO  C123 1695   7.009   3.875   4.205 -0.2586 -0.4153  0.3083
    5CHTO  H227 1696   7.083   3.932   4.147  0.1663 -0.1954  1.0532
    5CHTO   O77 1697   6.894   3.963   4.243 -0.0149  0.5012  0.6257
    5CHTO  C118 1698   6.941   4.071   4.324 -0.3274 -0.1293  0.1174
    5CHTO  H222 1699   7.020   4.129   4.275  1.0853 -2.1420 -0.0120
    5CHTO  C125 1700   6.820   4.165   4.358 -0.5555 -0.0798  0.8994
    5CHTO   O84 1701   6.770   4.235   4.245  0.0792 -0.5308  0.7578
    5CHTO  H205 1702   6.690   4.190   4.226  1.2127 -1.1869 -2.8896
    5CHTO  C114 1703   7.003   4.020   4.461  0.2171  0.3601 -0.3429
    5CHTO  H218 1704   6.931   3.957   4.514  0.4418 -0.0176 -0.4854
    5CHTO  C116 1705   7.123   3.926   4.436  0.2276 -0.0735  0.1230
    5CHTO  H220 1706   7.206   3.995   4.408 -0.2625  0.1872 -0.6962
    5CHTO   O79 1707   7.173   3.869   4.561 -0.0174  0.2682 -0.1122
    5CHTO  H201 1708   7.112   3.809   4.598  0.4798 -0.8518 -1.0554
    5CHTO  C120 1709   7.087   3.813   4.331  0.2607  0.0332 -0.1826
    5CHTO  H224 1710   7.016   3.740   4.376 -0.6344  1.8164  1.4140
    5CHTO   N21 1711   7.205   3.740   4.291 -0.1663  0.0998  0.7634
    5CHTO  H211 1712   7.186   3.703   4.191 -1.7091  3.6928 -0.3440
    5CHTO  H212 1713   7.294   3.801   4.295 -1.6813  2.5878 -1.3555
    5CHTO   O75 1714   7.045   4.133   4.542  0.2582  0.2620  0.2358
    5CHTO  C112 1715   6.993   4.138   4.689 -0.2310  0.4747 -0.2197
    5CHTO  H216 1716   7.002   4.037   4.732  0.1547  1.3334  1.7828
    5CHTO   O73 1717   6.863   4.185   4.684  0.3631  0.2803  0.2730
    5CHTO  C113 1718   6.789   4.188   4.808 -0.1867  0.2565  0.2419
    5CHTO  H217 1719   6.816   4.096   4.864 -0.1856 -0.0808 -0.3032
    5CHTO  C124 1720   6.643   4.208   4.766 -0.2907  0.0178 -0.5750
    5CHTO   O83 1721   6.637   4.315   4.671  0.0835 -0.3772  0.2201
    5CHTO  H204 1722   6.707   4.305   4.610 -0.4108 -0.3970 -0.3522
    5CHTO  C109 1723   6.850   4.303   4.893 -0.2496  0.2681 -0.0996
    5CHTO  H213 1724   6.847   4.394   4.832  0.1844 -0.3018 -0.9805
    5CHTO  C110 1725   7.006   4.268   4.911  0.7215  0.7449  0.1864
    5CHTO  H214 1726   7.027   4.183   4.976  1.0130 -0.9986 -2.1459
    5CHTO   O78 1727   7.059   4.375   4.981 -0.6118  0.3777 -0.0653
    5CHTO  H200 1728   7.144   4.347   5.009 -0.8663  2.1730  2.7126
    5CHTO  C111 1729   7.079   4.243   4.769  0.1637 -0.0135  0.4521
    5CHTO  H215 1730   7.069   4.339   4.716 -1.1965  0.4910  1.6105
    5CHTO   N19 1731   7.227   4.209   4.770  0.0752  0.5241 -0.2982
    5CHTO  H207 1732   7.263   4.205   4.668  0.6960 -1.0901 -0.0158
    5CHTO  H208 1733   7.250   4.122   4.830  1.8085  0.3688 -1.1638
    5CHTO   O74 1734   6.781   4.318   5.015  0.6186  0.2502  0.1866
    5CHTO  C115 1735   6.744   4.474   5.057 -0.0122 -0.3168  0.1516
    5CHTO  H219 1736   6.831   4.539   5.054 -0.5125  0.2959 -1.9178
    5CHTO   O76 1737   6.641   4.539   4.956  0.1179 -0.2425  0.7768
    5CHTO  C122 1738   6.590   4.674   4.994  0.6766  0.0329 -0.2970
    5CHTO  H226 1739   6.513   4.687   4.917  0.4565 -0.8176 -0.2243
    5CHTO  C126 1740   6.689   4.788   4.969 -0.2675 -0.0423 -0.7154
    5CHTO   O85 1741   6.757   4.763   4.845  0.0497 -0.1411  0.0123
    5CHTO  H206 1742   6.842   4.804   4.852 -0.0922  0.0275  0.7211
    5CHTO  C121 1743   6.517   4.671   5.132  0.4275  0.0324  0.7475
    5CHTO  H225 1744   6.485   4.770   5.170 -0.0674  0.5647 -0.9945
    5CHTO   O81 1745   6.407   4.583   5.130 -0.9214  0.4522 -0.4860
    5CHTO  H202 1746   6.430   4.512   5.073 -0.5273  0.2179 -0.0451
    5CHTO  C119 1747   6.628   4.620   5.233  0.4155 -0.3352 -0.0978
    5CHTO  H223 1748   6.712   4.690   5.231 -0.6963  0.9860 -1.1300
    5CHTO  C117 1749   6.689   4.479   5.205  0.3096 -0.2042  0.3018
    5CHTO  H221 1750   6.610   4.404   5.219 -0.8428  1.4114  2.7424
    5CHTO   N20 1751   6.796   4.441   5.300 -0.4845  0.0947 -0.3882
    5CHTO  H209 1752   6.859   4.362   5.262 -1.0338  1.1953 -3.7345
    5CHTO  H210 1753   6.765   4.415   5.400 -1.2191  1.0962 -0.3507
    5CHTO   O80 1754   6.571   4.644   5.392 -0.2709 -0.7923 -0.3302
    5CHTO  C103 1755   6.413   4.610   5.439 -0.1606 -0.1382  0.0851
    5CHTO  H190 1756   6.335   4.629   5.365 -0.7546  1.5147  1.1025
    5CHTO  C101 1757   6.390   4.462   5.504 -0.0124 -0.5272 -0.4129
    5CHTO  H188 1758   6.456   4.442   5.589 -0.6538 -0.6860  0.0527
    5CHTO   O68 1759   6.409   4.371   5.393 -0.2783  0.0887 -0.3689
    5CHTO  H168 1760   6.364   4.401   5.316 -1.9262  0.8002  0.8537
    5CHTO   C99 1761   6.245   4.459   5.564 -0.4695 -0.0946 -0.8210
    5CHTO  H186 1762   6.172   4.491   5.486  0.5406  1.9191 -0.9746
    5CHTO   N17 1763   6.200   4.327   5.612 -0.2523 -0.1088 -0.1908
    5CHTO  H174 1764   6.096   4.339   5.640 -0.4068  0.5229 -1.0179
    5CHTO  H175 1765   6.265   4.297   5.693  1.4398 -1.6554 -2.0630
    5CHTO   C97 1766   6.233   4.568   5.675  0.7054  0.1567 -0.6650
    5CHTO  H184 1767   6.307   4.544   5.753 -1.3181  2.9938  2.2460
    5CHTO   O64 1768   6.258   4.700   5.615  0.4290 -0.7204  0.2328
    5CHTO  C104 1769   6.389   4.719   5.551  0.0107 -0.0369 -0.2669
    5CHTO  H191 1770   6.472   4.715   5.621 -0.4030 -0.3405  0.2113
    5CHTO  C108 1771   6.401   4.859   5.491 -1.1777 -0.7325 -0.1263
    5CHTO   O71 1772   6.372   4.971   5.583 -0.2624 -0.1789  0.2926
    5CHTO  H171 1773   6.279   4.970   5.589 -0.2902 -0.5396 -0.1841
    5CHTO   O62 1774   6.100   4.570   5.737 -0.1013 -0.1694  0.2475
    5CHTO   C91 1775   5.987   4.643   5.682  0.7764  0.1979  0.1611
    5CHTO  H178 1776   6.028   4.739   5.650  2.1817  0.0521  1.4366
    5CHTO   C92 1777   5.895   4.676   5.806 -0.2232  1.0394  0.2343
    5CHTO  H179 1778   5.954   4.727   5.883 -1.0052  2.7422 -0.2767
    5CHTO   O66 1779   5.796   4.770   5.763 -0.2222  0.2050  0.0111
    5CHTO  H166 1780   5.764   4.756   5.676  0.7088  0.6820 -0.4191
    5CHTO   C93 1781   5.825   4.540   5.859 -0.2165  0.6640 -0.3206
    5CHTO  H180 1782   5.732   4.581   5.901  0.0720  1.0193 -0.0270
    5CHTO   N16 1783   5.899   4.476   5.970 -0.4932 -0.2191 -0.0454
    5CHTO  H172 1784   5.845   4.404   6.029 -0.8419  0.9515  1.0655
    5CHTO  H173 1785   5.961   4.548   6.020 -2.7584  2.0215 -0.3879
    5CHTO   C94 1786   5.801   4.441   5.737  0.1448  0.8896 -0.3438
    5CHTO  H181 1787   5.880   4.367   5.724 -0.4820 -0.3417  2.3000
    5CHTO   O61 1788   5.784   4.509   5.615  0.0967 -0.3485 -0.1848
    5CHTO   C95 1789   5.907   4.566   5.568 -0.1583 -0.1499 -0.4713
    5CHTO  H182 1790   5.961   4.485   5.518  0.0282  0.7534 -1.7345
    5CHTO  C106 1791   5.881   4.659   5.449 -0.4761 -0.7088  0.7612
    5CHTO   O69 1792   5.997   4.710   5.380 -0.3002  0.4561  0.0105
    5CHTO  H169 1793   6.022   4.654   5.309 -0.0713  1.0225 -0.3648
    5CHTO   O63 1794   5.673   4.371   5.770  0.0304  0.6073  1.0107
    5CHTO   C96 1795   5.678   4.230   5.680  0.2275  0.0698  0.7864
    5CHTO  H183 1796   5.730   4.257   5.589 -1.2146  1.5979  0.3877
    5CHTO   C98 1797   5.544   4.171   5.632  0.1261  0.3536 -0.7345
    5CHTO  H185 1798   5.483   4.254   5.593  0.5983  0.5745 -1.0033
    5CHTO   O67 1799   5.555   4.084   5.519  0.2712 -0.2138  0.4307
    5CHTO  H167 1800   5.574   4.147   5.453  0.2625 -0.0420  0.5921
    5CHTO  C102 1801   5.475   4.099   5.752  0.6098 -0.4284  0.6271
    5CHTO  H189 1802   5.383   4.057   5.709  0.3824  1.3799 -0.7273
    5CHTO   N18 1803   5.428   4.176   5.866  0.0665 -0.1547 -0.0385
    5CHTO  H176 1804   5.385   4.106   5.936  2.2573 -1.0538  0.4425
    5CHTO  H177 1805   5.485   4.255   5.912 -0.1391 -0.4386  0.7108
    5CHTO  C105 1806   5.568   3.985   5.802 -0.3732 -0.5013  0.6369
    5CHTO  H192 1807   5.550   3.958   5.906 -0.3105  0.7176  0.9719
    5CHTO   O65 1808   5.706   4.016   5.818 -0.3880 -0.2193  0.7603
    5CHTO  C100 1809   5.772   4.115   5.738 -0.8366  0.8827  0.0411
    5CHTO  H187 1810   5.843   4.156   5.812  0.0499 -1.9033  0.8224
    5CHTO  C107 1811   5.851   4.037   5.632 -0.0730 -0.4849  0.2755
    5CHTO   O70 1812   5.938   4.117   5.565 -0.2304 -0.0510  0.3743
    5CHTO  H170 1813   5.986   4.078   5.495  0.3051 -0.2196  0.8247
    5CHTO   O57 1814   5.541   3.866   5.713 -0.5268 -0.0672 -0.5192
    5CHTO   C85 1815   5.575   3.731   5.737 -0.2273 -0.1119  0.6076
    5CHTO  H157 1816   5.567   3.727   5.848 -1.5922  1.9939  0.6151
    5CHTO   C83 1817   5.716   3.689   5.693 -0.4451  0.2743 -0.5208
    5CHTO  H155 1818   5.774   3.755   5.758 -0.9915 -0.2740  0.5191
    5CHTO   O56 1819   5.727   3.720   5.555  0.1561  0.0568  0.3030
    5CHTO  H135 1820   5.668   3.663   5.509  0.5708 -0.0529 -0.0958
    5CHTO   C81 1821   5.746   3.541   5.725 -0.3080  0.1107 -0.4064
    5CHTO  H153 1822   5.729   3.530   5.833 -1.3140 -0.1521 -0.5873
    5CHTO   N14 1823   5.888   3.502   5.700 -0.3678  0.0792 -0.1120
    5CHTO  H141 1824   5.896   3.420   5.632  1.7484  0.0111  0.1952
    5CHTO  H142 1825   5.951   3.478   5.784 -0.3685 -3.9909 -1.1607
    5CHTO   C79 1826   5.647   3.448   5.642  0.5947 -0.1408  0.0248
    5CHTO  H151 1827   5.661   3.343   5.669 -0.9168 -0.1631  0.7399
    5CHTO   O52 1828   5.509   3.483   5.675 -0.3071 -0.1238  0.2952
    5CHTO   C86 1829   5.476   3.629   5.664  0.0986 -0.2305 -0.0759
    5CHTO  H158 1830   5.484   3.647   5.555  0.3923  0.4758  0.0587
    5CHTO   C90 1831   5.324   3.650   5.697  0.3047  0.0774  0.8688
    5CHTO   O60 1832   5.283   3.617   5.827  0.3968  0.4433 -0.7627
    5CHTO  H138 1833   5.338   3.663   5.888 -0.3998  1.2005 -0.5973
    5CHTO   O50 1834   5.673   3.456   5.502  0.0200  0.0775 -0.3467
    5CHTO   C73 1835   5.650   3.397   5.368 -0.5210 -0.4791 -0.0012
    5CHTO  H145 1836   5.541   3.380   5.359 -0.7634  1.0815 -0.1303
    5CHTO   C74 1837   5.729   3.253   5.350  0.4051 -0.4738  0.2096
    5CHTO  H146 1838   5.704   3.183   5.432  0.9150 -0.9931 -0.0777
    5CHTO   O54 1839   5.665   3.188   5.238  1.4312 -0.3896  0.6660
    5CHTO  H133 1840   5.689   3.223   5.154  0.2278  0.1317  0.5187
    5CHTO   C75 1841   5.884   3.285   5.344 -0.1686  0.1049 -0.5512
    5CHTO  H147 1842   5.913   3.325   5.443  0.0185  0.8347 -0.8912
    5CHTO   N13 1843   5.975   3.172   5.334 -1.1161  0.1502  0.2948
    5CHTO  H139 1844   6.077   3.200   5.309 -0.6373 -2.2585 -0.5499
    5CHTO  H140 1845   5.970   3.101   5.415 -1.6891  0.4162  0.4927
    5CHTO   C76 1846   5.912   3.400   5.235 -0.7156 -0.2606 -0.0480
    5CHTO  H148 1847   5.909   3.348   5.139 -0.0099  0.3177 -0.3850
    5CHTO   O49 1848   5.824   3.517   5.246 -0.4871 -0.3853  0.3259
    5CHTO   C77 1849   5.685   3.487   5.246  0.1437  0.3627 -0.0177
    5CHTO  H149 1850   5.658   3.437   5.153 -1.6981 -1.7921  1.6039
    5CHTO   C88 1851   5.611   3.620   5.235 -0.0848 -0.2900 -0.0207
    5CHTO   O58 1852   5.466   3.609   5.210  0.6562 -0.0783 -0.4111
    5CHTO  H136 1853   5.426   3.692   5.192  1.2921  0.8818  2.3763
    5CHTO   O51 1854   6.065   3.449   5.270 -0.8038 -0.2360  0.3153
    5CHTO   C78 1855   6.119   3.570   5.164  0.1618  0.0243  0.0901
    5CHTO  H150 1856   6.031   3.606   5.105  0.9247  0.9265 -0.5088
    5CHTO   C80 1857   6.217   3.514   5.058 -0.2332  0.4645 -0.1519
    5CHTO  H152 1858   6.288   3.443   5.105 -2.1679 -1.4467 -0.0061
    5CHTO   O55 1859   6.133   3.437   4.967 -0.5914 -0.4020  0.4983
    5CHTO  H134 1860   6.180   3.398   4.896 -0.1775  0.9693  0.0250
    5CHTO   C84 1861   6.296   3.625   4.986  0.8267 -0.5373  0.4093
    5CHTO  H156 1862   6.225   3.678   4.923 -0.3639 -2.2337  0.2651
    5CHTO   N15 1863   6.405   3.578   4.897  0.7175  0.2740  0.4834
    5CHTO  H143 1864   6.356   3.500   4.843  2.3754 -0.3986 -0.0865
    5CHTO  H144 1865   6.481   3.529   4.954  0.4708 -1.3134 -0.5144
    5CHTO   C87 1866   6.360   3.715   5.095  0.3290 -0.3571  0.1552
    5CHTO  H159 1867   6.430   3.655   5.154 -0.3063 -0.7813  0.4791
    5CHTO   O53 1868   6.254   3.771   5.161  0.7776  0.3553  0.0778
    5CHTO   C82 1869   6.181   3.683   5.246 -0.1439  0.0280  0.6629
    5CHTO  H154 1870   6.259   3.660   5.318  0.1665 -0.2728  0.2310
    5CHTO   C89 1871   6.067   3.757   5.329  0.0983  0.1471  0.3344
    5CHTO   O59 1872   6.024   3.674   5.433  0.2858 -0.3339 -1.0978
    5CHTO  H137 1873   5.984   3.732   5.495 -0.9463 -0.7922 -1.4321
    5CHTO   O45 1874   6.439   3.833   5.031 -0.0927 -0.3094 -0.3731
    5CHTO   C67 1875   6.525   3.898   5.123 -0.1933 -0.3860 -0.0615
    5CHTO  H124 1876   6.479   3.906   5.221  1.3992  1.1909  0.5818
    5CHTO   C65 1877   6.668   3.842   5.133 -0.3572  0.3799 -0.4296
    5CHTO  H122 1878   6.682   3.797   5.034 -3.4121  1.7921 -1.5776
    5CHTO   O44 1879   6.659   3.739   5.234 -0.5629  0.3066  0.0292
    5CHTO  H102 1880   6.644   3.779   5.317  0.0435  1.2415 -0.3000
    5CHTO   C63 1881   6.781   3.956   5.155 -0.5222 -0.4417 -0.2643
    5CHTO  H120 1882   6.797   4.006   5.061 -1.1856 -0.8396 -0.5987
    5CHTO   N11 1883   6.919   3.904   5.192  0.2741  0.1677 -0.2535
    5CHTO  H108 1884   6.910   3.800   5.213 -0.2429  0.4332  0.9020
    5CHTO  H109 1885   6.959   3.946   5.282 -0.7695  1.3612 -0.3264
    5CHTO   C61 1886   6.724   4.076   5.242  0.4907 -0.4021  0.3899
    5CHTO  H118 1887   6.792   4.163   5.239  0.1653 -0.1487  0.4157
    5CHTO   O40 1888   6.596   4.127   5.186  0.0526  0.7293  0.3860
    5CHTO   C68 1889   6.531   4.055   5.078  0.1741 -0.1048 -0.6381
    5CHTO  H125 1890   6.577   4.066   4.978 -0.2130  0.0635 -0.7995
    5CHTO   C72 1891   6.386   4.109   5.068  1.3470  0.2912 -0.0642
    5CHTO   O48 1892   6.334   4.148   5.191  0.2991 -0.2206 -0.2674
    5CHTO  H105 1893   6.354   4.239   5.197 -1.0504  0.1291 -1.0576
    5CHTO   O38 1894   6.709   4.032   5.381  0.8310 -0.2739  0.2802
    5CHTO   C55 1895   6.677   4.126   5.484 -0.0605 -0.1967 -0.3441
    5CHTO  H112 1896   6.636   4.220   5.445 -0.7897 -0.0200  0.8552
    5CHTO   C56 1897   6.813   4.152   5.574  0.8505  0.4715 -0.2342
    5CHTO  H113 1898   6.853   4.053   5.600 -0.1856  0.3265  0.8260
    5CHTO   O42 1899   6.906   4.223   5.489 -0.0726  0.2699  0.5917
    5CHTO  H100 1900   6.982   4.228   5.543 -0.3730  1.1619  0.9217
    5CHTO   C57 1901   6.774   4.237   5.703 -0.0846  1.0477  0.4889
    5CHTO  H114 1902   6.749   4.333   5.657 -1.5818  1.1336  1.4535
    5CHTO   N10 1903   6.889   4.253   5.798 -0.0038  0.7219 -0.4650
    5CHTO  H106 1904   6.906   4.159   5.850  2.2471  0.7479 -1.1073
    5CHTO  H107 1905   6.975   4.276   5.738 -0.6841 -0.3279 -1.8780
    5CHTO   C58 1906   6.648   4.173   5.774  0.4555  0.3876 -0.3426
    5CHTO  H115 1907   6.678   4.077   5.821  1.8049  1.6530  1.4222
    5CHTO   O37 1908   6.539   4.162   5.679 -0.3266 -0.4128  0.1042
    5CHTO   C59 1909   6.573   4.069   5.581 -0.1548 -0.4712  0.1541
    5CHTO  H116 1910   6.597   3.975   5.631 -1.6928  1.0028  3.8297
    5CHTO   C70 1911   6.445   4.055   5.500 -0.3356 -0.1157  0.0381
    5CHTO   O46 1912   6.412   3.914   5.479 -0.4514 -0.0905  0.2827
    5CHTO  H103 1913   6.345   3.902   5.414 -0.1333  2.5852 -0.6140
    5CHTO   O39 1914   6.586   4.263   5.890  0.2475 -0.2327 -0.5790
    5CHTO   C60 1915   6.514   4.195   5.992 -0.0433  0.2680  0.4279
    5CHTO  H117 1916   6.446   4.126   5.943  2.1057 -0.5361 -1.4865
    5CHTO   C62 1917   6.606   4.119   6.092 -0.1373  0.5455  0.6391
    5CHTO  H119 1918   6.676   4.051   6.039  0.1272 -1.0104  2.8960
    5CHTO   O43 1919   6.692   4.212   6.156 -0.3600 -0.3488 -0.0044
    5CHTO  H101 1920   6.754   4.178   6.219 -0.3270 -0.1724  0.0559
    5CHTO   C66 1921   6.514   4.030   6.180  0.2367 -0.8612 -0.1079
    5CHTO  H123 1922   6.441   3.980   6.117 -0.2702 -0.1780 -0.0699
    5CHTO   N12 1923   6.579   3.912   6.254 -0.0875  0.1728  0.5304
    5CHTO  H110 1924   6.506   3.835   6.275  1.1485 -0.9552  0.7314
    5CHTO  H111 1925   6.632   3.954   6.338  0.9862  0.6053 -0.3530
    5CHTO   C69 1926   6.440   4.135   6.271 -0.0778 -0.4024  0.3152
    5CHTO  H126 1927   6.509   4.185   6.342 -0.3279  0.1252  0.1887
    5CHTO   O41 1928   6.367   4.235   6.192 -0.2368  0.5151  0.4307
    5CHTO   C64 1929   6.433   4.297   6.071  0.0914 -0.9064  0.0567
    5CHTO  H121 1930   6.506   4.370   6.111  1.0253 -0.5480 -2.2415
    5CHTO   C71 1931   6.329   4.373   5.986  0.1057 -0.7490  0.3221
    5CHTO   O47 1932   6.214   4.296   5.961  1.1070  0.1688 -0.1785
    5CHTO  H104 1933   6.149   4.351   5.920 -0.1999 -0.3348  1.1620
    5CHTO   O34 1934   6.343   4.066   6.362  0.3309 -0.5208  0.2596
    5CHTO   C49 1935   6.321   4.151   6.503  0.6808 -0.0045  0.7906
    5CHTO   H91 1936   6.415   4.168   6.555  1.0030  1.5381 -0.2799
    5CHTO   C47 1937   6.234   4.060   6.588 -0.3360 -1.0036 -0.0073
    5CHTO   H89 1938   6.234   4.119   6.682  1.8490  1.7461 -1.6567
    5CHTO   O33 1939   6.298   3.938   6.616  0.0644 -0.1762  0.3761
    5CHTO   H70 1940   6.236   3.881   6.657  0.4933 -0.1337  1.0904
    5CHTO   C45 1941   6.083   4.047   6.529  0.1969  0.0384  0.7111
    5CHTO   H87 1942   6.103   4.012   6.426  3.1864  0.3635  1.1401
    5CHTO    N8 1943   6.003   3.943   6.601  0.4132  0.2274 -0.2122
    5CHTO   H75 1944   5.991   3.970   6.705 -0.7871 -0.1050 -0.2601
    5CHTO   H76 1945   5.906   3.927   6.556  0.1639  1.2850 -0.0624
    5CHTO   C43 1946   6.011   4.186   6.517 -0.7032 -0.4109 -0.0566
    5CHTO   H85 1947   5.921   4.174   6.456  0.0993 -3.6261 -0.6888
    5CHTO   O29 1948   6.106   4.272   6.449 -0.0215  0.5362 -0.0959
    5CHTO   C50 1949   6.246   4.285   6.481  0.1802  0.2223 -0.7355
    5CHTO   H92 1950   6.303   4.345   6.408 -0.0406  0.9234 -0.3324
    5CHTO   C54 1951   6.261   4.387   6.605  0.2406  1.0045 -0.2908
    5CHTO   O36 1952   6.181   4.507   6.584  0.0126 -0.1175  0.4763
    5CHTO   H72 1953   6.210   4.570   6.647 -1.0593  0.8235  0.0408
    5CHTO   O27 1954   5.947   4.245   6.631  0.0772  0.1599 -0.5995
    5CHTO   C37 1955   5.857   4.280   6.740 -0.1132  0.3022 -0.0860
    5CHTO   H79 1956   5.903   4.362   6.797  1.3999  0.1201 -1.0195
    5CHTO   C38 1957   5.722   4.332   6.680  0.0455  0.2965 -0.4249
    5CHTO   H80 1958   5.676   4.267   6.605  1.0672  0.0989 -0.8805
    5CHTO   O31 1959   5.750   4.459   6.623  0.2397  0.0817  0.7373
    5CHTO   H68 1960   5.677   4.505   6.585  2.6704  3.4824 -0.0653
    5CHTO   C39 1961   5.614   4.350   6.792  0.0065  0.6139 -0.0208
    5CHTO   H81 1962   5.648   4.426   6.862 -0.6928 -0.3651  1.4031
    5CHTO    N7 1963   5.478   4.388   6.732 -0.3365  0.6373 -0.4626
    5CHTO   H73 1964   5.462   4.491   6.760 -0.5993  0.6973 -0.8452
    5CHTO   H74 1965   5.397   4.338   6.783  0.3151  2.0166  2.0073
    5CHTO   C40 1966   5.602   4.216   6.876 -0.2306  0.2482  0.2966
    5CHTO   H82 1967   5.560   4.137   6.814  0.6093 -1.0096  1.2902
    5CHTO   O26 1968   5.733   4.175   6.927 -0.0530 -0.2767 -0.4162
    5CHTO   C41 1969   5.842   4.165   6.831 -0.1803 -0.0248  0.1178
    5CHTO   H83 1970   5.827   4.075   6.769 -0.2508  0.2305 -0.2392
    5CHTO   C52 1971   5.956   4.132   6.926  0.1618 -0.2304  0.0147
    5CHTO   O35 1972   5.952   4.006   7.017  0.0265 -0.0491  0.3829
    5CHTO   H71 1973   5.881   4.033   7.071  0.1387  1.5834 -0.2610
    5CHTO   O28 1974   5.516   4.247   6.990  0.4446  0.6815  0.0437
    5CHTO   C42 1975   5.549   4.231   7.133  0.2170 -0.3345  0.4804
    5CHTO   H84 1976   5.456   4.240   7.190  0.6173 -1.2124  1.2664
    5CHTO   C44 1977   5.642   4.346   7.189 -0.8639 -0.5303  0.5469
    5CHTO   H86 1978   5.736   4.348   7.133  0.6323  1.5351  3.0078
    5CHTO   O32 1979   5.568   4.470   7.165 -0.1327 -0.1024 -0.2009
    5CHTO   H69 1980   5.619   4.548   7.175  0.5807 -0.6582  0.5836
    5CHTO   C48 1981   5.687   4.320   7.340  0.0291 -0.1923  0.9441
    5CHTO   H90 1982   5.596   4.308   7.399 -1.7677  2.2004 -1.2199
    5CHTO    N9 1983   5.767   4.424   7.411 -0.2004 -0.5259 -0.5029
    5CHTO   H77 1984   5.863   4.442   7.365  0.6518 -0.5248  1.2386
    5CHTO   H78 1985   5.781   4.407   7.516 -2.0143  2.9391  0.3581
    5CHTO   C51 1986   5.765   4.190   7.328 -0.3849 -0.0575 -0.4570
    5CHTO   H93 1987   5.838   4.188   7.247 -0.6825  0.9144 -0.7514
    5CHTO   O30 1988   5.662   4.092   7.311  0.2254  0.2667 -0.6700
    5CHTO   C46 1989   5.609   4.093   7.178  0.8006 -0.0635 -0.1449
    5CHTO   H88 1990   5.689   4.064   7.109  2.1043 -0.4513  1.5052
    5CHTO   C53 1991   5.490   3.988   7.160 -0.1788  0.1511  0.1740
    5CHTO   O72 1992   5.515   3.851   7.203  0.5720  0.3152  0.2984
    5CHTO  H199 1993   5.534   3.848   7.295  0.7394 -1.6128  0.2310
    5CHTO   O22 1994   5.824   4.138   7.453 -0.2440  0.3256  0.8570
    5CHTO   C31 1995   5.959   4.064   7.447 -0.5426 -0.4833 -0.5004
    5CHTO   H59 1996   5.970   4.020   7.548  0.7411  1.1059  0.0735
    5CHTO   C29 1997   5.950   3.946   7.352  0.1429 -0.1156 -0.5584
    5CHTO   H57 1998   5.914   3.985   7.256  0.6557  0.7455 -0.4109
    5CHTO   O21 1999   5.860   3.860   7.414  0.2748 -0.3624  0.0449
    5CHTO   H37 2000   5.901   3.817   7.486  2.1496 -0.8552 -1.2802
    5CHTO   C27 2001   6.091   3.880   7.330  0.7124 -0.4570 -0.4393
    5CHTO   H55 2002   6.130   3.841   7.425 -1.8140  0.5327  1.0346
    5CHTO    N5 2003   6.089   3.770   7.234 -0.2113  0.0860 -0.0284
    5CHTO   H43 2004   6.184   3.718   7.232  1.1270  2.4828 -1.6232
    5CHTO   H44 2005   6.037   3.797   7.144 -0.5481 -0.7719 -0.0886
    5CHTO   C25 2006   6.193   3.991   7.297 -0.0715 -0.9218 -0.7125
    5CHTO   H53 2007   6.165   4.061   7.216  1.3449 -2.0889 -2.2462
    5CHTO   O17 2008   6.200   4.084   7.405 -0.5893  0.0277  0.2939
    5CHTO   C32 2009   6.086   4.163   7.436 -0.5477 -0.6562 -0.1482
    5CHTO   H60 2010   6.070   4.220   7.345 -0.5291  3.5114  2.3231
    5CHTO   C36 2011   6.109   4.251   7.566 -0.5671  0.0352 -0.0961
    5CHTO   O25 2012   5.998   4.335   7.593 -0.5102  0.4228 -0.5687
    5CHTO   H40 2013   5.926   4.277   7.574 -0.2847  0.0017 -0.1450
    5CHTO   O15 2014   6.347   3.932   7.267  0.8939  0.4481  0.4295
    5CHTO   C19 2015   6.446   4.027   7.211  0.8805 -0.7096 -0.0273
    5CHTO   H47 2016   6.405   4.128   7.223  2.0675 -0.3165  0.8829
    5CHTO   C20 2017   6.578   4.039   7.299 -0.3354 -0.5604 -0.3650
    5CHTO   H48 2018   6.617   3.939   7.323  1.6729  0.1807 -0.4653
    5CHTO   O19 2019   6.552   4.117   7.420  0.0372 -0.2712 -0.7180
    5CHTO   H35 2020   6.625   4.113   7.479  0.1777  0.5016 -0.8345
    5CHTO   C21 2021   6.702   4.104   7.236 -0.1626  0.0377 -0.0998
    5CHTO   H49 2022   6.699   4.211   7.253 -0.5195 -0.1243  0.8986
    5CHTO    N4 2023   6.832   4.072   7.295  0.9340  0.0025  0.5888
    5CHTO   H41 2024   6.832   3.964   7.299 -2.7340 -0.0175  2.1233
    5CHTO   H42 2025   6.914   4.104   7.233 -0.3439 -0.7714 -1.5726
    5CHTO   C22 2026   6.703   4.080   7.082 -0.0574  0.5445 -0.0883
    5CHTO   H50 2027   6.743   3.981   7.064  1.9409  0.5762  3.7595
    5CHTO   O14 2028   6.578   4.101   7.014  0.4522 -0.6916  0.1731
    5CHTO   C23 2029   6.480   4.006   7.060 -0.1609  0.3889 -0.3542
    5CHTO   H51 2030   6.517   3.905   7.037  2.1467  1.9281 -3.8870
    5CHTO   C34 2031   6.354   4.026   6.975  0.0148  0.8853 -0.1293
    5CHTO   O23 2032   6.270   3.912   6.975  0.5355  0.2746 -0.3569
    5CHTO   H38 2033   6.181   3.942   6.971  1.3997  2.7217 -2.4428
    5CHTO   O16 2034   6.783   4.179   7.009 -0.3979 -0.3559 -0.0957
    5CHTO   C24 2035   6.856   4.129   6.884  0.0793  0.1602  0.3744
    5CHTO   H52 2036   6.804   4.044   6.841 -0.5187  0.7454 -0.0805
    5CHTO   C26 2037   7.004   4.098   6.905  0.7438 -0.2039  0.1986
    5CHTO   H54 2038   7.052   4.189   6.945 -1.6144  1.3443 -0.4360
    5CHTO   O20 2039   6.995   3.989   7.002 -0.1833  0.1926  0.4951
    5CHTO   H36 2040   7.046   3.919   6.968 -3.4835 -2.0666 -0.0857
    5CHTO   C30 2041   7.073   4.063   6.768 -0.6487  1.1450  0.2774
    5CHTO   H58 2042   7.022   3.982   6.713  0.7196  2.6311 -3.2812
    5CHTO    N6 2043   7.211   4.018   6.795  0.1822  0.2748 -0.4651
    5CHTO   H45 2044   7.257   3.958   6.718  1.2119 -0.4852  0.7281
    5CHTO   H46 2045   7.273   4.104   6.816  0.1990  0.0857  0.2663
    5CHTO   C33 2046   7.063   4.187   6.671  0.3565 -0.2555  0.3969
    5CHTO   H61 2047   7.108   4.277   6.713  0.2634  0.6535 -1.4154
    5CHTO   O18 2048   6.919   4.203   6.656  0.0439 -0.2566  0.0185
    5CHTO   C28 2049   6.848   4.241   6.777  0.3791 -0.5208  0.2443
    5CHTO   H56 2050   6.879   4.339   6.813  0.9608  0.2595 -2.2884
    5CHTO   C35 2051   6.700   4.274   6.736 -0.5931  0.9936 -0.7422
    5CHTO   O24 2052   6.659   4.156   6.660 -0.6501  0.2528  0.6193
    5CHTO   H39 2053   6.664   4.077   6.711  0.3486 -1.5790 -2.2112
    5CHTO    O9 2054   7.129   4.175   6.545  0.1369 -0.1512  0.1616
    5CHTO   C13 2055   7.060   4.069   6.446  0.2949 -0.2496  0.0036
    5CHTO   H26 2056   6.976   4.020   6.499  0.4346 -1.4186 -0.8363
    5CHTO   C11 2057   7.174   3.963   6.403  0.2820 -0.3550  0.4794
    5CHTO   H24 2058   7.212   3.908   6.490  0.8141 -0.8419 -0.0518
    5CHTO    O8 2059   7.294   4.024   6.346  0.1345 -0.5498  0.1030
    5CHTO    H3 2060   7.271   4.062   6.264  2.4383 -0.0039 -0.3392
    5CHTO    C9 2061   7.115   3.861   6.305 -0.0927  0.0302  0.6243
    5CHTO   H22 2062   7.025   3.825   6.356 -1.7479  2.2429 -0.6498
    5CHTO    N2 2063   7.195   3.743   6.281  0.7071  0.0107 -0.1634
    5CHTO   H10 2064   7.206   3.733   6.174 -1.8084  0.9515 -0.5620
    5CHTO   H11 2065   7.293   3.742   6.325  0.3142 -3.4298  0.8088
    5CHTO    C7 2066   7.050   3.940   6.182  0.0059 -0.5904 -0.3486
    5CHTO   H20 2067   6.973   3.873   6.139 -0.4058 -0.7280  0.5965
    5CHTO    O4 2068   6.992   4.069   6.206 -0.4069  0.0587 -0.0992
    5CHTO   C14 2069   6.999   4.145   6.326 -0.2573 -0.2127 -0.6338
    5CHTO   H27 2070   6.891   4.166   6.341 -0.1929  0.6760 -1.3989
    5CHTO   C18 2071   7.069   4.281   6.299  0.3300 -0.0522  0.3673
    5CHTO   O13 2072   7.046   4.377   6.405  0.2201 -0.0309 -0.1354
    5CHTO    H7 2073   7.062   4.345   6.491 -1.3991 -4.0166 -1.1966
    5CHTO    O2 2074   7.178   3.955   6.063 -0.2417  1.0041 -0.2269
    5CHTO    C1 2075   7.136   3.985   5.931  0.5382  0.1386 -0.4763
    5CHTO   H14 2076   7.038   4.035   5.939 -0.1179 -1.2539  0.3640
    5CHTO    C2 2077   7.122   3.860   5.836  0.0393  0.2817 -0.5189
    5CHTO   H15 2078   7.211   3.799   5.854  0.4983  1.3366  0.8681
    5CHTO    O6 2079   7.008   3.790   5.887  0.5681  0.1628  0.1289
    5CHTO    H1 2080   7.007   3.703   5.854 -2.8780 -0.4064  1.5294
    5CHTO    C3 2081   7.100   3.894   5.677 -0.0353  0.6561 -0.0959
    5CHTO   H16 2082   6.997   3.923   5.650 -1.3706 -4.8638 -1.5042
    5CHTO    N1 2083   7.136   3.773   5.594 -0.6583 -0.0842 -0.1802
    5CHTO    H8 2084   7.144   3.797   5.490  2.7052  0.0060  0.0736
    5CHTO    H9 2085   7.226   3.723   5.626 -0.1144  0.6192 -0.6078
    5CHTO    C4 2086   7.194   4.019   5.635  0.3445  0.1546 -0.8351
    5CHTO   H17 2087   7.298   3.986   5.629 -0.1621 -1.6441  0.0947
    5CHTO    O1 2088   7.193   4.124   5.736 -0.5200  0.2789 -0.2616
    5CHTO    C5 2089   7.240   4.075   5.862  0.0290 -0.3226 -0.2649
    5CHTO   H18 2090   7.334   4.021   5.848 -0.4667 -1.6492  1.4541
    5CHTO   C16 2091   7.263   4.191   5.950 -0.1879 -0.0487  0.3366
    5CHTO   O11 2092   7.376   4.275   5.923 -0.0963  0.2856  0.0253
    5CHTO    H5 2093   7.384   4.340   5.989  0.1694 -0.2090  0.4844
    5CHTO    O3 2094   7.141   4.092   5.518 -0.4265 -0.3907  0.1786
    5CHTO    C6 2095   7.249   4.150   5.434  0.1907  0.3624 -0.6309
    5CHTO   H19 2096   7.338   4.162   5.495  0.9025  1.2263 -1.8218
    5CHTO    C8 2097   7.281   4.056   5.316 -0.3023 -0.7326 -1.0579
    5CHTO   H21 2098   7.190   4.041   5.260 -1.2895 -1.4302  0.6875
    5CHTO    O7 2099   7.327   3.926   5.375 -0.0009  0.5237  0.2961
    5CHTO    H2 2100   7.301   3.857   5.317 -2.7607 -0.5177  2.6528
    5CHTO   C12 2101   7.381   4.125   5.212 -0.6835 -0.6748  0.3759
    5CHTO   H25 2102   7.483   4.124   5.255 -1.3975  0.7241  2.1327
    5CHTO    N3 2103   7.402   4.049   5.090 -0.1577 -0.0980 -0.0884
    5CHTO   H12 2104   7.396   4.110   5.001  0.7139  0.0326 -0.0583
    5CHTO   H13 2105   7.500   4.003   5.094 -0.3702 -0.8100 -2.4136
    5CHTO   C15 2106   7.343   4.281   5.190  0.6902 -0.2923  0.4805
    5CHTO   H28 2107   7.257   4.289   5.124  1.7656 -1.8930 -1.1793
    5CHTO   O10 2108   7.457   4.364   5.116 -0.3356 -0.1809  0.1091
    5CHTO    H4 2109   7.463   4.338   5.026  0.7394 -1.7359  0.5978
    5CHTO    O5 2110   7.320   4.347   5.313  0.0903  0.0357 -0.0701
    5CHTO   C10 2111   7.215   4.291   5.390 -0.3039  0.6041 -0.5816
    5CHTO   H23 2112   7.124   4.319   5.336  0.2200  2.5488 -0.5168
    5CHTO   C17 2113   7.210   4.365   5.521  0.1214  0.1466  0.7366
    5CHTO   O12 2114   7.209   4.511   5.520  0.2027 -0.7815  0.1278
    5CHTO    H6 2115   7.183   4.542   5.604  0.9797 -0.3572  0.2105
    6CHTO  H203 2116   6.168   6.050   2.290 -0.5891  0.2927 -0.8799
    6CHTO   O82 2117   6.189   6.118   2.352 -0.2301 -0.1781 -0.4834
    6CHTO  C123 2118   6.156   6.066   2.480  0.2893  0.1381  0.1107
    6CHTO  H227 2119   6.189   6.139   2.555  0.6746 -0.7530  0.8143
    6CHTO   O77 2120   6.008   6.066   2.466 -0.4951  0.3245  0.1444
    6CHTO  C118 2121   5.949   6.035   2.591  0.1246 -0.6682 -0.5828
    6CHTO  H222 2122   5.992   6.099   2.670  0.8472  0.4928 -1.8953
    6CHTO  C125 2123   5.796   6.058   2.602 -0.0826  0.8935  0.5682
    6CHTO   O84 2124   5.759   6.185   2.637 -0.6389 -0.2772 -0.1700
    6CHTO  H205 2125   5.672   6.200   2.669 -1.3720  1.9426 -2.9807
    6CHTO  C114 2126   5.978   5.886   2.622 -0.5082  0.5027 -0.1907
    6CHTO  H218 2127   5.933   5.828   2.542  0.8653 -1.3213  0.3113
    6CHTO  C116 2128   6.132   5.857   2.625 -0.8398  0.5341 -0.0756
    6CHTO  H220 2129   6.170   5.890   2.724  0.2245  0.9159 -0.6089
    6CHTO   O79 2130   6.163   5.712   2.619 -0.7520 -0.0701  0.7787
    6CHTO  H201 2131   6.150   5.693   2.528  0.2592 -1.3132  0.8814
    6CHTO  C120 2132   6.217   5.925   2.509  0.6803 -0.5380  0.7504
    6CHTO  H224 2133   6.198   5.850   2.429 -0.8720 -0.0845  0.6777
    6CHTO   N21 2134   6.362   5.924   2.539  0.1380 -0.1874 -0.2654
    6CHTO  H211 2135   6.386   6.001   2.611  0.2329  0.0098 -0.5054
    6CHTO  H212 2136   6.401   5.828   2.569  1.7840  0.6455  0.3660
    6CHTO   O75 2137   5.924   5.856   2.753 -0.4220  0.2902  0.0358
    6CHTO  C112 2138   5.826   5.725   2.767 -1.0091 -1.0296  0.4640
    6CHTO  H216 2139   5.851   5.648   2.693 -0.1384  2.0754 -2.5873
    6CHTO   O73 2140   5.692   5.770   2.751  0.7502  0.1609 -0.1159
    6CHTO  C113 2141   5.599   5.659   2.750 -0.5970 -0.4584 -0.4607
    6CHTO  H217 2142   5.633   5.576   2.684  0.2271  0.1766 -0.8404
    6CHTO  C124 2143   5.466   5.711   2.703  0.0106  1.1101  0.6203
    6CHTO   O83 2144   5.412   5.816   2.788 -0.0399 -0.2008 -0.5455
    6CHTO  H204 2145   5.364   5.876   2.735  0.7799  1.3982  0.4910
    6CHTO  C109 2146   5.594   5.609   2.897  0.3984 -0.0387 -0.2679
    6CHTO  H213 2147   5.557   5.694   2.956  0.7411  0.2429 -0.4507
    6CHTO  C110 2148   5.735   5.561   2.951  0.8615  0.4613 -0.1645
    6CHTO  H214 2149   5.764   5.472   2.896 -1.0766  0.8727 -1.9216
    6CHTO   O78 2150   5.732   5.524   3.091  0.1788 -0.3135  0.1513
    6CHTO  H200 2151   5.700   5.596   3.141 -0.0467 -0.0561 -0.3635
    6CHTO  C111 2152   5.836   5.675   2.922  0.4815  0.5027 -0.3805
    6CHTO  H215 2153   5.807   5.762   2.982  0.3020  0.4469 -0.3864
    6CHTO   N19 2154   5.982   5.644   2.954 -0.7993  0.4517  0.7654
    6CHTO  H207 2155   6.053   5.708   2.905 -1.7498  0.4985 -0.5786
    6CHTO  H208 2156   6.004   5.651   3.060  0.9073 -1.7153  0.5752
    6CHTO   O74 2157   5.500   5.502   2.903  0.4430  0.9144 -0.3960
    6CHTO  C115 2158   5.373   5.526   2.982 -0.1832 -0.3917 -0.6641
    6CHTO  H219 2159   5.339   5.629   2.975 -0.9866 -0.7163 -1.6347
    6CHTO   O76 2160   5.251   5.445   2.915 -0.3608  0.1959  0.1856
    6CHTO  C122 2161   5.285   5.305   2.896  0.5763  0.2092  0.7273
    6CHTO  H226 2162   5.342   5.297   2.804 -1.1810  1.8603 -0.5352
    6CHTO  C126 2163   5.149   5.223   2.865  0.3070  0.3027  0.3162
    6CHTO   O85 2164   5.056   5.229   2.966 -0.0071  0.1383 -0.1750
    6CHTO  H206 2165   4.977   5.259   2.926 -0.2621  2.2461  1.8131
    6CHTO  C121 2166   5.350   5.247   3.026 -0.0484  0.5482 -0.6620
    6CHTO  H225 2167   5.320   5.142   3.047  0.5461  0.5137  0.0692
    6CHTO   O81 2168   5.486   5.236   2.995 -0.1954 -0.6753  0.0005
    6CHTO  H202 2169   5.526   5.320   2.990  0.0710 -0.8607 -1.1057
    6CHTO  C119 2170   5.329   5.331   3.158  0.1386 -0.6644  0.4770
    6CHTO  H223 2171   5.221   5.335   3.169  0.0281 -0.1513 -0.7502
    6CHTO  C117 2172   5.383   5.485   3.138  0.4778  0.0086  0.6726
    6CHTO  H221 2173   5.491   5.494   3.153  1.0331  0.6878 -3.3884
    6CHTO   N20 2174   5.319   5.583   3.234  0.9555  0.0683  0.2735
    6CHTO  H209 2175   5.387   5.621   3.308 -0.3084 -1.8709  2.4893
    6CHTO  H210 2176   5.282   5.661   3.169  2.6595  1.6551  1.1676
    6CHTO   O80 2177   5.371   5.268   3.293  0.6806  0.1303 -0.1614
    6CHTO  C103 2178   5.263   5.196   3.382  0.2594 -1.0575 -0.0370
    6CHTO  H190 2179   5.313   5.184   3.478  0.3896 -1.0374 -0.1021
    6CHTO  C101 2180   5.129   5.269   3.397  0.2165  0.4873  0.1840
    6CHTO  H188 2181   5.083   5.295   3.302  0.8074  1.2263  0.0929
    6CHTO   O68 2182   5.160   5.404   3.470  0.3971 -0.6787  0.0110
    6CHTO  H168 2183   5.250   5.431   3.468  0.3042  0.1995  3.5971
    6CHTO   C99 2184   5.020   5.173   3.473 -0.0801  0.5516  0.4920
    6CHTO  H186 2185   5.051   5.164   3.579  0.6073  1.7164  0.4005
    6CHTO   N17 2186   4.881   5.237   3.485  0.2286  0.0952  0.1304
    6CHTO  H174 2187   4.854   5.223   3.589  1.9749 -1.4823  0.3825
    6CHTO  H175 2188   4.806   5.186   3.427  1.7785 -2.7858  0.5937
    6CHTO   C97 2189   5.017   5.030   3.416  0.4264  0.5630 -0.2962
    6CHTO  H184 2190   4.978   5.046   3.314 -0.4166 -3.0086 -0.5975
    6CHTO   O64 2191   5.155   4.985   3.416 -0.2014  0.8406  0.0601
    6CHTO  C104 2192   5.239   5.057   3.322  0.4832  0.0457  0.2319
    6CHTO  H191 2193   5.191   5.068   3.226 -0.8752 -0.2200  0.8696
    6CHTO  C108 2194   5.377   4.986   3.311  0.9945 -0.0714 -0.1458
    6CHTO   O71 2195   5.363   4.875   3.225 -0.1628  0.1442  0.0383
    6CHTO  H171 2196   5.285   4.828   3.246 -0.6718  1.6655  1.6631
    6CHTO   O62 2197   4.938   4.931   3.478  0.5488  1.0415 -0.3029
    6CHTO   C91 2198   4.949   4.888   3.615 -0.8548  0.0155 -0.0759
    6CHTO  H178 2199   5.022   4.949   3.668 -1.9162  2.5776 -1.4692
    6CHTO   C92 2200   5.013   4.743   3.617  0.8746  0.6290 -0.6429
    6CHTO  H179 2201   5.095   4.730   3.546 -0.9797 -0.8973 -2.5763
    6CHTO   O66 2202   5.074   4.723   3.748  0.1079 -0.2821  0.0337
    6CHTO  H166 2203   5.025   4.756   3.820 -1.8835 -1.1958 -0.8437
    6CHTO   C93 2204   4.912   4.636   3.596  0.2700  0.6194 -0.0023
    6CHTO  H180 2205   4.968   4.542   3.607 -0.2373  0.4589  1.3102
    6CHTO   N16 2206   4.860   4.621   3.462 -0.0857  0.2668 -0.5670
    6CHTO  H172 2207   4.907   4.700   3.405  2.7055 -0.8163  0.1431
    6CHTO  H173 2208   4.873   4.528   3.408 -1.3133  0.0480 -0.4810
    6CHTO   C94 2209   4.795   4.650   3.702 -0.6689  0.1273 -0.3571
    6CHTO  H181 2210   4.709   4.591   3.672  0.5434 -0.9720 -1.7431
    6CHTO   O61 2211   4.746   4.780   3.722 -0.1735  0.1796 -0.0367
    6CHTO   C95 2212   4.817   4.902   3.698  0.5790  0.1099  0.8585
    6CHTO  H182 2213   4.757   4.972   3.641  1.2688  0.3116  0.3645
    6CHTO  C106 2214   4.835   4.977   3.833 -0.1302  0.3682 -0.5671
    6CHTO   O69 2215   4.893   4.890   3.934  0.3391 -0.4282 -0.2009
    6CHTO  H169 2216   4.827   4.878   4.000 -0.0724 -0.1562 -0.5542
    6CHTO   O63 2217   4.858   4.592   3.843 -0.3991  0.4022 -0.6542
    6CHTO   C96 2218   4.752   4.520   3.926 -0.0774  0.3365  0.1228
    6CHTO  H183 2219   4.669   4.508   3.856 -0.4023  2.4575  0.1048
    6CHTO   C98 2220   4.707   4.594   4.050 -0.7561 -0.0273  0.0139
    6CHTO  H185 2221   4.799   4.615   4.106 -0.7563 -0.9747  0.3697
    6CHTO   O67 2222   4.651   4.724   4.011  0.2353 -0.2924  0.1897
    6CHTO  H167 2223   4.594   4.763   4.075  2.0903  0.2211  1.5875
    6CHTO  C102 2224   4.611   4.496   4.134 -0.1542  0.2108  0.4577
    6CHTO  H189 2225   4.525   4.465   4.072 -0.4725 -0.9045  1.4572
    6CHTO   N18 2226   4.557   4.567   4.255 -0.4077 -0.1521  0.6115
    6CHTO  H176 2227   4.640   4.577   4.323 -0.5556  1.2655  0.5884
    6CHTO  H177 2228   4.507   4.657   4.223  0.2256  0.6391  1.7761
    6CHTO  C105 2229   4.687   4.363   4.159  0.3113  0.3427 -0.2266
    6CHTO  H192 2230   4.778   4.386   4.216  0.3572 -2.2280  0.8236
    6CHTO   O65 2231   4.725   4.307   4.041  0.4021 -0.6692  0.5754
    6CHTO  C100 2232   4.810   4.380   3.953 -0.2801 -0.5309  0.3868
    6CHTO  H187 2233   4.906   4.403   4.001 -0.9925  1.1249  1.0876
    6CHTO  C107 2234   4.827   4.306   3.815 -0.0386 -0.0485 -0.3418
    6CHTO   O70 2235   4.889   4.169   3.831  0.3699 -0.1019 -0.0865
    6CHTO  H170 2236   4.919   4.152   3.918 -2.9211 -0.5839  1.0551
    6CHTO   O57 2237   4.574   4.261   4.244 -0.2876 -0.1855  0.3053
    6CHTO   C85 2238   4.626   4.177   4.351  0.2561  0.1469 -0.0865
    6CHTO  H157 2239   4.552   4.096   4.369  0.4956 -0.3004 -1.0604
    6CHTO   C83 2240   4.628   4.252   4.493  0.1372 -0.3112 -0.2234
    6CHTO  H155 2241   4.529   4.274   4.533 -0.1929  0.1873 -1.3155
    6CHTO   O56 2242   4.688   4.377   4.469 -0.3300  0.2238  0.3784
    6CHTO  H135 2243   4.762   4.361   4.413 -0.7751 -0.8757  0.0924
    6CHTO   C81 2244   4.710   4.173   4.606 -0.4351  0.0706 -0.1317
    6CHTO  H153 2245   4.650   4.085   4.629  1.7055 -0.9820  1.7033
    6CHTO   N14 2246   4.719   4.237   4.739 -0.3628 -0.0206  0.3918
    6CHTO  H141 2247   4.648   4.203   4.811 -0.9399  0.4623  0.0572
    6CHTO  H142 2248   4.714   4.344   4.732  0.9612  0.1654  1.8859
    6CHTO   C79 2249   4.848   4.118   4.552  0.1831 -0.6639  0.1086
    6CHTO  H151 2250   4.892   4.050   4.625 -0.0389 -1.3879 -0.4165
    6CHTO   O52 2251   4.833   4.048   4.422  0.3838 -0.2409 -0.5578
    6CHTO   C86 2252   4.767   4.117   4.317  0.2089 -0.1161 -0.1606
    6CHTO  H158 2253   4.833   4.199   4.280 -1.3806  0.3798 -1.9603
    6CHTO   C90 2254   4.749   4.026   4.195  0.3034 -0.0841 -0.0438
    6CHTO   O60 2255   4.864   3.964   4.143  0.1528 -0.2875 -0.1827
    6CHTO  H138 2256   4.833   3.900   4.083  1.1839 -0.1949 -0.8265
    6CHTO   O50 2257   4.943   4.221   4.545 -0.4687 -0.2160  0.2618
    6CHTO   C73 2258   5.071   4.280   4.571 -0.6785 -0.2227 -0.5592
    6CHTO  H145 2259   5.152   4.207   4.586 -1.3368 -1.2047 -1.6846
    6CHTO   C74 2260   5.059   4.388   4.687  0.5326 -0.2001 -0.5836
    6CHTO  H146 2261   5.022   4.341   4.780 -0.1464  1.3556 -0.0589
    6CHTO   O54 2262   5.198   4.432   4.706 -0.1789 -0.0496  0.2109
    6CHTO  H133 2263   5.209   4.478   4.787  2.0383  0.0474 -0.1117
    6CHTO   C75 2264   4.965   4.503   4.634  0.1873  0.2258 -0.2205
    6CHTO  H147 2265   4.864   4.465   4.611  0.6145 -0.8037 -0.3981
    6CHTO   N13 2266   4.958   4.603   4.747 -0.3130 -0.6450  0.9475
    6CHTO  H139 2267   4.859   4.645   4.753 -1.0341 -2.5351  2.5264
    6CHTO  H140 2268   4.980   4.562   4.844  2.4847 -0.3354  0.4830
    6CHTO   C76 2269   5.007   4.568   4.495 -0.4112 -0.6827 -0.5724
    6CHTO  H148 2270   5.106   4.607   4.513 -0.5934 -0.9460  1.1115
    6CHTO   O49 2271   5.016   4.462   4.393 -0.2571  0.5855 -0.1033
    6CHTO   C77 2272   5.109   4.358   4.439  0.0225  0.0553  0.5411
    6CHTO  H149 2273   5.205   4.410   4.444  1.8161 -3.1409  0.5059
    6CHTO   C88 2274   5.142   4.262   4.322 -0.1379  0.6499 -0.2065
    6CHTO   O58 2275   5.195   4.320   4.208 -0.3228  0.0478  0.8019
    6CHTO  H136 2276   5.275   4.274   4.191 -0.9002 -0.8096  0.3434
    6CHTO   O51 2277   4.907   4.684   4.425  0.3031  0.3065  0.6765
    6CHTO   C78 2278   5.001   4.805   4.365 -0.2837  0.1559  0.4884
    6CHTO  H150 2279   5.098   4.808   4.417  0.2193  0.1598 -0.4416
    6CHTO   C80 2280   4.930   4.941   4.390  0.6211 -0.0823  0.3709
    6CHTO  H152 2281   4.829   4.948   4.345  1.0987  3.3905 -0.2794
    6CHTO   O55 2282   4.917   4.946   4.534  0.1312 -0.0944  0.9801
    6CHTO  H134 2283   4.917   5.037   4.558  0.8402  0.1683  0.0076
    6CHTO   C84 2284   5.012   5.061   4.336  0.0886 -0.3601  0.6007
    6CHTO  H156 2285   5.106   5.056   4.392 -0.7692 -0.5268  2.0416
    6CHTO   N15 2286   4.947   5.192   4.366 -0.3734 -0.5074  0.0595
    6CHTO  H143 2287   4.850   5.198   4.322 -0.2056  0.6244 -0.1659
    6CHTO  H144 2288   4.931   5.202   4.471 -2.1472  0.3854 -0.2797
    6CHTO   C87 2289   5.049   5.047   4.184 -0.8134  0.7570  0.3612
    6CHTO  H159 2290   4.953   5.060   4.134  0.7717  1.5831 -2.5363
    6CHTO   O53 2291   5.101   4.903   4.170  0.4861  0.4641  0.0929
    6CHTO   C82 2292   5.019   4.797   4.213  0.5832  0.4394  0.4921
    6CHTO  H154 2293   4.926   4.809   4.157  1.1983  0.8898 -0.4507
    6CHTO   C89 2294   5.075   4.658   4.179  0.1660  0.2865 -0.4170
    6CHTO   O59 2295   5.098   4.635   4.042  0.2689  0.1256  0.4468
    6CHTO  H137 2296   5.020   4.631   3.990 -0.8504  1.4529  1.9530
    6CHTO   O45 2297   5.158   5.150   4.136  0.3507  0.0184 -0.0503
    6CHTO   C67 2298   5.171   5.154   3.994  0.0482  0.3569 -0.3607
    6CHTO  H124 2299   5.082   5.110   3.949 -0.9688  1.1266  0.8553
    6CHTO   C65 2300   5.183   5.306   3.944 -1.0903  0.5956 -0.0354
    6CHTO  H122 2301   5.103   5.358   3.996 -0.3160  0.4677  1.3009
    6CHTO   O44 2302   5.159   5.309   3.804  0.3773  0.2206  0.0826
    6CHTO  H102 2303   5.157   5.397   3.771  1.1220  0.0863 -0.3451
    6CHTO   C63 2304   5.326   5.355   3.992 -0.1595  0.4252 -0.7493
    6CHTO  H120 2305   5.330   5.324   4.096 -0.8825 -2.6080 -1.5744
    6CHTO   N11 2306   5.347   5.507   3.985 -0.2613  0.2164 -0.0820
    6CHTO  H108 2307   5.360   5.541   3.884 -3.7825  2.1152  0.0297
    6CHTO  H109 2308   5.430   5.535   4.047  1.2714 -3.4717 -0.3042
    6CHTO   C61 2309   5.434   5.268   3.921 -0.2727 -0.0365  0.6540
    6CHTO  H118 2310   5.529   5.293   3.970 -0.3556 -1.7345  1.7384
    6CHTO   O40 2311   5.421   5.132   3.938 -0.1136 -0.0091  0.0958
    6CHTO   C68 2312   5.287   5.074   3.937 -0.5503  0.1144  0.2317
    6CHTO  H125 2313   5.298   4.991   4.009  0.2802 -0.8265 -0.9460
    6CHTO   C72 2314   5.260   5.005   3.799 -0.4893 -0.3982  0.4525
    6CHTO   O48 2315   5.345   4.895   3.781 -0.4429 -0.1229  0.6625
    6CHTO  H105 2316   5.351   4.890   3.688 -4.1179 -2.5536  0.4955
    6CHTO   O38 2317   5.440   5.291   3.777 -0.4403  0.0568  0.6445
    6CHTO   C55 2318   5.566   5.316   3.712  0.1953 -0.2539 -0.0842
    6CHTO  H112 2319   5.644   5.315   3.790 -0.5587 -2.6795  0.6904
    6CHTO   C56 2320   5.559   5.456   3.633 -0.0057 -1.0143  0.3164
    6CHTO  H113 2321   5.466   5.467   3.576  0.1550 -2.3378 -0.2369
    6CHTO   O42 2322   5.550   5.554   3.735 -0.2450 -0.0745 -0.2601
    6CHTO  H100 2323   5.466   5.582   3.766 -0.0706 -0.8828  0.9856
    6CHTO   C57 2324   5.689   5.486   3.548 -0.1526  0.0144 -0.6156
    6CHTO  H114 2325   5.775   5.505   3.613 -0.8435 -2.6087  1.1404
    6CHTO   N10 2326   5.669   5.600   3.451 -0.6344  0.4781 -0.1200
    6CHTO  H106 2327   5.624   5.556   3.364  1.4456 -0.9554 -0.5204
    6CHTO  H107 2328   5.768   5.638   3.430  1.0876 -1.2291  4.2448
    6CHTO   C58 2329   5.721   5.358   3.469 -0.5972  0.1346  0.5081
    6CHTO  H115 2330   5.643   5.338   3.392  1.4572  0.9265 -1.8368
    6CHTO   O37 2331   5.735   5.243   3.558  0.1437 -0.5976 -0.1953
    6CHTO   C59 2332   5.607   5.206   3.616 -0.2529  0.0197 -0.4770
    6CHTO  H116 2333   5.532   5.198   3.538 -0.1188 -1.9538 -0.4306
    6CHTO   C70 2334   5.616   5.065   3.681 -0.0929  0.3391 -0.2472
    6CHTO   O46 2335   5.659   4.968   3.590  0.4269 -0.0325 -0.5444
    6CHTO  H103 2336   5.681   4.890   3.636  1.6107 -0.6953 -2.1502
    6CHTO   O39 2337   5.874   5.380   3.375  0.4633 -0.0294 -0.1789
    6CHTO   C60 2338   5.929   5.271   3.303 -0.8284  1.0699  0.1850
    6CHTO  H117 2339   5.968   5.203   3.380 -0.8318  1.0668  0.1835
    6CHTO   C62 2340   5.832   5.175   3.215 -0.0880  0.4527 -0.1290
    6CHTO  H119 2341   5.755   5.151   3.291  0.1166  3.4882  1.0830
    6CHTO   O43 2342   5.771   5.249   3.108  0.1056 -0.3170 -0.3957
    6CHTO  H101 2343   5.795   5.339   3.111 -0.0262 -0.3455  2.2328
    6CHTO   C66 2344   5.909   5.036   3.169  0.5502 -0.0734 -1.0746
    6CHTO  H123 2345   5.960   4.995   3.256 -1.3271 -0.6278 -0.2264
    6CHTO   N12 2346   5.821   4.925   3.128 -0.0540 -0.8133 -0.2924
    6CHTO  H110 2347   5.760   4.963   3.047 -1.3446  1.6294  1.7782
    6CHTO  H111 2348   5.878   4.836   3.105  0.6987 -0.1002 -1.2121
    6CHTO   C69 2349   6.020   5.064   3.070  0.2811 -0.6237  0.6220
    6CHTO  H126 2350   5.979   5.080   2.968 -1.9483  0.7120  1.6987
    6CHTO   O41 2351   6.117   5.192   3.128  0.1933 -0.6369 -0.0020
    6CHTO   C64 2352   6.045   5.316   3.213  0.0476 -0.3099  0.1952
    6CHTO  H121 2353   5.991   5.387   3.146 -3.2307 -1.4213  1.5672
    6CHTO   C71 2354   6.154   5.390   3.299  0.1852  0.3570 -0.5091
    6CHTO   O47 2355   6.225   5.478   3.215  0.5000 -0.3001 -0.1108
    6CHTO  H104 2356   6.284   5.533   3.263  1.2192  0.4897 -1.8508
    6CHTO   O34 2357   6.112   4.942   3.044  0.3465  0.5555 -0.6546
    6CHTO   C49 2358   6.189   4.824   3.062 -0.2005 -0.0756 -0.3458
    6CHTO   H91 2359   6.116   4.743   3.061  1.7392 -1.9661  2.9662
    6CHTO   C47 2360   6.262   4.833   3.200 -0.9631  0.6592  0.0445
    6CHTO   H89 2361   6.300   4.730   3.213  0.7001  1.1722 -0.5594
    6CHTO   O33 2362   6.173   4.867   3.310 -0.5027  0.2431  0.1553
    6CHTO   H70 2363   6.117   4.796   3.335  0.7913 -0.9167 -0.1818
    6CHTO   C45 2364   6.386   4.944   3.199 -0.6116  0.7303  0.1003
    6CHTO   H87 2365   6.362   5.037   3.253  0.4300  0.9862  0.1258
    6CHTO    N8 2366   6.500   4.881   3.270  0.4482 -0.0223  0.5429
    6CHTO   H75 2367   6.534   4.794   3.215  0.4772  0.2379  0.1517
    6CHTO   H76 2368   6.480   4.868   3.376 -0.5149 -1.0401  0.2440
    6CHTO   C43 2369   6.417   4.984   3.047  0.5004  0.1092  0.3489
    6CHTO   H85 2370   6.337   5.052   3.016  1.1682  0.4118 -0.7479
    6CHTO   O29 2371   6.424   4.871   2.963  0.0737  0.1900  0.1292
    6CHTO   C50 2372   6.295   4.808   2.943 -0.0581 -0.4465 -0.4002
    6CHTO   H92 2373   6.253   4.850   2.850 -2.3644  0.0942  0.8362
    6CHTO   C54 2374   6.319   4.662   2.901  0.7122 -0.5987 -0.1271
    6CHTO   O36 2375   6.392   4.631   2.783 -0.2246 -0.1816  0.1198
    6CHTO   H72 2376   6.333   4.598   2.717  0.2804 -0.6703 -0.0983
    6CHTO   O27 2377   6.535   5.063   3.038 -0.7589 -0.0843  0.0658
    6CHTO   C37 2378   6.581   5.201   3.030  0.4749 -0.8456 -0.6902
    6CHTO   H79 2379   6.672   5.213   2.970  1.9553  0.7770  1.7773
    6CHTO   C38 2380   6.474   5.290   2.968  0.5339 -0.9449 -0.4078
    6CHTO   H80 2381   6.377   5.275   3.018  0.7327  1.5711  0.8645
    6CHTO   O31 2382   6.464   5.254   2.829 -0.1384  0.7674  0.0856
    6CHTO   H68 2383   6.437   5.165   2.815  3.1215 -0.7654  2.7736
    6CHTO   C39 2384   6.502   5.450   2.982  0.3312  0.0279  0.0369
    6CHTO   H81 2385   6.588   5.470   2.918 -0.2014  0.7922 -0.4395
    6CHTO    N7 2386   6.398   5.541   2.939 -0.2217  0.4378  0.3808
    6CHTO   H73 2387   6.316   5.488   2.892 -0.2865  0.7230  0.1693
    6CHTO   H74 2388   6.378   5.626   3.003 -0.3243  0.6769  0.0368
    6CHTO   C40 2389   6.554   5.476   3.136  0.7580  0.8427  0.1781
    6CHTO   H82 2390   6.465   5.463   3.197  1.8712 -1.8477  1.2910
    6CHTO   O26 2391   6.655   5.381   3.175 -0.6653  0.3497 -0.8463
    6CHTO   C41 2392   6.615   5.243   3.176 -0.3663  0.4698  0.0991
    6CHTO   H83 2393   6.532   5.230   3.247 -0.4059  2.2715  0.4001
    6CHTO   C52 2394   6.742   5.164   3.227 -0.8868 -0.1843 -0.0722
    6CHTO   O35 2395   6.851   5.126   3.150  0.6837 -1.0499  0.4375
    6CHTO   H71 2396   6.923   5.182   3.174  0.6724 -0.7385 -0.2178
    6CHTO   O28 2397   6.616   5.607   3.143 -0.3819 -0.1323  0.4365
    6CHTO   C42 2398   6.647   5.680   3.268 -0.0750  0.4836 -0.3636
    6CHTO   H84 2399   6.743   5.724   3.241 -0.6251  0.0822 -3.1679
    6CHTO   C44 2400   6.657   5.598   3.394 -0.0511  0.3711 -0.4209
    6CHTO   H86 2401   6.571   5.532   3.397  1.6120 -1.8449  0.1361
    6CHTO   O32 2402   6.766   5.500   3.380 -0.0637 -0.0478 -0.0539
    6CHTO   H69 2403   6.780   5.490   3.288 -1.8232 -0.5174 -0.2859
    6CHTO   C48 2404   6.666   5.684   3.529  0.4609  0.0775 -0.0008
    6CHTO   H90 2405   6.762   5.737   3.531  0.1659  0.6324 -0.3621
    6CHTO    N9 2406   6.657   5.597   3.645  0.1795  0.2816  0.3318
    6CHTO   H77 2407   6.559   5.555   3.660  1.5722 -3.1814  0.2254
    6CHTO   H78 2408   6.705   5.634   3.735  0.0040 -2.0159  1.3864
    6CHTO   C51 2409   6.557   5.802   3.535  0.5785  0.2806 -0.3300
    6CHTO   H93 2410   6.458   5.757   3.545  0.7139  0.2995  1.3021
    6CHTO   O30 2411   6.566   5.878   3.408 -0.6149 -0.2183 -0.0605
    6CHTO   C46 2412   6.544   5.794   3.283  0.2072  0.0523 -0.5103
    6CHTO   H88 2413   6.453   5.735   3.294  0.7727 -0.7821 -0.3244
    6CHTO   C53 2414   6.546   5.891   3.160 -0.0197  0.0456 -0.0968
    6CHTO   O72 2415   6.677   5.916   3.107 -0.1014  0.6038 -0.3923
    6CHTO  H199 2416   6.670   5.968   3.030  2.5829  1.5839 -0.0566
    6CHTO   O22 2417   6.584   5.887   3.650  0.1179  0.1317  0.1605
    6CHTO   C31 2418   6.487   5.969   3.720  0.2397  0.6726  0.1128
    6CHTO   H59 2419   6.556   6.019   3.792 -2.2392  0.0356  2.9998
    6CHTO   C29 2420   6.419   6.073   3.625  0.3662  0.1064 -0.2538
    6CHTO   H57 2421   6.366   6.028   3.540  0.0350  1.1453 -0.6142
    6CHTO   O21 2422   6.521   6.167   3.584  0.7659 -0.1585  0.1922
    6CHTO   H37 2423   6.577   6.136   3.515  1.5644 -1.0295  1.2263
    6CHTO   C27 2424   6.304   6.155   3.704 -0.6728  0.7709 -0.0380
    6CHTO   H55 2425   6.354   6.223   3.774  0.9323  0.2155 -0.6318
    6CHTO    N5 2426   6.221   6.235   3.610 -0.5843  0.7176  0.2199
    6CHTO   H43 2427   6.136   6.266   3.668 -3.3191 -1.2545 -2.6111
    6CHTO   H44 2428   6.287   6.314   3.576 -0.2441 -0.5963 -2.2600
    6CHTO   C25 2429   6.213   6.049   3.773  0.3237  0.8029  0.4090
    6CHTO   H53 2430   6.179   5.976   3.698 -0.4099 -0.2305  1.7117
    6CHTO   O17 2431   6.288   5.975   3.864  0.0813  0.0064 -0.2132
    6CHTO   C32 2432   6.388   5.881   3.801 -0.8610  0.6169 -0.0493
    6CHTO   H60 2433   6.337   5.808   3.738  0.4693 -0.1655 -0.2197
    6CHTO   C36 2434   6.472   5.807   3.915 -0.3378 -0.1313  0.3084
    6CHTO   O25 2435   6.393   5.768   4.022 -0.0156 -0.2325  0.4954
    6CHTO   H40 2436   6.359   5.846   4.063  0.1005  0.4257 -0.6404
    6CHTO   O15 2437   6.088   6.108   3.847 -0.1148  0.1264  0.2818
    6CHTO   C19 2438   6.038   6.126   3.984  0.5822  0.3628 -0.1634
    6CHTO   H47 2439   5.932   6.097   3.982  0.7382 -0.1784 -1.2785
    6CHTO   C20 2440   6.109   6.033   4.089 -0.2266 -0.4986  0.4807
    6CHTO   H48 2441   6.212   6.067   4.109 -0.5096  0.4604  0.3415
    6CHTO   O19 2442   6.100   5.903   4.027 -0.2103 -0.4368 -0.7058
    6CHTO   H35 2443   6.123   5.835   4.088 -0.5798  0.3813  0.3658
    6CHTO   C21 2444   6.033   6.041   4.233  0.3316 -0.6986 -0.5948
    6CHTO   H49 2445   5.936   5.993   4.224 -0.5407  0.9274 -0.0852
    6CHTO    N4 2446   6.105   5.954   4.333  0.3065 -0.0048 -0.0758
    6CHTO   H41 2447   6.160   6.019   4.399  0.9997 -0.5714 -0.0863
    6CHTO   H42 2448   6.170   5.882   4.287 -1.4801 -1.3087 -0.6311
    6CHTO   C22 2449   6.036   6.192   4.267  0.3526 -0.1818 -0.2098
    6CHTO   H50 2450   6.140   6.219   4.284 -0.3629  2.8684 -0.2072
    6CHTO   O14 2451   5.980   6.277   4.163 -0.3757 -0.1606 -0.3235
    6CHTO   C23 2452   6.043   6.274   4.038  0.4129  0.0671  0.2359
    6CHTO   H51 2453   6.147   6.307   4.053  0.4738  1.1292 -2.3382
    6CHTO   C34 2454   5.952   6.376   3.963  0.3864  0.4701 -0.2137
    6CHTO   O23 2455   5.983   6.391   3.824  0.3435 -0.4033  0.7798
    6CHTO   H38 2456   5.954   6.311   3.784 -0.1871 -1.0380  2.4110
    6CHTO   O16 2457   5.955   6.210   4.390 -0.3225 -0.2386  0.6648
    6CHTO   C24 2458   5.975   6.347   4.465  0.7971 -0.0781 -0.1846
    6CHTO   H52 2459   6.032   6.420   4.408 -0.9442  1.4603  0.0032
    6CHTO   C26 2460   6.059   6.317   4.594 -0.0797 -0.5645  0.0626
    6CHTO   H54 2461   6.007   6.235   4.648  0.3857 -1.2979 -0.6013
    6CHTO   O20 2462   6.184   6.255   4.546  0.2900  0.5949  0.1588
    6CHTO   H36 2463   6.237   6.316   4.498 -1.7880  1.6438 -0.8659
    6CHTO   C30 2464   6.072   6.442   4.680 -0.3787 -0.0141 -0.4250
    6CHTO   H58 2465   6.128   6.517   4.622  0.1950  1.1702  1.6432
    6CHTO    N6 2466   6.164   6.426   4.802 -0.5458  0.2625  0.0371
    6CHTO   H45 2467   6.262   6.402   4.763 -0.9960  1.7988 -2.1332
    6CHTO   H46 2468   6.130   6.346   4.866  1.0428 -1.1906 -0.8935
    6CHTO   C33 2469   5.928   6.494   4.708 -0.2050  0.1643 -0.6211
    6CHTO   H61 2470   5.877   6.409   4.756  1.9807 -0.7360  0.1587
    6CHTO   O18 2471   5.869   6.531   4.589  0.7175 -0.1149 -0.3027
    6CHTO   C28 2472   5.841   6.419   4.504  0.1406 -0.2834  1.0765
    6CHTO   H56 2473   5.765   6.349   4.539 -2.2165  0.4707 -2.2948
    6CHTO   C35 2474   5.757   6.474   4.385  0.7484 -0.7429 -0.8092
    6CHTO   O24 2475   5.842   6.521   4.274 -0.3791  0.4109  0.3053
    6CHTO   H39 2476   5.788   6.552   4.204 -0.1564 -2.9634 -1.4583
    6CHTO    O9 2477   5.925   6.604   4.800  0.7696  0.0939 -0.1151
    6CHTO   C13 2478   5.833   6.594   4.910  0.5017  0.0534  0.0680
    6CHTO   H26 2479   5.827   6.487   4.939 -0.5947  0.2875  0.7638
    6CHTO   C11 2480   5.688   6.651   4.878  0.1456  0.0494  0.5300
    6CHTO   H24 2481   5.656   6.585   4.795  1.0360 -0.4078  0.5473
    6CHTO    O8 2482   5.700   6.791   4.836  0.3245 -0.5350 -0.3005
    6CHTO    H3 2483   5.730   6.833   4.914  0.6732 -1.7847  0.2464
    6CHTO    C9 2484   5.599   6.630   5.001 -0.3685 -0.1753  0.2429
    6CHTO   H22 2485   5.592   6.520   5.006  0.1955 -0.2120  0.2458
    6CHTO    N2 2486   5.453   6.673   4.971  0.4128 -0.2570 -0.6566
    6CHTO   H10 2487   5.416   6.593   4.908  1.8439 -1.4926  0.0109
    6CHTO   H11 2488   5.451   6.768   4.921 -0.7116 -0.5058 -1.0800
    6CHTO    C7 2489   5.670   6.684   5.133  0.2929 -0.1786 -0.5022
    6CHTO   H20 2490   5.686   6.601   5.204 -1.1558  0.0370  0.1002
    6CHTO    O4 2491   5.794   6.747   5.109 -0.3983 -0.0341  0.3551
    6CHTO   C14 2492   5.894   6.663   5.042  0.2063  0.2119 -0.2538
    6CHTO   H27 2493   5.928   6.587   5.115 -0.4795 -0.0473 -0.1945
    6CHTO   C18 2494   6.011   6.764   5.021 -0.3176 -0.0392 -0.2564
    6CHTO   O13 2495   5.975   6.884   4.943 -0.0825 -0.4632  0.3174
    6CHTO    H7 2496   5.913   6.940   4.985 -1.3028 -1.4119 -0.1649
    6CHTO    O2 2497   5.577   6.790   5.218 -0.5665 -0.2203 -0.2576
    6CHTO    C1 2498   5.568   6.770   5.363  0.8123 -0.7862  0.1719
    6CHTO   H14 2499   5.497   6.849   5.395  0.2623 -0.5385 -1.5811
    6CHTO    C2 2500   5.703   6.779   5.446  0.6567  0.0921  0.2902
    6CHTO   H15 2501   5.769   6.700   5.408 -0.3351 -1.3195  1.4512
    6CHTO    O6 2502   5.765   6.903   5.424 -0.2884 -0.5830  0.0713
    6CHTO    H1 2503   5.763   6.930   5.334 -1.1098 -0.9356 -0.0177
    6CHTO    C3 2504   5.674   6.755   5.598  0.2189  0.1669  0.6287
    6CHTO   H16 2505   5.614   6.838   5.640 -2.1371 -0.5981 -1.0753
    6CHTO    N1 2506   5.807   6.744   5.679 -0.3265  0.1126  0.0613
    6CHTO    H8 2507   5.839   6.641   5.691 -0.7081  0.1249  1.2250
    6CHTO    H9 2508   5.784   6.784   5.776  0.1354  1.0481 -0.2075
    6CHTO    C4 2509   5.581   6.625   5.618 -0.3330  0.9983  0.0569
    6CHTO   H17 2510   5.642   6.537   5.598 -0.7203  1.2280 -2.2561
    6CHTO    O1 2511   5.462   6.624   5.536  0.2662  0.7133  0.4913
    6CHTO    C5 2512   5.486   6.634   5.394  0.7244 -0.3075 -0.6786
    6CHTO   H18 2513   5.541   6.544   5.365  2.3694 -0.0470  1.4805
    6CHTO   C16 2514   5.352   6.638   5.321  0.4552 -0.5723 -0.2628
    6CHTO   O11 2515   5.249   6.539   5.356 -0.2202  0.3898 -0.1408
    6CHTO    H5 2516   5.262   6.514   5.445  0.7882 -1.1584 -0.7166
    6CHTO    O3 2517   5.527   6.625   5.751  0.4668  0.0554 -0.3717
    6CHTO    C6 2518   5.493   6.492   5.804  0.7417  0.5535 -0.1823
    6CHTO   H19 2519   5.486   6.422   5.721 -0.9950  2.5390 -1.7635
    6CHTO    C8 2520   5.601   6.435   5.897  0.3424  0.8269 -0.3324
    6CHTO   H21 2521   5.626   6.513   5.968 -2.0088  0.7977  0.5660
    6CHTO    O7 2522   5.713   6.410   5.816  0.0620 -0.6503 -0.1001
    6CHTO    H2 2523   5.705   6.328   5.771  0.7748 -0.2561 -0.9673
    6CHTO   C12 2524   5.553   6.307   5.975  0.2321 -0.4778  0.1992
    6CHTO   H25 2525   5.550   6.223   5.902 -2.2069 -0.4847  0.2648
    6CHTO    N3 2526   5.651   6.262   6.073  0.3096 -0.5804 -0.1608
    6CHTO   H12 2527   5.705   6.178   6.033 -0.2731 -1.1937  0.3382
    6CHTO   H13 2528   5.606   6.228   6.165 -0.1919  4.1595  1.5010
    6CHTO   C15 2529   5.406   6.319   6.030  0.5984  0.0129  0.2567
    6CHTO   H28 2530   5.395   6.379   6.121 -1.6254 -1.3483  0.9186
    6CHTO   O10 2531   5.344   6.196   6.046 -0.3645 -0.1347 -0.3169
    6CHTO    H4 2532   5.394   6.129   6.088  1.0398  0.0299 -1.6845
    6CHTO    O5 2533   5.326   6.362   5.930  0.5278  0.2668 -0.0654
    6CHTO   C10 2534   5.351   6.488   5.871  0.5244 -0.0148  0.2513
    6CHTO   H23 2535   5.350   6.569   5.944  0.6779  0.2169 -0.0037
    6CHTO   C17 2536   5.237   6.504   5.768 -0.1464  0.0506 -0.3649
    6CHTO   O12 2537   5.258   6.431   5.646  0.5432 -0.0774  0.5757
    6CHTO    H6 2538   5.229   6.345   5.667  0.4436  0.4878  2.9162
    7CHTO  H203 2539   5.646   4.029   6.423 -1.4393 -0.7297 -1.3511
    7CHTO   O82 2540   5.693   3.952   6.395 -0.1062 -0.3875 -0.1237
    7CHTO  C123 2541   5.702   3.930   6.255 -0.1816  1.2083 -1.0126
    7CHTO  H227 2542   5.612   3.971   6.206 -1.9391 -2.5819 -1.1430
    7CHTO   O77 2543   5.823   4.009   6.223 -0.0431  0.2387 -0.5838
    7CHTO  C118 2544   5.878   3.997   6.089  0.2905  1.0656  0.6519
    7CHTO  H222 2545   5.811   4.033   6.010  3.3254  1.0675 -2.0469
    7CHTO  C125 2546   6.009   4.071   6.081 -0.0370 -0.0666 -0.0727
    7CHTO   O84 2547   6.011   4.196   6.152  0.1181  0.1289 -0.5338
    7CHTO  H205 2548   6.050   4.262   6.099 -0.7540  0.3446 -0.9047
    7CHTO  C114 2549   5.903   3.850   6.058 -0.2466  0.2901 -0.0021
    7CHTO  H218 2550   5.980   3.811   6.125  0.2011 -1.8002 -1.6803
    7CHTO  C116 2551   5.778   3.755   6.084 -0.3621 -0.3449 -0.9398
    7CHTO  H220 2552   5.703   3.772   6.005 -1.2384 -1.0565 -0.2750
    7CHTO   O79 2553   5.831   3.622   6.063 -0.5362  0.0898 -0.0079
    7CHTO  H201 2554   5.823   3.595   5.973  1.2383  0.5224 -0.3031
    7CHTO  C120 2555   5.717   3.777   6.223  0.5108 -0.5512  0.3390
    7CHTO  H224 2556   5.788   3.728   6.294  1.6019  1.8654  0.9994
    7CHTO   N21 2557   5.591   3.699   6.233  0.0100  0.5903 -0.4154
    7CHTO  H211 2558   5.572   3.674   6.336 -0.6259  0.6739 -0.5100
    7CHTO  H212 2559   5.607   3.614   6.169 -0.3567 -0.6834  1.1464
    7CHTO   O75 2560   5.946   3.845   5.918 -0.1576 -0.6259 -0.5998
    7CHTO  C112 2561   6.107   3.760   5.873  0.3480 -0.1114 -0.6566
    7CHTO  H216 2562   6.089   3.714   5.775  0.0757  1.0230 -1.1471
    7CHTO   O73 2563   6.147   3.669   5.971 -0.3698  0.3768 -0.1164
    7CHTO  C113 2564   6.255   3.586   5.921 -0.1510 -0.0824 -0.2133
    7CHTO  H217 2565   6.222   3.532   5.830  2.0533  0.3085 -1.2989
    7CHTO  C124 2566   6.280   3.476   6.028  0.3287  0.2113  0.0135
    7CHTO   O83 2567   6.351   3.365   5.972 -0.4450 -0.3412  0.2119
    7CHTO  H204 2568   6.429   3.355   6.023 -0.7170  0.3545  0.7698
    7CHTO  C109 2569   6.389   3.663   5.888 -0.1741  0.4661 -0.0741
    7CHTO  H213 2570   6.434   3.691   5.984 -1.1993 -0.1225  0.5933
    7CHTO  C110 2571   6.348   3.791   5.799 -1.0100  1.4577 -0.4183
    7CHTO  H214 2572   6.332   3.754   5.698  0.5763  2.2490 -0.9729
    7CHTO   O78 2573   6.465   3.872   5.810 -0.0345  0.0245 -0.4127
    7CHTO  H200 2574   6.512   3.859   5.730 -0.6314  0.9639 -0.9280
    7CHTO  C111 2575   6.224   3.863   5.859 -0.3059  0.1939 -0.3638
    7CHTO  H215 2576   6.248   3.898   5.960 -0.6051 -2.1872  0.5586
    7CHTO   N19 2577   6.191   3.982   5.786 -0.4632  0.0053  0.1895
    7CHTO  H207 2578   6.156   4.050   5.862 -1.8016  0.2233 -0.5935
    7CHTO  H208 2579   6.282   4.023   5.746 -0.1011 -1.5621 -0.6215
    7CHTO   O74 2580   6.484   3.564   5.825 -0.2177  0.0777  0.1484
    7CHTO  C115 2581   6.636   3.619   5.794 -0.0064  0.0085  0.6121
    7CHTO  H219 2582   6.630   3.718   5.750 -3.4456 -1.0876 -1.5770
    7CHTO   O76 2583   6.710   3.637   5.911  0.1518  0.3014 -0.1639
    7CHTO  C122 2584   6.724   3.519   5.989  0.1045 -0.2272 -0.2388
    7CHTO  H226 2585   6.621   3.511   6.024 -0.1548  0.0128 -0.9512
    7CHTO  C126 2586   6.811   3.543   6.107 -0.2026 -0.4112 -0.5576
    7CHTO   O85 2587   6.956   3.556   6.087  0.4121  0.4201  0.0949
    7CHTO  H206 2588   6.972   3.642   6.052  1.5419  0.6581  1.1381
    7CHTO  C121 2589   6.762   3.390   5.903  0.2442  0.2020  0.5838
    7CHTO  H225 2590   6.843   3.331   5.952 -1.2004 -0.4403  2.2569
    7CHTO   O81 2591   6.652   3.302   5.897 -0.3895  0.0299 -0.1518
    7CHTO  H202 2592   6.591   3.316   5.827  0.1539 -0.6812 -0.7717
    7CHTO  C119 2593   6.815   3.428   5.758 -0.3502 -0.0443 -0.0890
    7CHTO  H223 2594   6.900   3.492   5.784 -0.5351  1.6215 -3.3047
    7CHTO  C117 2595   6.724   3.531   5.684  0.5680 -0.7542  0.0503
    7CHTO  H221 2596   6.645   3.479   5.630  0.0084  0.7343 -0.5939
    7CHTO   N20 2597   6.804   3.608   5.576  0.2342 -0.8786  0.2827
    7CHTO  H209 2598   6.846   3.690   5.633  0.6952 -1.3795  0.6648
    7CHTO  H210 2599   6.742   3.664   5.507  3.6878  3.9633  0.8285
    7CHTO   O80 2600   6.889   3.309   5.680 -0.5265 -0.0813  0.4002
    7CHTO  C103 2601   7.029   3.244   5.740 -0.6111  0.3640  0.0475
    7CHTO  H190 2602   7.085   3.219   5.650 -0.3719  1.7273 -0.2044
    7CHTO  C101 2603   7.126   3.331   5.832 -0.4843  0.1694 -0.4403
    7CHTO  H188 2604   7.075   3.365   5.923 -0.7765  1.2554 -0.9961
    7CHTO   O68 2605   7.163   3.449   5.766 -0.1283 -0.3098 -0.1408
    7CHTO  H168 2606   7.253   3.450   5.737 -0.1794  0.7792 -0.3120
    7CHTO   C99 2607   7.235   3.225   5.881 -0.5066 -0.1538 -0.1620
    7CHTO  H186 2608   7.300   3.189   5.800 -1.0114 -1.1461 -0.1330
    7CHTO   N17 2609   7.330   3.287   5.981  0.3511 -0.1653  0.2410
    7CHTO  H174 2610   7.382   3.214   6.041 -1.1435  0.4159  2.3127
    7CHTO  H175 2611   7.281   3.345   6.058 -2.0350 -1.2396 -0.4408
    7CHTO   C97 2612   7.160   3.101   5.945 -0.5497 -0.2368  0.0364
    7CHTO  H184 2613   7.099   3.137   6.029  0.6612 -1.0928  1.3040
    7CHTO   O64 2614   7.084   3.030   5.849 -0.8026 -0.4152 -0.5916
    7CHTO  C104 2615   6.977   3.114   5.809 -1.0642 -0.5245 -0.6576
    7CHTO  H191 2616   6.920   3.142   5.898 -1.2209 -1.6308 -0.4033
    7CHTO  C108 2617   6.882   3.030   5.718  0.0686  0.5632 -0.1628
    7CHTO   O71 2618   6.801   2.949   5.798 -0.1224 -0.2323 -0.0720
    7CHTO  H171 2619   6.745   2.897   5.744 -0.1800 -1.0092  0.7168
    7CHTO   O62 2620   7.245   2.993   5.987  0.0512  0.0117  0.0378
    7CHTO   C91 2621   7.207   2.931   6.109  0.0822 -0.6615  0.5024
    7CHTO  H178 2622   7.221   3.003   6.190  1.6015 -1.5228  1.0332
    7CHTO   C92 2623   7.317   2.816   6.138  0.4138 -1.0858  0.0941
    7CHTO  H179 2624   7.412   2.855   6.100  0.2398 -1.6375 -0.9255
    7CHTO   O66 2625   7.331   2.805   6.279 -0.0074  0.0515 -0.5997
    7CHTO  H166 2626   7.376   2.882   6.310  0.4578  0.0470 -1.2485
    7CHTO   C93 2627   7.265   2.666   6.093  0.3194  0.3088  0.6354
    7CHTO  H180 2628   7.336   2.598   6.142  0.5875  0.2357  0.1473
    7CHTO   N16 2629   7.266   2.639   5.949  0.5286  0.4806 -0.1898
    7CHTO  H172 2630   7.191   2.565   5.926  1.5424  0.0275 -2.1467
    7CHTO  H173 2631   7.361   2.590   5.935  0.7498  1.0789 -0.8341
    7CHTO   C94 2632   7.121   2.637   6.153  0.3034 -0.4802  0.3954
    7CHTO  H181 2633   7.055   2.586   6.083 -0.1235  0.9033 -0.2222
    7CHTO   O61 2634   7.050   2.757   6.191 -0.0889 -0.2423 -0.2166
    7CHTO   C95 2635   7.062   2.871   6.107  0.0989 -0.3227  0.0266
    7CHTO  H182 2636   7.039   2.850   6.003 -2.2023 -0.3993  0.5260
    7CHTO  C106 2637   6.960   2.972   6.164 -0.3489 -0.2376  0.0573
    7CHTO   O69 2638   6.819   2.934   6.163 -0.0353  0.2619  0.2090
    7CHTO  H169 2639   6.782   3.011   6.124 -1.6030 -0.0951  0.9653
    7CHTO   O63 2640   7.143   2.562   6.276 -0.4815 -0.2755 -0.0535
    7CHTO   C96 2641   7.071   2.422   6.275 -0.4656  0.1062 -0.2080
    7CHTO  H183 2642   7.006   2.410   6.189  0.7503 -0.9010 -0.9985
    7CHTO   C98 2643   6.980   2.384   6.396 -0.3156  0.5904  0.0458
    7CHTO  H185 2644   6.909   2.467   6.411  0.0955  0.9791 -0.1436
    7CHTO   O67 2645   6.903   2.266   6.369  0.8193 -0.1824 -0.4159
    7CHTO  H167 2646   6.952   2.187   6.356 -0.1947 -1.3573  2.5867
    7CHTO  C102 2647   7.069   2.346   6.532 -0.2086  0.0753  0.2337
    7CHTO  H189 2648   6.999   2.286   6.592 -1.9287  1.4347 -0.3845
    7CHTO   N18 2649   7.120   2.464   6.614 -0.1535  0.0237 -0.5901
    7CHTO  H176 2650   7.042   2.537   6.633  1.1664  1.1834  0.4690
    7CHTO  H177 2651   7.213   2.509   6.582 -0.0290 -0.6313 -1.1530
    7CHTO  C105 2652   7.188   2.255   6.488 -0.2484 -0.3806  0.0265
    7CHTO  H192 2653   7.282   2.311   6.496 -0.2532 -0.2868 -0.5128
    7CHTO   O65 2654   7.186   2.205   6.348 -0.1576  0.1130  0.6269
    7CHTO  C100 2655   7.190   2.321   6.252 -0.4441  0.8060 -0.2786
    7CHTO  H187 2656   7.291   2.362   6.264 -0.1607 -0.3495  1.4689
    7CHTO  C107 2657   7.192   2.270   6.107 -0.0687  0.2599  0.5807
    7CHTO   O70 2658   7.327   2.225   6.085  0.0197  0.0868 -0.1785
    7CHTO  H170 2659   7.346   2.142   6.124  1.3342  1.5574  2.3858
    7CHTO   O57 2660   7.199   2.136   6.603 -0.3376 -0.3709  0.1735
    7CHTO   C85 2661   7.314   2.045   6.602 -0.8200  0.0121 -0.5935
    7CHTO  H157 2662   7.384   2.089   6.529  1.6165 -0.6271  1.2835
    7CHTO   C83 2663   7.282   1.903   6.549  0.2679 -0.5059  0.4171
    7CHTO  H155 2664   7.238   1.914   6.449 -1.0598 -0.2654  1.0139
    7CHTO   O56 2665   7.184   1.844   6.636 -0.4471  0.2190 -0.3798
    7CHTO  H135 2666   7.210   1.852   6.725  2.0542  0.0629 -1.0411
    7CHTO   C81 2667   7.415   1.825   6.540  0.2148 -0.1755 -0.9449
    7CHTO  H153 2668   7.485   1.886   6.483  1.5124  1.3770  2.1210
    7CHTO   N14 2669   7.395   1.696   6.472 -0.1253 -0.2488 -0.6743
    7CHTO  H141 2670   7.411   1.602   6.520 -1.2521 -0.6289 -1.0496
    7CHTO  H142 2671   7.441   1.694   6.375  0.8150  2.2023 -0.3073
    7CHTO   C79 2672   7.477   1.811   6.684 -0.3113 -0.0248 -0.6349
    7CHTO  H151 2673   7.576   1.767   6.674 -0.6649 -0.9964  0.0345
    7CHTO   O52 2674   7.494   1.942   6.752  0.5375 -0.0956 -0.0973
    7CHTO   C86 2675   7.382   2.036   6.746  0.1148 -0.4728  0.1995
    7CHTO  H158 2676   7.302   2.010   6.819 -1.4255  3.0751 -0.0881
    7CHTO   C90 2677   7.428   2.175   6.794 -0.8569 -0.1470  0.5188
    7CHTO   O60 2678   7.554   2.220   6.750 -0.0388 -0.5476  0.2304
    7CHTO  H138 2679   7.568   2.207   6.658  0.2395  1.4439 -0.0341
    7CHTO   O50 2680   7.412   1.733   6.793  0.0686 -0.5699  0.1055
    7CHTO   C73 2681   7.354   1.605   6.828 -0.3827  0.0810 -0.1287
    7CHTO  H145 2682   7.409   1.525   6.776  0.6172 -1.1358  2.7180
    7CHTO   C74 2683   7.205   1.574   6.794 -0.1452 -0.2837  0.5293
    7CHTO  H146 2684   7.188   1.584   6.686  2.2722 -2.8779 -0.1682
    7CHTO   O54 2685   7.188   1.429   6.820 -0.1120 -0.3041 -0.2434
    7CHTO  H133 2686   7.262   1.373   6.808  0.1710  0.1147 -0.4709
    7CHTO   C75 2687   7.105   1.663   6.886  0.5083 -0.3803  0.1115
    7CHTO  H147 2688   7.122   1.769   6.861 -1.6589 -0.6851 -2.8766
    7CHTO   N13 2689   6.961   1.633   6.869  0.2616  0.4774  0.0372
    7CHTO  H139 2690   6.903   1.671   6.952 -0.2195  0.8409 -0.4642
    7CHTO  H140 2691   6.950   1.526   6.869 -2.8923  0.7224  2.7448
    7CHTO   C76 2692   7.146   1.666   7.039 -0.5166 -0.3765 -0.7366
    7CHTO  H148 2693   7.112   1.571   7.080 -2.1068  0.5150  0.0337
    7CHTO   O49 2694   7.289   1.677   7.055  0.1404  0.2203  0.8364
    7CHTO   C77 2695   7.371   1.582   6.984 -0.1313  0.4848  0.3694
    7CHTO  H149 2696   7.338   1.484   7.017  1.6053  0.1936  1.3374
    7CHTO   C88 2697   7.513   1.605   7.028 -0.1980 -0.2431 -0.4756
    7CHTO   O58 2698   7.548   1.632   7.179  0.4842 -0.1310  0.3080
    7CHTO  H136 2699   7.630   1.677   7.189  0.6907 -1.1273  3.7266
    7CHTO   O51 2700   7.076   1.780   7.107 -0.4707 -0.5728  0.0559
    7CHTO   C78 2701   7.125   1.821   7.255 -0.1031 -0.0612  0.2114
    7CHTO  H150 2702   7.234   1.801   7.262  0.1581  0.7577 -1.3504
    7CHTO   C80 2703   7.056   1.736   7.366 -0.4283 -0.2709  0.5865
    7CHTO  H152 2704   6.947   1.744   7.351 -0.5316  1.4570  2.0760
    7CHTO   O55 2705   7.084   1.598   7.347  0.2255  0.2451 -0.6735
    7CHTO  H134 2706   7.128   1.572   7.426  0.6921  0.0911 -0.9904
    7CHTO   C84 2707   7.083   1.798   7.513 -0.2540  0.5275 -0.3804
    7CHTO  H156 2708   7.188   1.778   7.537  0.2496  2.3910 -0.9650
    7CHTO   N15 2709   7.002   1.729   7.622  0.3107  0.0738  0.0255
    7CHTO  H143 2710   6.954   1.784   7.699 -1.0588 -0.6052 -0.3138
    7CHTO  H144 2711   7.047   1.640   7.660 -0.9635 -1.1793 -1.3015
    7CHTO   C87 2712   7.073   1.955   7.511  0.0946  0.0526 -0.1614
    7CHTO  H159 2713   6.966   1.978   7.510  0.1414  0.3276  0.9330
    7CHTO   O53 2714   7.155   2.017   7.395 -0.1456 -0.0303  0.3127
    7CHTO   C82 2715   7.098   1.970   7.272  0.7159 -0.1640 -0.4211
    7CHTO  H154 2716   6.991   1.992   7.275  1.1039  1.9617 -1.0177
    7CHTO   C89 2717   7.159   2.051   7.154  0.5928 -0.3866  0.5458
    7CHTO   O59 2718   7.298   2.039   7.144  0.1190 -0.0579 -0.1440
    7CHTO  H137 2719   7.332   1.954   7.165  1.9707  1.1869  2.1823
    7CHTO   O45 2720   7.134   2.007   7.641 -0.1987 -0.3867 -0.1645
    7CHTO   C67 2721   7.082   2.138   7.677 -0.0929 -0.5379 -0.4075
    7CHTO  H124 2722   7.077   2.195   7.584  1.0180  2.2289  1.1881
    7CHTO   C65 2723   6.941   2.136   7.751 -0.2189  0.1474 -0.3493
    7CHTO  H122 2724   6.926   2.035   7.789 -0.7513  0.5549  0.5417
    7CHTO   O44 2725   6.849   2.153   7.642  0.2886 -0.0296  0.1346
    7CHTO  H102 2726   6.780   2.216   7.642 -0.2283 -0.5392  2.6765
    7CHTO   C63 2727   6.937   2.232   7.871  0.4228  0.4955  0.6410
    7CHTO  H120 2728   6.993   2.185   7.951  0.5809  0.1022  0.3025
    7CHTO   N11 2729   6.797   2.231   7.922  0.1329 -0.9921  0.8377
    7CHTO  H108 2730   6.808   2.275   8.019  0.3002 -1.5132  1.0555
    7CHTO  H109 2731   6.765   2.129   7.912  1.7682 -1.1296 -3.7489
    7CHTO   C61 2732   7.007   2.364   7.838 -0.6257  0.0922 -0.2879
    7CHTO  H118 2733   6.999   2.444   7.913 -0.5464  1.3776 -1.6100
    7CHTO   O40 2734   7.146   2.341   7.815 -0.2995  0.5077  0.1979
    7CHTO   C68 2735   7.191   2.210   7.763 -0.2043 -0.7568  0.3863
    7CHTO  H125 2736   7.230   2.149   7.848  1.5896 -0.1120  0.0411
    7CHTO   C72 2737   7.315   2.246   7.672  0.4166  0.2576 -0.3498
    7CHTO   O48 2738   7.377   2.132   7.605 -0.0760 -0.4094 -0.5466
    7CHTO  H105 2739   7.470   2.137   7.613 -0.1935 -0.2473  0.8994
    7CHTO   O38 2740   6.971   2.427   7.705 -0.4805  0.8422  0.1509
    7CHTO   C55 2741   6.877   2.534   7.707  0.2674 -0.2747  0.1354
    7CHTO  H112 2742   6.827   2.550   7.804 -2.0032 -2.9529 -0.5314
    7CHTO   C56 2743   6.769   2.513   7.590  0.1390  0.1323  0.0073
    7CHTO  H113 2744   6.819   2.486   7.496 -0.9007  2.8036 -1.3608
    7CHTO   O42 2745   6.700   2.394   7.630 -0.3213 -0.6133  0.3182
    7CHTO  H100 2746   6.655   2.396   7.712 -1.4097 -1.3575 -0.2457
    7CHTO   C57 2747   6.668   2.641   7.583 -0.2175 -0.4325 -0.1393
    7CHTO  H114 2748   6.640   2.651   7.688  0.3565  0.9993 -0.1066
    7CHTO   N10 2749   6.562   2.624   7.480  0.3941 -0.1986  0.7270
    7CHTO  H106 2750   6.479   2.574   7.527 -0.7711 -1.6003 -2.6754
    7CHTO  H107 2751   6.526   2.720   7.447  0.5984 -0.6274 -0.7477
    7CHTO   C58 2752   6.767   2.762   7.547 -0.4848  0.6479  0.4057
    7CHTO  H115 2753   6.825   2.737   7.457 -1.8288 -1.9481  0.2137
    7CHTO   O37 2754   6.861   2.773   7.655 -0.0406  0.4776 -0.4642
    7CHTO   C59 2755   6.954   2.663   7.679 -0.2637  0.3450 -0.1126
    7CHTO  H116 2756   7.011   2.645   7.587 -1.1848  1.8403 -1.0110
    7CHTO   C70 2757   7.043   2.705   7.800  0.4830 -1.4251  0.3178
    7CHTO   O46 2758   6.977   2.720   7.930  0.0783  0.6385  0.0248
    7CHTO  H103 2759   6.960   2.636   7.970  0.4197  0.7106  0.3257
    7CHTO   O39 2760   6.705   2.900   7.520  0.0560  0.9155  0.4425
    7CHTO   C60 2761   6.758   2.965   7.409 -0.0409  1.1880  0.7007
    7CHTO  H117 2762   6.848   2.910   7.380 -2.3740 -2.4977  0.1113
    7CHTO   C62 2763   6.665   2.960   7.280 -0.3937 -0.0767  0.7184
    7CHTO  H119 2764   6.659   2.853   7.253 -0.9417 -0.0291  0.6481
    7CHTO   O43 2765   6.537   3.013   7.322  0.0015  0.2731  0.0104
    7CHTO  H101 2766   6.462   2.998   7.269 -1.5888 -1.0516  2.5239
    7CHTO   C66 2767   6.731   3.042   7.159  0.3886  0.6366  0.4268
    7CHTO  H123 2768   6.815   2.982   7.125 -0.4784 -0.1662 -0.3417
    7CHTO   N12 2769   6.643   3.055   7.040 -0.4607  0.0674 -0.2409
    7CHTO  H110 2770   6.708   3.103   6.969 -3.3718  1.4213 -2.1021
    7CHTO  H111 2771   6.555   3.111   7.069 -1.3863 -2.2962  1.6352
    7CHTO   C69 2772   6.768   3.185   7.215  0.0590  0.4798 -0.1701
    7CHTO  H126 2773   6.675   3.237   7.246  0.2979  0.2145  0.9944
    7CHTO   O41 2774   6.860   3.179   7.342 -0.3140 -0.2061  0.4387
    7CHTO   C64 2775   6.799   3.106   7.443  0.1725 -0.1591  0.2832
    7CHTO  H121 2776   6.709   3.161   7.478  0.0517  0.1058 -0.4464
    7CHTO   C71 2777   6.900   3.117   7.555  0.3586  1.2563  0.4176
    7CHTO   O47 2778   6.872   3.225   7.642  0.0759  0.3703 -0.4150
    7CHTO  H104 2779   6.850   3.303   7.596 -1.3720 -1.0993 -2.3046
    7CHTO   O34 2780   6.831   3.270   7.105  0.0608 -0.3055 -0.1895
    7CHTO   C49 2781   6.939   3.379   7.063 -0.7439  0.0329 -0.1955
    7CHTO   H91 2782   6.874   3.466   7.049  0.1798  0.6002 -0.9889
    7CHTO   C47 2783   7.000   3.330   6.934 -0.0262  0.3942 -0.2779
    7CHTO   H89 2784   7.067   3.413   6.904 -0.7611  0.3614 -2.0569
    7CHTO   O33 2785   6.898   3.310   6.830 -0.0419  0.5597 -0.5247
    7CHTO   H70 2786   6.842   3.235   6.842  0.2304  0.4430  0.0448
    7CHTO   C45 2787   7.095   3.197   6.959 -0.1897  0.2577 -0.6724
    7CHTO   H87 2788   7.041   3.101   6.954  2.8729 -1.5419 -0.6297
    7CHTO    N8 2789   7.206   3.193   6.860  0.4315 -0.1290 -0.3687
    7CHTO   H75 2790   7.240   3.091   6.848 -0.5391 -0.4063 -0.7964
    7CHTO   H76 2791   7.281   3.266   6.885 -0.6233  2.2696 -3.8111
    7CHTO   C43 2792   7.140   3.191   7.112 -0.1909  0.2808  0.0854
    7CHTO   H85 2793   7.056   3.144   7.163 -0.7080  0.5137 -0.5496
    7CHTO   O29 2794   7.168   3.322   7.163 -0.3575 -0.4866  0.3460
    7CHTO   C50 2795   7.058   3.410   7.167 -0.4772  0.3448  0.5809
    7CHTO   H92 2796   7.023   3.410   7.271 -1.6251 -0.3301  0.2056
    7CHTO   C54 2797   7.099   3.562   7.151  0.5163  0.5691 -0.3743
    7CHTO   O36 2798   7.191   3.610   7.250 -0.1358  0.5482 -0.2653
    7CHTO   H72 2799   7.260   3.547   7.248 -1.1939 -0.6098 -1.7808
    7CHTO   O27 2800   7.246   3.095   7.140 -0.0996 -0.5075 -0.5413
    7CHTO   C37 2801   7.356   3.052   7.231 -0.0534 -0.0913  0.4994
    7CHTO   H79 2802   7.400   3.124   7.302  1.2359  0.0274 -0.4020
    7CHTO   C38 2803   7.304   2.939   7.325 -0.6225 -0.4776  0.3961
    7CHTO   H80 2804   7.259   2.858   7.266  1.9961  0.4932 -3.0504
    7CHTO   O31 2805   7.199   2.994   7.410  0.5552  0.4869 -0.3226
    7CHTO   H68 2806   7.194   2.935   7.482 -1.5341  2.1977  1.0356
    7CHTO   C39 2807   7.423   2.879   7.406 -0.9870  0.3869 -0.6188
    7CHTO   H81 2808   7.448   2.953   7.482 -1.8991  1.9157 -1.7919
    7CHTO    N7 2809   7.381   2.759   7.487 -0.2329  0.1928 -0.0617
    7CHTO   H73 2810   7.457   2.724   7.555 -1.2045  1.0035  1.4865
    7CHTO   H74 2811   7.358   2.674   7.425 -2.3669  0.1208  0.7741
    7CHTO   C40 2812   7.549   2.848   7.322 -0.0961 -0.0921 -1.0556
    7CHTO   H82 2813   7.533   2.759   7.261 -1.1919 -0.5034 -0.1871
    7CHTO   O26 2814   7.575   2.965   7.241  0.1430 -0.0885 -0.4316
    7CHTO   C41 2815   7.472   3.000   7.145 -0.0404 -0.1284  0.3019
    7CHTO   H83 2816   7.439   2.907   7.096  0.1405 -0.3680  0.6328
    7CHTO   C52 2817   7.532   3.100   7.039  0.7453  0.1124 -0.3764
    7CHTO   O35 2818   7.576   3.240   7.108  0.6582  0.6057 -0.8290
    7CHTO   H71 2819   7.646   3.232   7.170  0.0990  1.7532 -0.0339
    7CHTO   O28 2820   7.662   2.802   7.401 -0.2705 -0.0441  0.1233
    7CHTO   C42 2821   7.790   2.772   7.338 -0.0872 -0.4585 -0.0464
    7CHTO   H84 2822   7.847   2.741   7.426  0.4153 -3.0774 -1.2742
    7CHTO   C44 2823   7.873   2.888   7.279 -0.0550 -0.1589 -0.3565
    7CHTO   H86 2824   7.817   2.928   7.194  2.1770 -0.1474 -1.8694
    7CHTO   O32 2825   7.873   2.991   7.382 -0.3594 -0.3309 -0.1907
    7CHTO   H69 2826   7.910   2.955   7.460 -1.2835  0.2131  0.5095
    7CHTO   C48 2827   8.011   2.851   7.228 -0.5882  0.2297  0.4589
    7CHTO   H90 2828   8.070   2.817   7.313 -0.7412 -0.7144  0.1872
    7CHTO    N9 2829   8.089   2.963   7.169  0.3005 -0.4280 -0.5011
    7CHTO   H77 2830   8.087   2.990   7.065 -3.0837 -0.5309 -0.5058
    7CHTO   H78 2831   8.075   3.050   7.231 -1.7185 -3.9542  4.3177
    7CHTO   C51 2832   7.992   2.739   7.125 -0.3067 -0.3389  0.5368
    7CHTO   H93 2833   7.924   2.776   7.050 -1.5740 -1.0044  1.3378
    7CHTO   O30 2834   7.929   2.634   7.205 -0.1219  0.3770  0.2229
    7CHTO   C46 2835   7.796   2.653   7.237  0.1714  0.1087  0.7251
    7CHTO   H88 2836   7.736   2.684   7.152  0.8183 -4.0553 -1.3775
    7CHTO   C53 2837   7.751   2.525   7.299  0.1269 -0.3472  0.3666
    7CHTO   O72 2838   7.611   2.524   7.325 -0.5383  0.3377 -0.0492
    7CHTO  H199 2839   7.582   2.575   7.398 -2.0686 -0.8209  0.1757
    7CHTO   O22 2840   8.106   2.676   7.072  0.2991 -0.1532  0.4183
    7CHTO   C31 2841   8.110   2.584   6.950 -0.1070 -0.2712  0.3663
    7CHTO   H59 2842   8.204   2.525   6.955 -0.1989 -0.4729 -0.2402
    7CHTO   C29 2843   7.999   2.473   6.940 -0.5080 -0.1216  0.2260
    7CHTO   H57 2844   7.899   2.515   6.957 -0.7114 -0.5280  0.0695
    7CHTO   O21 2845   8.017   2.398   7.057  0.0463 -0.1497  0.5606
    7CHTO   H37 2846   7.943   2.341   7.064 -1.1829  0.6155 -4.2009
    7CHTO   C27 2847   8.013   2.381   6.813 -0.4881  0.5489  0.4416
    7CHTO   H55 2848   8.108   2.326   6.820 -1.1818 -0.7031  0.1205
    7CHTO    N5 2849   7.900   2.285   6.804 -0.6825 -0.0713 -0.6384
    7CHTO   H43 2850   7.843   2.290   6.713 -0.0711  0.7109 -0.9814
    7CHTO   H44 2851   7.929   2.183   6.824  1.7332  0.5982 -0.5166
    7CHTO   C25 2852   8.028   2.473   6.682 -0.1043 -0.1053  0.0613
    7CHTO   H53 2853   7.933   2.528   6.666 -0.1672 -0.1533  0.2775
    7CHTO   O17 2854   8.135   2.569   6.704  0.1990 -0.2123 -0.5188
    7CHTO   C32 2855   8.111   2.664   6.813  0.0477 -0.9942 -0.0106
    7CHTO   H60 2856   8.015   2.713   6.802  0.5496  0.1886  0.7164
    7CHTO   C36 2857   8.220   2.767   6.803 -0.2155  0.1887  0.5662
    7CHTO   O25 2858   8.205   2.825   6.676 -0.3481  0.1112 -0.2450
    7CHTO   H40 2859   8.139   2.890   6.686 -0.9038 -0.2570 -1.4918
    7CHTO   O15 2860   8.064   2.395   6.560  0.3700  0.4999  0.2879
    7CHTO   C19 2861   8.017   2.434   6.423  0.2151  0.0421  0.0636
    7CHTO   H47 2862   8.059   2.358   6.355 -0.6991  1.1350 -1.7919
    7CHTO   C20 2863   7.861   2.442   6.409 -0.1587 -0.3104 -0.1881
    7CHTO   H48 2864   7.815   2.503   6.487 -0.5977 -0.2826 -0.4649
    7CHTO   O19 2865   7.803   2.311   6.416  0.1916 -0.6629 -1.0420
    7CHTO   H35 2866   7.789   2.276   6.329 -0.7398 -0.1971 -1.0865
    7CHTO   C21 2867   7.822   2.508   6.269  0.2559  0.0318  0.1137
    7CHTO   H49 2868   7.829   2.441   6.183  2.0158  1.3352 -0.7795
    7CHTO    N4 2869   7.674   2.530   6.268  0.2951  0.6677 -0.7399
    7CHTO   H41 2870   7.632   2.607   6.331 -1.2762 -0.1752 -0.7364
    7CHTO   H42 2871   7.618   2.438   6.275 -0.5159  1.0983 -1.4338
    7CHTO   C22 2872   7.898   2.638   6.236  0.4419 -0.5310  0.4794
    7CHTO   H50 2873   7.874   2.715   6.310 -2.2303  0.6156 -1.5068
    7CHTO   O14 2874   8.037   2.616   6.248 -0.3604 -0.4440 -0.0679
    7CHTO   C23 2875   8.079   2.576   6.376 -0.0680 -0.0356 -1.0990
    7CHTO   H51 2876   8.044   2.659   6.440  2.2474  1.8729 -2.2259
    7CHTO   C34 2877   8.230   2.575   6.386  0.0492 -0.2020 -0.0986
    7CHTO   O23 2878   8.277   2.713   6.381 -0.3300 -0.1206  0.0238
    7CHTO   H38 2879   8.235   2.766   6.446  0.6264  0.6300  0.0246
    7CHTO   O16 2880   7.879   2.691   6.102  0.2672  0.2723  0.2774
    7CHTO   C24 2881   7.834   2.856   6.102 -0.8022  0.1309  0.1496
    7CHTO   H52 2882   7.788   2.887   6.196 -2.4262  1.7338 -1.1401
    7CHTO   C26 2883   7.733   2.871   5.986  0.1487  0.2106  0.3384
    7CHTO   H54 2884   7.792   2.839   5.898 -0.0367  1.3761 -0.2158
    7CHTO   O20 2885   7.620   2.779   5.997 -0.6880  0.1955  0.7196
    7CHTO   H36 2886   7.573   2.777   5.916 -0.2929  0.0725  0.4895
    7CHTO   C30 2887   7.677   3.019   5.967  0.9775  0.7659 -0.8918
    7CHTO   H58 2888   7.609   3.047   6.049  1.4857  0.6529 -0.4297
    7CHTO    N6 2889   7.593   3.031   5.844 -0.4127 -0.1472  0.5799
    7CHTO   H45 2890   7.488   3.052   5.859 -0.0284  0.0117  3.3028
    7CHTO   H46 2891   7.606   2.943   5.782  2.0000 -0.4373  1.4583
    7CHTO   C33 2892   7.789   3.124   5.975  0.3524 -0.3376 -0.2738
    7CHTO   H61 2893   7.838   3.141   5.878  1.6744  0.6233  0.5360
    7CHTO   O18 2894   7.889   3.085   6.068  0.2982  0.4168 -0.6868
    7CHTO   C28 2895   7.942   2.956   6.073 -0.8979  0.0288 -0.2455
    7CHTO   H56 2896   7.995   2.927   5.982  0.6618  0.9422  0.3571
    7CHTO   C35 2897   8.057   2.958   6.174 -0.7614  0.1775 -0.5431
    7CHTO   O24 2898   8.019   2.971   6.313 -0.0499 -0.0198 -0.0965
    7CHTO   H39 2899   8.074   2.919   6.369 -0.2783 -1.6817 -1.3778
    7CHTO    O9 2900   7.736   3.253   6.002 -0.1433  0.5721 -0.1000
    7CHTO   C13 2901   7.856   3.367   6.024  0.5166 -0.1368 -0.1548
    7CHTO   H26 2902   7.942   3.341   5.958 -0.8423  0.0863 -2.0233
    7CHTO   C11 2903   7.901   3.376   6.174  0.0551 -0.3422 -1.0571
    7CHTO   H24 2904   7.958   3.288   6.206  2.2161  1.2784 -0.3194
    7CHTO    O8 2905   7.786   3.380   6.257  0.2097 -0.5634  0.0730
    7CHTO    H3 2906   7.813   3.390   6.346 -0.2207 -1.6749  0.3375
    7CHTO    C9 2907   7.993   3.497   6.188 -0.1951  0.0089  0.2969
    7CHTO   H22 2908   8.064   3.484   6.104  1.0313  1.4461  1.0903
    7CHTO    N2 2909   8.075   3.507   6.310 -0.4613 -0.0205 -0.1748
    7CHTO   H10 2910   8.017   3.466   6.391 -0.4688  0.6549  0.1677
    7CHTO   H11 2911   8.171   3.458   6.301  0.5000  1.5067  1.4423
    7CHTO    C7 2912   7.916   3.623   6.144 -0.4971 -0.6350  0.2597
    7CHTO   H20 2913   7.988   3.705   6.162 -1.2369 -0.2683  1.6191
    7CHTO    O4 2914   7.878   3.617   6.008  0.0728 -0.2373  0.4950
    7CHTO   C14 2915   7.802   3.501   5.966  0.2868  0.1889  0.3952
    7CHTO   H27 2916   7.813   3.485   5.857  1.0539 -0.3147  0.5448
    7CHTO   C18 2917   7.650   3.525   5.994  0.4930  0.1197 -0.4703
    7CHTO   O13 2918   7.605   3.629   5.913  0.3681 -0.4825  0.4192
    7CHTO    H7 2919   7.634   3.714   5.939 -1.6147 -0.6265  3.2605
    7CHTO    O2 2920   7.781   3.675   6.257 -0.0809 -0.6548 -0.2653
    7CHTO    C1 2921   7.790   3.812   6.304 -0.2772 -0.1361 -0.1739
    7CHTO   H14 2922   7.875   3.860   6.250 -2.5287  1.3938 -2.4732
    7CHTO    C2 2923   7.815   3.820   6.455  0.2262  0.0860 -0.3169
    7CHTO   H15 2924   7.771   3.735   6.509  0.0867  2.0873  2.8074
    7CHTO    O6 2925   7.958   3.802   6.473  0.0650 -0.2385  0.7108
    7CHTO    H1 2926   7.987   3.741   6.409 -0.7360  0.5431 -0.4086
    7CHTO    C3 2927   7.774   3.959   6.529 -0.7339 -0.0336  0.4139
    7CHTO   H16 2928   7.857   4.023   6.496 -0.0083  0.1593  2.4995
    7CHTO    N1 2929   7.774   3.949   6.684 -0.0261  0.1149 -0.0056
    7CHTO    H8 2930   7.679   3.988   6.715  0.2292  0.3347  0.4985
    7CHTO    H9 2931   7.782   3.847   6.720 -0.2735  0.5036  1.1470
    7CHTO    C4 2932   7.643   4.019   6.467 -0.0199  0.0929  0.5365
    7CHTO   H17 2933   7.556   3.977   6.515  0.5785 -1.8243 -0.0168
    7CHTO    O1 2934   7.639   4.009   6.324 -0.4704  0.4322  0.4068
    7CHTO    C5 2935   7.649   3.877   6.274  0.3300  0.0505 -0.6699
    7CHTO   H18 2936   7.577   3.817   6.329 -1.9843 -0.5094 -4.1810
    7CHTO   C16 2937   7.602   3.878   6.124  0.2233 -1.3067 -0.0237
    7CHTO   O11 2938   7.679   3.953   6.032  0.0892 -0.6364 -0.3021
    7CHTO    H5 2939   7.623   3.984   5.963  1.9265 -1.8039 -2.3716
    7CHTO    O3 2940   7.646   4.157   6.493 -0.0129 -0.0158 -0.1534
    7CHTO    C6 2941   7.520   4.230   6.526  0.5571 -0.8602  0.3269
    7CHTO   H19 2942   7.435   4.162   6.522  0.1755 -0.4512  1.1461
    7CHTO    C8 2943   7.532   4.278   6.674  0.2433 -0.4542 -0.2505
    7CHTO   H21 2944   7.628   4.330   6.681  0.7537 -1.4186  0.1652
    7CHTO    O7 2945   7.524   4.161   6.766  0.3239  0.7209  0.9876
    7CHTO    H2 2946   7.436   4.141   6.792 -0.1652 -0.1235 -1.2408
    7CHTO   C12 2947   7.405   4.373   6.712 -0.4451  0.4701 -0.7350
    7CHTO   H25 2948   7.316   4.308   6.699 -1.1648  0.6685  2.7184
    7CHTO    N3 2949   7.409   4.426   6.852 -0.5003 -0.3181 -0.0078
    7CHTO   H12 2950   7.401   4.346   6.924 -0.6203  1.8176  2.4324
    7CHTO   H13 2951   7.325   4.492   6.870  1.1711  2.8804 -3.2801
    7CHTO   C15 2952   7.391   4.484   6.602  0.4704  0.3951 -0.2736
    7CHTO   H28 2953   7.470   4.557   6.618  0.1640  0.2674  2.0164
    7CHTO   O10 2954   7.247   4.540   6.607  0.4585 -0.4920  0.5044
    7CHTO    H4 2955   7.244   4.628   6.575  1.0599 -0.4506  0.5584
    7CHTO    O5 2956   7.382   4.426   6.469  0.0679  1.1140 -0.1042
    7CHTO   C10 2957   7.494   4.348   6.429  0.3007  0.1033 -0.1785
    7CHTO   H23 2958   7.583   4.410   6.430 -1.3481  2.5140  0.5278
    7CHTO   C17 2959   7.479   4.298   6.281  0.7894  0.2081 -0.5241
    7CHTO   O12 2960   7.474   4.404   6.192  0.0477 -0.2784 -0.5359
    7CHTO    H6 2961   7.382   4.418   6.206  0.2920 -0.5371  1.5783
    8CHTO  H203 2962   7.248   7.785   1.022 -1.1625 -1.8953 -0.3587
    8CHTO   O82 2963   7.212   7.814   1.104 -0.0463 -0.2775 -0.4368
    8CHTO  C123 2964   7.067   7.839   1.088 -0.4377 -0.1405  0.8918
    8CHTO  H227 2965   7.013   7.748   1.121  0.5185 -0.6057  1.2035
    8CHTO   O77 2966   7.045   7.951   1.185 -0.3293 -0.0784  0.2376
    8CHTO  C118 2967   6.908   7.983   1.192  0.2865 -0.4427  0.5891
    8CHTO  H222 2968   6.854   7.894   1.229 -1.4827  0.3072 -0.1391
    8CHTO  C125 2969   6.894   8.097   1.303 -0.0582 -0.3037 -0.1742
    8CHTO   O84 2970   6.951   8.217   1.264 -0.4590 -0.5243 -0.6039
    8CHTO  H205 2971   6.888   8.286   1.257  0.3750  0.5796  1.9876
    8CHTO  C114 2972   6.844   8.025   1.058 -0.3702  0.0461  0.4934
    8CHTO  H218 2973   6.892   8.119   1.030 -0.7126  0.9851  2.9683
    8CHTO  C116 2974   6.872   7.923   0.948  0.4682  0.0607  0.2721
    8CHTO  H220 2975   6.807   7.836   0.969  0.9493 -0.7889 -1.7291
    8CHTO   O79 2976   6.827   7.980   0.830 -0.3703  0.4074 -0.4266
    8CHTO  H201 2977   6.737   8.006   0.827 -0.1974  1.3205  1.5503
    8CHTO  C120 2978   7.024   7.881   0.941  0.1676 -0.0813  0.4544
    8CHTO  H224 2979   7.085   7.967   0.907  2.6472 -2.4451 -1.3335
    8CHTO   N21 2980   7.055   7.781   0.834 -0.8042 -0.1177 -1.0844
    8CHTO  H211 2981   7.068   7.841   0.745  3.0272 -1.0472 -1.2127
    8CHTO  H212 2982   6.975   7.712   0.810  0.6586 -2.0307 -0.5873
    8CHTO   O75 2983   6.704   8.042   1.085  0.7705 -0.3121 -0.0419
    8CHTO  C112 2984   6.639   8.177   0.992  0.0860 -0.2405 -0.6120
    8CHTO  H216 2985   6.624   8.148   0.887  1.5229  1.7868 -1.4006
    8CHTO   O73 2986   6.737   8.287   1.004  0.1539  0.2041 -0.5500
    8CHTO  C113 2987   6.707   8.406   0.919  0.1109  0.3221 -0.1112
    8CHTO  H217 2988   6.686   8.381   0.813  0.4701  1.1026 -0.3702
    8CHTO  C124 2989   6.824   8.498   0.929 -0.2038  0.1628  1.3022
    8CHTO   O83 2990   6.940   8.439   0.874  0.2238  0.2904  0.5808
    8CHTO  H204 2991   6.967   8.363   0.922  3.8328  2.7396  2.6383
    8CHTO  C109 2992   6.572   8.469   0.959 -0.0807 -0.3942 -0.6935
    8CHTO  H213 2993   6.582   8.506   1.063 -0.6203 -2.3409  0.0652
    8CHTO  C110 2994   6.462   8.358   0.957 -0.2754  0.9571  0.4205
    8CHTO  H214 2995   6.434   8.328   0.856 -1.0668 -2.1286  1.4949
    8CHTO   O78 2996   6.336   8.413   1.011  0.0543  0.1084 -0.1206
    8CHTO  H200 2997   6.277   8.344   1.031  1.1165 -0.4717  1.0708
    8CHTO  C111 2998   6.504   8.231   1.040  0.6064  0.4866 -0.0869
    8CHTO  H215 2999   6.509   8.257   1.147 -0.1597  0.4221 -0.0316
    8CHTO   N19 3000   6.401   8.126   1.031 -0.0154  0.1322  0.0649
    8CHTO  H207 3001   6.428   8.043   1.095 -0.9374 -1.0722 -1.0838
    8CHTO  H208 3002   6.301   8.157   1.058  0.2137 -0.4174  1.6244
    8CHTO   O74 3003   6.545   8.579   0.876 -0.7272 -0.0815 -0.3445
    8CHTO  C115 3004   6.448   8.707   0.962  0.4230 -0.1664  0.2672
    8CHTO  H219 3005   6.413   8.674   1.060  1.4533 -0.2964  0.5927
    8CHTO   O76 3006   6.527   8.821   0.984 -0.2308  0.1140  0.8105
    8CHTO  C122 3007   6.591   8.873   0.865  0.5427  0.5329 -0.7004
    8CHTO  H226 3008   6.670   8.800   0.848 -0.1210 -1.1876  3.0655
    8CHTO  C126 3009   6.668   9.007   0.898  0.3339 -0.2738 -0.1560
    8CHTO   O85 3010   6.749   8.987   1.016 -0.0243  0.0102  0.3336
    8CHTO  H206 3011   6.829   8.947   0.987 -1.6180 -2.0186 -1.4524
    8CHTO  C121 3012   6.495   8.885   0.742 -0.0799  0.2159  0.7037
    8CHTO  H225 3013   6.505   8.979   0.684  1.5190 -1.7678 -2.3981
    8CHTO   O81 3014   6.520   8.777   0.645  0.5214 -0.0805  0.7367
    8CHTO  H202 3015   6.579   8.805   0.578  0.8552 -1.8187  0.3094
    8CHTO  C119 3016   6.346   8.873   0.794 -0.0418  0.4747  0.4460
    8CHTO  H223 3017   6.337   8.956   0.864 -1.1073 -0.1117  1.0246
    8CHTO  C117 3018   6.320   8.738   0.876 -0.0972  0.0930 -0.4158
    8CHTO  H221 3019   6.300   8.647   0.820 -0.3727 -0.1027  0.0007
    8CHTO   N20 3020   6.197   8.750   0.963 -0.2083  0.0537 -0.4348
    8CHTO  H209 3021   6.169   8.853   0.950  1.0125  0.3237 -1.0167
    8CHTO  H210 3022   6.130   8.681   0.914  1.4456 -0.4120 -2.1412
    8CHTO   O80 3023   6.239   8.911   0.691  0.5200  0.1690 -0.3279
    8CHTO  C103 3024   6.169   9.052   0.686 -0.9360  0.4678 -0.6821
    8CHTO  H190 3025   6.084   9.050   0.619 -0.9258  1.2717 -0.7308
    8CHTO  C101 3026   6.131   9.120   0.823  0.3796 -0.3191  0.5592
    8CHTO  H188 3027   6.223   9.133   0.881 -0.2165 -1.6120  1.8260
    8CHTO   O68 3028   6.044   9.035   0.885  0.6539 -0.1657 -0.2047
    8CHTO  H168 3029   5.959   9.039   0.846  0.2949  0.6577  0.6275
    8CHTO   C99 3030   6.072   9.265   0.787 -0.1348  0.1664  0.5202
    8CHTO  H186 3031   5.989   9.244   0.716 -0.0851  0.8213  0.2709
    8CHTO   N17 3032   6.023   9.334   0.904  0.3633  0.5296  0.3125
    8CHTO  H174 3033   5.927   9.288   0.922  0.5250  0.0488 -0.0701
    8CHTO  H175 3034   6.012   9.442   0.896 -0.7581  0.4344  0.5394
    8CHTO   C97 3035   6.177   9.352   0.716 -0.0580  0.3374 -0.0551
    8CHTO  H184 3036   6.254   9.382   0.789 -1.8975  1.0650  1.6340
    8CHTO   O64 3037   6.237   9.280   0.602 -0.0609  0.2053 -0.2778
    8CHTO  C104 3038   6.283   9.147   0.620  0.6463 -0.5164  0.9599
    8CHTO  H191 3039   6.376   9.143   0.678  0.6572 -1.0808  0.9044
    8CHTO  C108 3040   6.314   9.089   0.482  1.1264 -0.3388  0.4124
    8CHTO   O71 3041   6.445   9.132   0.440  0.5904  0.0060  0.1594
    8CHTO  H171 3042   6.469   9.097   0.356  0.1490 -0.2145  0.1233
    8CHTO   O62 3043   6.124   9.475   0.656 -0.4163  0.9230 -0.4034
    8CHTO   C91 3044   6.217   9.585   0.653 -0.5516 -0.5044 -0.4208
    8CHTO  H178 3045   6.315   9.571   0.699 -0.4215  0.0247 -0.5352
    8CHTO   C92 3046   6.156   9.710   0.732 -0.3043  0.8674  0.3851
    8CHTO  H179 3047   6.057   9.727   0.687 -0.8700 -0.6796  1.0101
    8CHTO   O66 3048   6.121   9.658   0.860 -0.3494  0.0237  0.0196
    8CHTO  H166 3049   6.061   9.715   0.903 -0.0442  0.4305 -0.0947
    8CHTO   C93 3050   6.246   9.836   0.731 -0.4053 -0.1839 -0.3867
    8CHTO  H180 3051   6.338   9.819   0.789  0.2591  1.2225 -0.9934
    8CHTO   N16 3052   6.191   9.956   0.791  0.6321  0.2548  0.8292
    8CHTO  H172 3053   6.277  10.012   0.826  1.0364 -0.5651  1.1607
    8CHTO  H173 3054   6.128   9.922   0.871  1.4101 -2.0521  0.4901
    8CHTO   C94 3055   6.294   9.878   0.588  0.6410  0.0403 -0.5924
    8CHTO  H181 3056   6.216   9.924   0.528 -0.5833 -2.1246 -0.7098
    8CHTO   O61 3057   6.315   9.763   0.509 -0.0444  0.3029 -0.0334
    8CHTO   C95 3058   6.250   9.636   0.511  0.4476 -0.2678 -0.5854
    8CHTO  H182 3059   6.155   9.646   0.459  1.6455  1.8890 -2.4381
    8CHTO  C106 3060   6.347   9.545   0.438 -0.6762  0.4535 -0.1766
    8CHTO   O69 3061   6.343   9.568   0.299  0.3952 -0.2486  0.2843
    8CHTO  H169 3062   6.406   9.516   0.253  1.0141  0.4988  0.2812
    8CHTO   O63 3063   6.436   9.971   0.576  0.2307 -0.5912 -1.0397
    8CHTO   C96 3064   6.475  10.022   0.448 -0.3426 -0.3476 -0.8758
    8CHTO  H183 3065   6.405   9.992   0.370  0.1534 -1.2910 -0.9628
    8CHTO   C98 3066   6.616   9.983   0.396  0.5493  0.1023 -0.2155
    8CHTO  H185 3067   6.695   9.996   0.471  1.0807  1.3451 -0.9623
    8CHTO   O67 3068   6.599   9.839   0.373  0.2214  0.9142  0.5115
    8CHTO  H167 3069   6.513   9.815   0.344  0.5761 -0.2075  0.3877
    8CHTO  C102 3070   6.658  10.047   0.257  0.1685  0.0981 -0.0983
    8CHTO  H189 3071   6.601   9.991   0.182 -0.2631 -0.3416  0.5569
    8CHTO   N18 3072   6.801  10.031   0.213  0.2730 -0.1383  0.2359
    8CHTO  H176 3073   6.805  10.095   0.126  0.6194  0.9259  1.0143
    8CHTO  H177 3074   6.824   9.933   0.176  0.8965  0.0315  0.1731
    8CHTO  C105 3075   6.609  10.197   0.262 -0.1393  0.4368 -0.2802
    8CHTO  H192 3076   6.679  10.256   0.322  0.4148  1.0370 -1.4879
    8CHTO   O65 3077   6.479  10.228   0.311  0.0109 -0.0069  0.2681
    8CHTO  C100 3078   6.453  10.184   0.447  0.0540  1.1339 -0.2689
    8CHTO  H187 3079   6.529  10.228   0.514 -0.3127 -1.1573  1.7048
    8CHTO  C107 3080   6.310  10.231   0.488  0.2277  0.1590  0.1210
    8CHTO   O70 3081   6.298  10.378   0.475  0.1161 -0.3336 -0.3348
    8CHTO  H170 3082   6.334  10.426   0.547  0.3817 -0.2305 -0.5366
    8CHTO   O57 3083   6.620  10.258   0.126  0.1667  0.0083 -0.0089
    8CHTO   C85 3084   6.719  10.355   0.078  0.3187 -0.1899  0.2682
    8CHTO  H157 3085   6.814  10.322   0.127  0.0400 -2.0788 -0.4284
    8CHTO   C83 3086   6.687  10.497   0.136  0.1117 -0.6956  0.1891
    8CHTO  H155 3087   6.710  10.496   0.242 -3.3527 -1.7086  1.0203
    8CHTO   O56 3088   6.546  10.511   0.118  0.0519  0.2697  0.0683
    8CHTO  H135 3089   6.514  10.593   0.150 -2.7814 -0.8432  0.2368
    8CHTO   C81 3090   6.774  10.604   0.061 -0.5741 -0.8115  0.0282
    8CHTO  H153 3091   6.880  10.591   0.085  0.0471  0.9136 -1.7080
    8CHTO   N14 3092   6.753  10.744   0.106 -0.1124 -0.0287  0.0806
    8CHTO  H141 3093   6.757  10.813   0.024 -0.3750  1.8445  1.5909
    8CHTO  H142 3094   6.661  10.754   0.160  0.1029 -0.6585  0.5673
    8CHTO   C79 3095   6.750  10.592  -0.094  0.2504 -0.0875  0.1514
    8CHTO  H151 3096   6.814  10.665  -0.144  0.4189 -2.7904 -3.8167
    8CHTO   O52 3097   6.795  10.466  -0.142  0.1201 -0.1110  0.2665
    8CHTO   C86 3098   6.726  10.353  -0.082 -0.1914 -0.2431  0.6396
    8CHTO  H158 3099   6.620  10.356  -0.115 -0.0567  2.6792  0.3019
    8CHTO   C90 3100   6.784  10.217  -0.135 -0.4983 -0.0596  0.2395
    8CHTO   O60 3101   6.761  10.195  -0.278  0.6524 -0.1466 -0.3774
    8CHTO  H138 3102   6.835  10.174  -0.331 -0.0387 -1.1753 -0.9472
    8CHTO   O50 3103   6.622  10.632  -0.144 -0.0972  0.5227 -0.0182
    8CHTO   C73 3104   6.518  10.688  -0.231  0.2378  0.1428  0.3904
    8CHTO  H145 3105   6.553  10.718  -0.330 -0.4720 -0.6270 -0.0985
    8CHTO   C74 3106   6.454  10.826  -0.175  1.0602  0.7052 -0.4994
    8CHTO  H146 3107   6.537  10.895  -0.156  0.4019  2.0047 -2.2012
    8CHTO   O54 3108   6.363  10.881  -0.276  0.1971  0.1127 -0.2987
    8CHTO  H133 3109   6.272  10.858  -0.268  0.9912 -2.8473  0.6164
    8CHTO   C75 3110   6.376  10.790  -0.044 -0.1400  0.7281  1.0368
    8CHTO  H147 3111   6.453  10.757   0.027 -0.2439  0.1926  0.9015
    8CHTO   N13 3112   6.316  10.907   0.024  0.0900 -0.4027  0.7623
    8CHTO  H139 3113   6.315  10.894   0.131  0.0516 -0.5010  0.7501
    8CHTO  H140 3114   6.214  10.918  -0.012  0.4639  0.0023 -0.2099
    8CHTO   C76 3115   6.274  10.670  -0.056  0.4318  0.4242 -0.5160
    8CHTO  H148 3116   6.193  10.694  -0.124  0.0113  0.0566 -0.1455
    8CHTO   O49 3117   6.347  10.559  -0.121  0.5059  0.2942  1.0966
    8CHTO   C77 3118   6.403  10.586  -0.251 -0.3172  0.4174 -0.6368
    8CHTO  H149 3119   6.333  10.624  -0.325  1.7106 -0.8877 -3.3027
    8CHTO   C88 3120   6.453  10.451  -0.309  0.7836  0.4335  0.2774
    8CHTO   O58 3121   6.327  10.373  -0.318  0.6888  0.0826  0.1940
    8CHTO  H136 3122   6.355  10.285  -0.334  1.0403  0.5411 -1.8077
    8CHTO   O51 3123   6.233  10.622   0.073  0.5783 -0.3037 -0.5583
    8CHTO   C78 3124   6.093  10.576   0.093 -0.1253  0.0138  0.4531
    8CHTO  H150 3125   6.046  10.559  -0.007  1.0093 -2.7932  0.3525
    8CHTO   C80 3126   6.013  10.687   0.161  0.1045 -0.2248 -0.4213
    8CHTO  H152 3127   6.073  10.720   0.249  0.3781 -1.2087 -0.2290
    8CHTO   O55 3128   5.985  10.790   0.061 -0.6006  0.0297 -0.6527
    8CHTO  H134 3129   5.977  10.754  -0.025  0.3165  0.1636 -0.7994
    8CHTO   C84 3130   5.865  10.637   0.213 -0.5744 -0.0057 -0.4997
    8CHTO  H156 3131   5.808  10.632   0.120 -0.1287  1.2325 -0.8573
    8CHTO   N15 3132   5.794  10.736   0.302  0.5531 -0.6199  0.2914
    8CHTO  H143 3133   5.688  10.723   0.317  0.7800 -1.2296  1.3989
    8CHTO  H144 3134   5.844  10.728   0.396 -0.9826 -0.6733  1.1207
    8CHTO   C87 3135   5.882  10.501   0.284  0.5409 -0.9228 -0.3001
    8CHTO  H159 3136   5.932  10.519   0.379  0.5386 -2.1469 -0.0595
    8CHTO   O53 3137   5.956  10.404   0.192 -0.2108  0.0973 -0.3263
    8CHTO   C82 3138   6.090  10.446   0.172  0.5476  0.3387  0.7281
    8CHTO  H154 3139   6.140  10.461   0.268 -1.1617  0.1727  1.6752
    8CHTO   C89 3140   6.156  10.328   0.097 -0.8821 -0.0058 -0.1384
    8CHTO   O59 3141   6.297  10.339   0.069 -0.7046 -0.5859 -0.0764
    8CHTO  H137 3142   6.304  10.294  -0.013 -1.0680 -2.0923  0.7014
    8CHTO   O45 3143   5.727  10.420   0.299  0.2271  0.4510 -0.4723
    8CHTO   C67 3144   5.731  10.303   0.382 -0.1411  0.2178  0.3285
    8CHTO  H124 3145   5.791  10.232   0.325  1.1347  1.1028  0.5517
    8CHTO   C65 3146   5.798  10.329   0.523  0.1746 -0.1205  0.4333
    8CHTO  H122 3147   5.792  10.436   0.546 -3.6691 -0.3788  1.0308
    8CHTO   O44 3148   5.941  10.302   0.504  0.1100  0.6032  0.7320
    8CHTO  H102 3149   5.984  10.328   0.582  0.1533 -0.1584  0.9598
    8CHTO   C63 3150   5.714  10.264   0.644 -0.0113  0.1464 -0.0644
    8CHTO  H120 3151   5.624  10.324   0.657  0.4511  0.8019  0.1494
    8CHTO   N11 3152   5.779  10.286   0.775 -0.4807  0.0101 -0.3364
    8CHTO  H108 3153   5.837  10.376   0.779 -0.1552 -0.2838  2.4554
    8CHTO  H109 3154   5.700  10.296   0.847 -0.4612  3.1135 -0.6589
    8CHTO   C61 3155   5.659  10.119   0.615 -0.4758  0.3574  0.1294
    8CHTO  H118 3156   5.577  10.095   0.684 -0.0504 -0.8689  0.2080
    8CHTO   O40 3157   5.607  10.116   0.477  0.7941 -0.6292  0.3117
    8CHTO   C68 3158   5.589  10.237   0.401 -0.1398  0.2697 -0.0886
    8CHTO  H125 3159   5.524  10.311   0.452  1.5753  0.8610  1.2952
    8CHTO   C72 3160   5.529  10.205   0.265  0.3886 -0.4062  0.2188
    8CHTO   O48 3161   5.483  10.320   0.202  0.3680 -1.0798  0.5075
    8CHTO  H105 3162   5.542  10.379   0.158 -0.0111  0.2746  1.7962
    8CHTO   O38 3163   5.767  10.019   0.619 -0.3330  0.0669 -0.4823
    8CHTO   C55 3164   5.724   9.883   0.591  0.4887 -0.9341  0.5495
    8CHTO  H112 3165   5.629   9.881   0.537  0.9433  1.2539 -0.3606
    8CHTO   C56 3166   5.725   9.796   0.719 -0.4706  0.4498 -0.2370
    8CHTO  H113 3167   5.825   9.790   0.763  0.3509  3.0438 -1.6451
    8CHTO   O42 3168   5.635   9.861   0.812  0.1493  0.2514 -0.3335
    8CHTO  H100 3169   5.685   9.908   0.876 -1.5589 -0.5179  1.6259
    8CHTO   C57 3170   5.673   9.648   0.690 -1.1835  0.0534  0.6166
    8CHTO  H114 3171   5.576   9.649   0.641 -1.9925 -0.4847  2.1705
    8CHTO   N10 3172   5.669   9.558   0.806 -0.1518  0.7282 -0.6070
    8CHTO  H106 3173   5.593   9.485   0.783  0.9941 -0.3413 -1.0539
    8CHTO  H107 3174   5.645   9.608   0.899  3.4347  0.5767  0.4723
    8CHTO   C58 3175   5.772   9.592   0.584  0.2223 -0.6050  0.2287
    8CHTO  H115 3176   5.874   9.582   0.626  0.1578 -1.7978  0.1235
    8CHTO   O37 3177   5.784   9.679   0.471  0.2925  0.0927  0.8592
    8CHTO   C59 3178   5.819   9.818   0.503  0.0197 -0.1363  0.2387
    8CHTO  H116 3179   5.920   9.822   0.544  0.8249 -1.0225 -1.6122
    8CHTO   C70 3180   5.831   9.898   0.370 -0.1320 -0.4023 -0.2185
    8CHTO   O46 3181   5.947   9.861   0.295  0.2830 -0.1279  0.2023
    8CHTO  H103 3182   6.005   9.928   0.264 -0.5198 -0.1843 -1.4661
    8CHTO   O39 3183   5.716   9.424   0.514 -0.2793  0.1496 -0.1781
    8CHTO   C60 3184   5.723   9.414   0.368  0.3795 -0.3313 -0.2462
    8CHTO  H117 3185   5.679   9.507   0.331  1.4273  0.8885  1.4969
    8CHTO   C62 3186   5.873   9.401   0.321 -0.3943 -0.0857  0.4758
    8CHTO  H119 3187   5.927   9.492   0.353  1.2137 -1.2050  1.0498
    8CHTO   O43 3188   5.936   9.289   0.392  0.4690  0.3802 -0.2540
    8CHTO  H101 3189   5.958   9.315   0.479 -0.9533 -0.7161  0.4549
    8CHTO   C66 3190   5.879   9.397   0.163 -0.0210  0.3028 -0.1731
    8CHTO  H123 3191   5.833   9.484   0.117 -1.5944 -0.9301 -0.9590
    8CHTO   N12 3192   6.013   9.388   0.106  0.3364 -0.4241  0.2679
    8CHTO  H110 3193   6.031   9.477   0.047  0.2498 -1.8565 -1.9813
    8CHTO  H111 3194   6.087   9.383   0.185  0.0945  0.6437  0.5738
    8CHTO   C69 3195   5.794   9.277   0.111 -0.0799 -0.6242  0.7007
    8CHTO  H126 3196   5.857   9.191   0.140 -0.2720 -2.4172 -3.8388
    8CHTO   O41 3197   5.651   9.271   0.173 -0.2816 -0.2841  0.0567
    8CHTO   C64 3198   5.641   9.295   0.318 -0.6194 -0.0111 -0.5034
    8CHTO  H121 3199   5.676   9.201   0.364 -2.6946 -0.2807  0.5627
    8CHTO   C71 3200   5.495   9.303   0.346  0.2371  0.0390 -0.1502
    8CHTO   O47 3201   5.422   9.190   0.307 -0.0525  0.2503 -0.4589
    8CHTO  H104 3202   5.334   9.212   0.281 -0.9112  2.0090  3.4730
    8CHTO   O34 3203   5.784   9.272  -0.058  0.3455 -0.6182 -0.2099
    8CHTO   C49 3204   5.708   9.241  -0.154 -0.2599 -0.2021  0.5833
    8CHTO   H91 3205   5.683   9.136  -0.142  1.2385 -0.6903 -0.4997
    8CHTO   C47 3206   5.788   9.278  -0.283 -0.1353 -0.4700  0.1344
    8CHTO   H89 3207   5.727   9.235  -0.365  0.5507  0.8793 -1.1015
    8CHTO   O33 3208   5.915   9.212  -0.290  0.6125  0.2876 -0.9245
    8CHTO   H70 3209   5.908   9.121  -0.267 -0.0592  0.7797  0.8824
    8CHTO   C45 3210   5.811   9.429  -0.308  0.5273 -0.3355  0.0461
    8CHTO   H87 3211   5.915   9.456  -0.281  0.9480 -0.1580 -1.7135
    8CHTO    N8 3212   5.806   9.459  -0.454  0.8529 -0.1372 -0.0674
    8CHTO   H75 3213   5.908   9.458  -0.489  0.7727  0.6633 -0.3442
    8CHTO   H76 3214   5.743   9.387  -0.505  0.5576 -0.7358  1.1421
    8CHTO   C43 3215   5.720   9.515  -0.207 -0.6597 -0.0296 -0.2530
    8CHTO   H85 3216   5.772   9.503  -0.112 -0.5269 -2.6795 -0.6071
    8CHTO   O29 3217   5.587   9.466  -0.198  0.3529  0.1329  0.5312
    8CHTO   C50 3218   5.577   9.328  -0.159 -0.0082  1.0756  0.0406
    8CHTO   H92 3219   5.544   9.330  -0.055 -2.9825  1.9849 -0.8793
    8CHTO   C54 3220   5.458   9.269  -0.230 -0.5696  0.2742 -0.2502
    8CHTO   O36 3221   5.417   9.154  -0.156  0.0722 -0.7142  0.4050
    8CHTO   H72 3222   5.335   9.119  -0.186  1.0642 -0.8394 -2.2725
    8CHTO   O27 3223   5.716   9.652  -0.251  0.4527 -0.2223  0.4263
    8CHTO   C37 3224   5.642   9.761  -0.197  0.8441 -0.2169 -0.5066
    8CHTO   H79 3225   5.550   9.721  -0.151  0.5637 -0.0083 -0.8888
    8CHTO   C38 3226   5.724   9.823  -0.080  0.5610 -0.6990  0.0212
    8CHTO   H80 3227   5.829   9.819  -0.113  1.2467 -1.4795  2.2118
    8CHTO   O31 3228   5.710   9.754   0.048 -0.2385 -0.9998  0.0980
    8CHTO   H68 3229   5.713   9.662   0.032 -0.7501 -1.4534  2.3554
    8CHTO   C39 3230   5.691   9.975  -0.050 -0.5475 -0.0098 -0.4215
    8CHTO   H81 3231   5.607   9.981   0.019 -0.6754  0.2026 -0.5952
    8CHTO    N7 3232   5.798  10.047   0.022 -0.0650 -0.0081 -0.1808
    8CHTO   H73 3233   5.773  10.077   0.123 -0.8376  1.9254 -0.9343
    8CHTO   H74 3234   5.882   9.980   0.034  0.4823  0.4197 -1.5407
    8CHTO   C40 3235   5.646  10.055  -0.176  0.2861 -0.4602  0.2257
    8CHTO   H82 3236   5.735  10.080  -0.234 -0.9330  0.3910 -1.3173
    8CHTO   O26 3237   5.549   9.981  -0.257 -0.1442 -0.1791 -0.4164
    8CHTO   C41 3238   5.612   9.860  -0.303 -0.4371 -0.1443  0.4913
    8CHTO   H83 3239   5.712   9.886  -0.342 -0.5523 -0.2098  0.1585
    8CHTO   C52 3240   5.533   9.811  -0.420 -0.0377 -0.1502 -0.3755
    8CHTO   O35 3241   5.520   9.905  -0.527 -0.1419 -0.1447  1.0414
    8CHTO   H71 3242   5.595   9.960  -0.544 -0.4789  0.2408  0.7804
    8CHTO   O28 3243   5.568  10.173  -0.141  0.1302  0.3278  0.3294
    8CHTO   C42 3244   5.549  10.275  -0.243 -0.1023 -0.1769 -0.3957
    8CHTO   H84 3245   5.476  10.341  -0.196  1.4975 -0.4861  2.6603
    8CHTO   C44 3246   5.489  10.241  -0.388  0.2193  0.0929 -0.3499
    8CHTO   H86 3247   5.554  10.169  -0.437  1.2029  1.3118 -0.8665
    8CHTO   O32 3248   5.360  10.185  -0.369  0.2848  0.3232  0.3633
    8CHTO   H69 3249   5.347  10.128  -0.442 -0.3080 -0.6696  1.2320
    8CHTO   C48 3250   5.493  10.371  -0.484 -0.4875 -0.0377 -0.2781
    8CHTO   H90 3251   5.411  10.430  -0.444 -0.0567 -0.1666  0.7964
    8CHTO    N9 3252   5.443  10.347  -0.628 -0.5901  0.6940 -0.1325
    8CHTO   H77 3253   5.442  10.437  -0.687 -2.0430  1.2267  0.6799
    8CHTO   H78 3254   5.493  10.264  -0.676 -0.3507  1.1641 -0.7178
    8CHTO   C51 3255   5.636  10.438  -0.479  0.6764  0.7052  0.1510
    8CHTO   H93 3256   5.710  10.368  -0.518 -0.5306  0.0666 -1.0134
    8CHTO   O30 3257   5.662  10.475  -0.340  0.2436 -0.0361 -0.4774
    8CHTO   C46 3258   5.679  10.356  -0.262 -0.1368  0.0271 -1.1355
    8CHTO   H88 3259   5.755  10.289  -0.302 -0.2334 -1.1092  0.5294
    8CHTO   C53 3260   5.749  10.390  -0.128  0.2935  0.1986 -0.4721
    8CHTO   O72 3261   5.871  10.466  -0.152  0.6581  0.1617 -0.1664
    8CHTO  H199 3262   5.861  10.556  -0.176  2.1249  0.7035  1.1936
    8CHTO   O22 3263   5.635  10.566  -0.533 -0.2991 -0.1757  0.0564
    8CHTO   C31 3264   5.761  10.644  -0.566  0.1841  0.0778 -0.3174
    8CHTO   H59 3265   5.722  10.736  -0.614 -1.8829 -1.5378 -1.8293
    8CHTO   C29 3266   5.861  10.690  -0.449 -0.0024  0.1078 -0.0086
    8CHTO   H57 3267   5.885  10.606  -0.383 -1.1673 -0.3663 -0.1721
    8CHTO   O21 3268   5.795  10.786  -0.359 -0.0597  0.2213 -0.1375
    8CHTO   H37 3269   5.732  10.742  -0.305 -0.1839 -1.4333 -1.5604
    8CHTO   C27 3270   6.001  10.755  -0.497 -1.1083  0.3453  0.7386
    8CHTO   H55 3271   5.982  10.855  -0.538  1.4471  0.5470 -0.0114
    8CHTO    N5 3272   6.093  10.774  -0.384 -0.3885 -0.3043  0.1735
    8CHTO   H43 3273   6.130  10.875  -0.382  2.1930 -1.2155  0.9117
    8CHTO   H44 3274   6.184  10.716  -0.387 -0.6158 -0.8690  2.7585
    8CHTO   C25 3275   6.058  10.667  -0.607  0.4408 -0.2792 -0.5622
    8CHTO   H53 3276   6.080  10.565  -0.573  1.2551  0.4320  1.0958
    8CHTO   O17 3277   5.951  10.664  -0.710  0.3794  0.1753  0.3511
    8CHTO   C32 3278   5.839  10.582  -0.681 -0.8910  0.1162  0.1576
    8CHTO   H60 3279   5.883  10.488  -0.647 -1.0602  0.8638  2.5540
    8CHTO   C36 3280   5.756  10.570  -0.811 -0.2313 -0.1560 -0.3332
    8CHTO   O25 3281   5.814  10.483  -0.897 -0.2455 -0.0826 -0.1351
    8CHTO   H40 3282   5.763  10.459  -0.972  0.1043 -0.0956 -0.3698
    8CHTO   O15 3283   6.198  10.721  -0.665 -0.4143 -0.5219 -0.4363
    8CHTO   C19 3284   6.340  10.692  -0.689  0.4408 -0.8321 -0.3440
    8CHTO   H47 3285   6.345  10.716  -0.796 -1.1084 -0.1473 -0.2771
    8CHTO   C20 3286   6.439  10.783  -0.601 -0.5487  0.0600  0.4361
    8CHTO   H48 3287   6.434  10.758  -0.494 -1.0419 -0.8914  0.1960
    8CHTO   O19 3288   6.400  10.920  -0.617  0.0033 -0.4128 -0.5669
    8CHTO   H35 3289   6.461  10.981  -0.580 -0.7288 -1.3772  2.3759
    8CHTO   C21 3290   6.591  10.755  -0.648  0.1928  1.0140 -0.1479
    8CHTO   H49 3291   6.601  10.786  -0.752  0.3723 -0.2405 -0.5125
    8CHTO    N4 3292   6.683  10.839  -0.568 -0.0257  0.1398  0.2363
    8CHTO   H41 3293   6.727  10.786  -0.486  0.8768 -0.6383 -0.7317
    8CHTO   H42 3294   6.636  10.931  -0.535  0.9460  0.8188 -0.2364
    8CHTO   C22 3295   6.622  10.605  -0.642  0.1806 -0.0089 -0.5783
    8CHTO   H50 3296   6.620  10.582  -0.536  1.5979 -2.8644 -1.1421
    8CHTO   O14 3297   6.519  10.527  -0.705 -0.1803  0.0340  0.4248
    8CHTO   C23 3298   6.378  10.545  -0.677  0.5291 -0.0344 -0.1685
    8CHTO   H51 3299   6.364  10.509  -0.574  1.0965  0.4328  0.0739
    8CHTO   C34 3300   6.317  10.455  -0.790  0.4723  0.4420 -0.3943
    8CHTO   O23 3301   6.171  10.450  -0.803 -0.1870  0.1294  0.2139
    8CHTO   H38 3302   6.120  10.508  -0.751 -2.3358  0.3799 -2.0279
    8CHTO   O16 3303   6.746  10.569  -0.708 -0.0711 -0.3650  0.6777
    8CHTO   C24 3304   6.800  10.430  -0.671  0.0107  0.0267 -0.0650
    8CHTO   H52 3305   6.724  10.373  -0.618  0.2220 -0.1136  0.0856
    8CHTO   C26 3306   6.918  10.451  -0.572  0.2819  0.0731 -1.3640
    8CHTO   H54 3307   6.993  10.518  -0.618  1.2140 -0.3309 -0.4474
    8CHTO   O20 3308   6.874  10.523  -0.455  0.8159  0.0118  0.2860
    8CHTO   H36 3309   6.911  10.609  -0.454 -1.3370  0.9911 -0.8526
    8CHTO   C30 3310   6.989  10.316  -0.528 -0.4484 -0.1543 -0.3652
    8CHTO   H58 3311   6.921  10.250  -0.472  0.0549 -0.0685  0.3492
    8CHTO    N6 3312   7.112  10.332  -0.440  0.5291  0.2033 -0.2957
    8CHTO   H45 3313   7.095  10.391  -0.351 -0.9827 -0.6234 -0.0110
    8CHTO   H46 3314   7.142  10.233  -0.411  0.3654  0.6661  1.4980
    8CHTO   C33 3315   7.030  10.237  -0.661 -0.2940  0.2376 -0.3180
    8CHTO   H61 3316   7.104  10.298  -0.715  0.4496 -1.5299 -1.3315
    8CHTO   O18 3317   6.916  10.220  -0.748 -0.1052 -0.0539 -0.0143
    8CHTO   C28 3318   6.852  10.341  -0.793 -0.0210  0.2020  0.4704
    8CHTO   H56 3319   6.925  10.394  -0.855  1.3355 -0.4098  1.5112
    8CHTO   C35 3320   6.734  10.309  -0.895  0.0919 -0.7582  0.4005
    8CHTO   O24 3321   6.616  10.252  -0.828  0.3742  0.1921  0.4127
    8CHTO   H39 3322   6.557  10.207  -0.885  0.7724 -0.5603  0.6017
    8CHTO    O9 3323   7.098  10.110  -0.641 -0.0081  0.2263 -0.2973
    8CHTO   C13 3324   7.120  10.026  -0.782  0.2627 -0.8238 -0.2937
    8CHTO   H26 3325   7.134  10.103  -0.860  3.0313  0.5302  1.4391
    8CHTO   C11 3326   6.996   9.929  -0.815 -0.5460 -0.1959 -0.3937
    8CHTO   H24 3327   6.913   9.985  -0.862  0.5245  0.7185 -1.2335
    8CHTO    O8 3328   6.938   9.876  -0.694 -0.0139 -0.3188  0.4346
    8CHTO    H3 3329   6.850   9.855  -0.717  0.8344 -2.9827 -0.5481
    8CHTO    C9 3330   7.049   9.816  -0.908  0.1302 -0.8993 -0.0229
    8CHTO   H22 3331   7.084   9.869  -0.998  0.0006 -1.9003 -0.6680
    8CHTO    N2 3332   6.934   9.732  -0.962 -0.2303 -0.0938 -0.0243
    8CHTO   H10 3333   6.921   9.652  -0.891  0.1039  0.1732  0.3410
    8CHTO   H11 3334   6.956   9.684  -1.057  1.3386 -0.0813  0.3075
    8CHTO    C7 3335   7.172   9.741  -0.839 -0.3084  0.5046  0.4151
    8CHTO   H20 3336   7.242   9.719  -0.922  0.8565 -1.5713  1.9024
    8CHTO    O4 3337   7.240   9.814  -0.739 -0.5814  0.6415 -0.9513
    8CHTO   C14 3338   7.257   9.951  -0.773  0.6883  0.7776  0.1220
    8CHTO   H27 3339   7.308   9.959  -0.872 -2.7507 -0.7716 -1.8670
    8CHTO   C18 3340   7.358  10.007  -0.672 -0.2748 -0.0001 -0.1479
    8CHTO   O13 3341   7.386  10.144  -0.697 -0.3280 -0.1872  0.0273
    8CHTO    H7 3342   7.312  10.193  -0.668 -0.0009  0.0032  0.5515
    8CHTO    O2 3343   7.129   9.594  -0.791  0.0690 -0.3777 -0.2457
    8CHTO    C1 3344   7.225   9.510  -0.737 -0.5877  0.6240 -0.3168
    8CHTO   H14 3345   7.274   9.571  -0.658  0.8999  0.1602 -0.8551
    8CHTO    C2 3346   7.338   9.455  -0.828  0.3582 -0.3421  0.6707
    8CHTO   H15 3347   7.281   9.425  -0.918  0.3128  0.9472  0.2551
    8CHTO    O6 3348   7.429   9.556  -0.867 -0.1137  0.1584 -0.6575
    8CHTO    H1 3349   7.516   9.519  -0.861 -0.1369  0.2629  0.4782
    8CHTO    C3 3350   7.416   9.323  -0.763  0.3410  0.6077  0.3635
    8CHTO   H16 3351   7.497   9.352  -0.694 -0.9324  0.7667  1.8212
    8CHTO    N1 3352   7.495   9.245  -0.867 -0.3165  0.5144  0.2029
    8CHTO    H8 3353   7.559   9.172  -0.820  0.7461  1.6097  0.4815
    8CHTO    H9 3354   7.555   9.312  -0.926 -0.1217  0.3372  0.1992
    8CHTO    C4 3355   7.322   9.232  -0.681  0.1862  0.6394  0.2321
    8CHTO   H17 3356   7.267   9.165  -0.746 -1.4165  2.4783 -0.3526
    8CHTO    O1 3357   7.233   9.307  -0.599  0.1380 -0.8020  0.3869
    8CHTO    C5 3358   7.138   9.396  -0.662 -0.0513 -0.3231 -0.1930
    8CHTO   H18 3359   7.083   9.345  -0.740  0.4340  0.6341 -1.1664
    8CHTO   C16 3360   7.037   9.449  -0.556 -0.8143 -0.4956  0.1560
    8CHTO   O11 3361   6.941   9.355  -0.516  0.2242  0.3168 -0.1733
    8CHTO    H5 3362   6.854   9.382  -0.492 -0.9036 -0.2932 -3.2172
    8CHTO    O3 3363   7.407   9.153  -0.595  0.8246  0.2878 -0.1576
    8CHTO    C6 3364   7.355   9.023  -0.560  0.0267 -1.0705  0.1773
    8CHTO   H19 3365   7.280   8.989  -0.631  1.1202 -2.5290 -0.2915
    8CHTO    C8 3366   7.459   8.911  -0.583 -0.2954 -0.2320  0.2226
    8CHTO   H21 3367   7.544   8.929  -0.517 -0.2664  3.5494 -0.7703
    8CHTO    O7 3368   7.505   8.911  -0.719  0.0417 -0.5452  0.3586
    8CHTO    H2 3369   7.438   8.915  -0.784  1.0973  0.2523 -0.6950
    8CHTO   C12 3370   7.395   8.768  -0.542  0.4739  0.0877 -0.6398
    8CHTO   H25 3371   7.312   8.744  -0.611 -2.9564  2.6176  2.3641
    8CHTO    N3 3372   7.494   8.662  -0.551 -0.0693 -0.8952 -0.1784
    8CHTO   H12 3373   7.504   8.622  -0.651  0.4585 -1.2190  0.0002
    8CHTO   H13 3374   7.474   8.587  -0.476 -0.6175 -0.8792 -0.3031
    8CHTO   C15 3375   7.332   8.776  -0.405  0.1169  0.7840 -0.1260
    8CHTO   H28 3376   7.404   8.788  -0.324  0.4279  0.9159 -0.4196
    8CHTO   O10 3377   7.243   8.657  -0.373  0.3218 -0.2297  0.1127
    8CHTO    H4 3378   7.285   8.574  -0.364  1.0538  0.2852  1.4646
    8CHTO    O5 3379   7.241   8.883  -0.395 -0.4291 -0.6195 -0.2597
    8CHTO   C10 3380   7.299   9.012  -0.416  0.4818 -0.1159 -0.2190
    8CHTO   H23 3381   7.391   9.014  -0.358  0.3936  0.7571 -0.1027
    8CHTO   C17 3382   7.194   9.117  -0.369  0.1911  0.4350 -0.0110
    8CHTO   O12 3383   7.173   9.127  -0.229 -0.2470  0.2496 -0.1130
    8CHTO    H6 3384   7.242   9.186  -0.208 -0.4080 -0.2174  1.8279
    9CHTO  H203 3385   7.173   5.277   5.483 -0.5248 -1.6770 -1.0018
    9CHTO   O82 3386   7.250   5.234   5.515 -0.0974 -0.0342  0.2452
    9CHTO  C123 3387   7.353   5.228   5.413  0.0443  0.3467  0.3191
    9CHTO  H227 3388   7.449   5.244   5.463  0.9408  0.7307 -1.5084
    9CHTO   O77 3389   7.329   5.091   5.374 -0.3993 -0.3772  0.1086
    9CHTO  C118 3390   7.418   5.032   5.276  0.8169  0.0525 -0.3749
    9CHTO  H222 3391   7.520   5.031   5.317  0.1257 -0.5264  1.4038
    9CHTO  C125 3392   7.367   4.880   5.258 -0.1012 -0.0307  0.4472
    9CHTO   O84 3393   7.368   4.809   5.379 -0.0623 -0.2514  0.6769
    9CHTO  H205 3394   7.283   4.773   5.395  1.3460 -3.9666  0.3649
    9CHTO  C114 3395   7.404   5.127   5.145  0.6554  0.3036  0.3562
    9CHTO  H218 3396   7.301   5.126   5.109  1.5756 -0.7737 -2.4015
    9CHTO  C116 3397   7.439   5.276   5.176 -0.3408 -0.8266 -0.0826
    9CHTO  H220 3398   7.541   5.285   5.219 -0.3413  0.3052 -0.2921
    9CHTO   O79 3399   7.439   5.360   5.057 -0.3607 -0.5990 -0.0996
    9CHTO  H201 3400   7.358   5.407   5.052 -0.1089 -0.1722 -0.1837
    9CHTO  C120 3401   7.335   5.330   5.283 -0.1068  0.0273 -0.1940
    9CHTO  H224 3402   7.234   5.323   5.236  0.6453  0.1956 -1.8582
    9CHTO   N21 3403   7.363   5.468   5.331 -0.4416 -0.2703 -0.0920
    9CHTO  H211 3404   7.312   5.539   5.267  0.2454 -0.2757 -0.6588
    9CHTO  H212 3405   7.467   5.497   5.320 -0.4251 -0.7922 -1.4221
    9CHTO   O75 3406   7.484   5.065   5.042  0.3561  0.3446  0.0011
    9CHTO  C112 3407   7.411   4.972   4.931  0.1908 -0.5432  0.1902
    9CHTO  H216 3408   7.306   4.956   4.957 -0.3562  0.9790 -0.9888
    9CHTO   O73 3409   7.478   4.848   4.928 -0.0612  0.0467 -0.0447
    9CHTO  C113 3410   7.424   4.752   4.839  0.7743 -0.9796  0.1190
    9CHTO  H217 3411   7.314   4.749   4.849  0.4724  2.6003 -1.3992
    9CHTO  C124 3412   7.472   4.611   4.880 -0.5957 -0.3912  0.5026
    9CHTO   O83 3413   7.601   4.583   4.858  0.3725 -0.2584 -0.2025
    9CHTO  H204 3414   7.630   4.603   4.771 -4.2549  0.8416 -1.6387
    9CHTO  C109 3415   7.451   4.793   4.691 -0.6718  0.5644 -0.0695
    9CHTO  H213 3416   7.560   4.790   4.675 -0.6357  0.3638  0.2076
    9CHTO  C110 3417   7.387   4.938   4.672 -0.3096  0.2396 -0.0649
    9CHTO  H214 3418   7.279   4.929   4.670 -0.0540 -3.3438 -0.0714
    9CHTO   O78 3419   7.417   4.995   4.542  0.3609  0.8271 -0.7719
    9CHTO  H200 3420   7.509   5.007   4.535  0.4260  0.6741 -0.1940
    9CHTO  C111 3421   7.424   5.038   4.784 -0.7799 -0.4565 -0.4115
    9CHTO  H215 3422   7.530   5.069   4.774 -0.9693  0.7776  1.2066
    9CHTO   N19 3423   7.345   5.166   4.779 -0.1640 -0.2928 -0.4356
    9CHTO  H207 3424   7.368   5.236   4.858 -0.3045 -0.9669  0.2131
    9CHTO  H208 3425   7.353   5.212   4.682  0.6393  2.7441  1.0248
    9CHTO   O74 3426   7.390   4.696   4.598 -0.2059 -0.0735 -0.1047
    9CHTO  C115 3427   7.470   4.670   4.458 -0.0985  0.3178  0.3874
    9CHTO  H219 3428   7.528   4.757   4.426  0.6041  0.3899  1.8205
    9CHTO   O76 3429   7.575   4.546   4.473  0.3763 -0.4999 -0.1176
    9CHTO  C122 3430   7.507   4.419   4.498  0.4226  0.1154  0.3210
    9CHTO  H226 3431   7.454   4.431   4.592 -1.6025  1.0010 -0.9051
    9CHTO  C126 3432   7.605   4.311   4.523  0.7237 -0.2187 -0.7848
    9CHTO   O85 3433   7.694   4.327   4.632 -0.3513 -0.2979  0.5034
    9CHTO  H206 3434   7.782   4.305   4.608 -0.5806 -0.6246 -0.0612
    9CHTO  C121 3435   7.401   4.392   4.389  0.0895 -0.1049 -0.2744
    9CHTO  H225 3436   7.452   4.380   4.291 -2.1151 -2.4244 -1.2157
    9CHTO   O81 3437   7.325   4.276   4.421  0.3885 -0.9203 -0.3703
    9CHTO  H202 3438   7.269   4.299   4.492  0.6562 -1.2746 -0.0424
    9CHTO  C119 3439   7.295   4.510   4.371 -0.3507 -0.1422 -0.5485
    9CHTO  H223 3440   7.235   4.479   4.286 -1.0562  0.2290 -0.1940
    9CHTO  C117 3441   7.364   4.650   4.341 -0.3924  0.3197  0.2131
    9CHTO  H221 3442   7.303   4.741   4.341 -1.0912 -0.1229 -1.6510
    9CHTO   N20 3443   7.441   4.658   4.210  0.0203 -0.0981 -0.4003
    9CHTO  H209 3444   7.456   4.761   4.184  2.0172 -0.0810  0.7488
    9CHTO  H210 3445   7.406   4.587   4.136  0.2460  0.2722 -0.8597
    9CHTO   O80 3446   7.193   4.512   4.480 -0.1903 -0.2591 -0.8147
    9CHTO  C103 3447   7.056   4.620   4.457 -0.0701  0.1369  0.2721
    9CHTO  H190 3448   7.092   4.722   4.443  1.0171 -0.4326 -1.1260
    9CHTO  C101 3449   6.970   4.580   4.332 -0.3684 -0.4026  0.2246
    9CHTO  H188 3450   6.944   4.475   4.337 -0.4877 -0.3789  0.1107
    9CHTO   O68 3451   7.050   4.599   4.180 -0.5903 -0.6298 -0.0469
    9CHTO  H168 3452   6.991   4.652   4.130  1.5350 -0.3983 -2.3574
    9CHTO   C99 3453   6.830   4.659   4.334  0.2922  0.2020  0.3973
    9CHTO  H186 3454   6.845   4.764   4.301  1.2270 -0.1449 -0.2809
    9CHTO   N17 3455   6.726   4.599   4.242  0.5264 -0.4806  0.4570
    9CHTO  H174 3456   6.684   4.511   4.288  0.7014 -1.2741 -0.8856
    9CHTO  H175 3457   6.780   4.571   4.153 -1.9157  0.1604 -1.2522
    9CHTO   C97 3458   6.771   4.671   4.477  0.0323  0.2738 -0.2760
    9CHTO  H184 3459   6.722   4.577   4.503  2.1361 -0.6437  0.4473
    9CHTO   O64 3460   6.863   4.710   4.579 -0.0323  0.5536  0.0189
    9CHTO  C104 3461   6.970   4.616   4.593 -0.8917  0.0006 -0.1706
    9CHTO  H191 3462   6.943   4.513   4.614  0.7061 -0.7160 -1.5784
    9CHTO  C108 3463   7.064   4.663   4.704 -0.3066 -0.3714  0.6268
    9CHTO   O71 3464   7.004   4.636   4.836 -0.1622 -0.2357  0.0182
    9CHTO  H171 3465   7.032   4.549   4.857  2.6777  0.7021  0.2737
    9CHTO   O62 3466   6.677   4.778   4.480  0.2368  0.7293 -0.2494
    9CHTO   C91 3467   6.541   4.754   4.502 -0.7068 -0.3736 -0.1088
    9CHTO  H178 3468   6.512   4.678   4.430 -0.3567 -0.3210 -0.3074
    9CHTO   C92 3469   6.449   4.874   4.475  0.9272 -0.0851 -0.5557
    9CHTO  H179 3470   6.485   4.918   4.381  1.9672 -0.8171 -0.5178
    9CHTO   O66 3471   6.311   4.824   4.453 -0.3057  0.7475 -0.2612
    9CHTO  H166 3472   6.276   4.813   4.539  3.6899  1.0369  1.5325
    9CHTO   C93 3473   6.438   4.979   4.593 -0.2081  0.6920  0.5578
    9CHTO  H180 3474   6.358   5.049   4.565 -0.0981  1.0645  1.1685
    9CHTO   N16 3475   6.561   5.068   4.605 -0.2747 -0.0818  0.8902
    9CHTO  H172 3476   6.630   5.040   4.527 -0.1151 -0.6207  1.2224
    9CHTO  H173 3477   6.597   5.054   4.705  0.0274 -3.2779  0.4031
    9CHTO   C94 3478   6.408   4.921   4.729  0.6332  0.0065 -0.6528
    9CHTO  H181 3479   6.483   4.943   4.804  0.0729 -0.7931  0.1494
    9CHTO   O61 3480   6.393   4.774   4.724 -0.0472 -1.0257 -0.0782
    9CHTO   C95 3481   6.493   4.698   4.648  0.5430 -0.3234 -0.1041
    9CHTO  H182 3482   6.582   4.686   4.710 -0.4652 -0.2515  1.3794
    9CHTO  C106 3483   6.452   4.554   4.623 -0.1373  0.2260 -0.2911
    9CHTO   O69 3484   6.402   4.487   4.739 -0.4317  0.5374 -0.4455
    9CHTO  H169 3485   6.378   4.549   4.805  1.1123  0.5538  0.1185
    9CHTO   O63 3486   6.278   4.969   4.781  0.2971 -0.2157  0.6935
    9CHTO   C96 3487   6.284   5.060   4.903  0.8426  0.2653 -0.0019
    9CHTO  H183 3488   6.369   5.127   4.888  0.5987  0.4529 -0.5566
    9CHTO   C98 3489   6.311   4.983   5.034 -0.1388 -0.0087  0.1434
    9CHTO  H185 3490   6.386   4.904   5.017 -0.9382 -0.7597  0.1050
    9CHTO   O67 3491   6.371   5.066   5.134 -0.1052 -0.0597  0.4107
    9CHTO  H167 3492   6.322   5.143   5.153 -0.6383 -0.2253 -0.2592
    9CHTO  C102 3493   6.176   4.930   5.107 -0.4858 -0.5459  0.1613
    9CHTO  H189 3494   6.201   4.908   5.212 -0.0657  2.7159  0.8066
    9CHTO   N18 3495   6.119   4.805   5.053  0.2553 -0.2670 -0.2614
    9CHTO  H176 3496   6.078   4.822   4.954  0.8018  1.4815 -0.1967
    9CHTO  H177 3497   6.195   4.729   5.060 -1.8101 -2.3776 -0.1079
    9CHTO  C105 3498   6.074   5.045   5.122  0.0851 -0.1981 -0.8559
    9CHTO  H192 3499   5.974   5.012   5.094 -0.2078 -0.4926  0.5243
    9CHTO   O65 3500   6.109   5.160   5.046 -0.0269  0.2741 -0.2883
    9CHTO  C100 3501   6.145   5.143   4.909 -0.3079 -0.4256 -0.1075
    9CHTO  H187 3502   6.071   5.084   4.855 -0.8178 -0.2943  0.4453
    9CHTO  C107 3503   6.151   5.279   4.856 -0.1456  0.7363  0.1780
    9CHTO   O70 3504   6.015   5.335   4.838  0.6972 -0.6685 -0.8708
    9CHTO  H170 3505   6.013   5.426   4.860  1.6409 -0.5729 -1.1514
    9CHTO   O57 3506   6.076   5.082   5.272  0.0610 -0.2186 -0.2634
    9CHTO   C85 3507   5.964   5.127   5.356  0.2526 -0.1076 -1.1864
    9CHTO  H157 3508   5.883   5.053   5.345  0.2655 -0.3426  0.1755
    9CHTO   C83 3509   5.899   5.260   5.305  0.4161 -0.0024  0.2011
    9CHTO  H155 3510   5.848   5.242   5.211  0.1171 -0.6707  0.4899
    9CHTO   O56 3511   6.010   5.347   5.276 -0.1864 -0.0268  0.0949
    9CHTO  H135 3512   6.096   5.311   5.288  0.4720  1.5933  0.4121
    9CHTO   C81 3513   5.789   5.314   5.405  0.6235  0.2753  0.3632
    9CHTO  H153 3514   5.720   5.233   5.428  1.3248  0.5518  3.7311
    9CHTO   N14 3515   5.703   5.424   5.346  0.5899 -0.6551  0.0202
    9CHTO  H141 3516   5.604   5.387   5.327  1.0608 -1.4913 -0.8986
    9CHTO  H142 3517   5.696   5.525   5.380 -3.8184 -0.3799 -1.3705
    9CHTO   C79 3518   5.860   5.355   5.542  0.4882  0.1872  0.0276
    9CHTO  H151 3519   5.780   5.382   5.611  1.7148  0.5153  1.3174
    9CHTO   O52 3520   5.924   5.241   5.595 -0.0762  0.1914  0.3029
    9CHTO   C86 3521   6.004   5.151   5.510 -0.3543  0.6506 -0.0986
    9CHTO  H158 3522   6.098   5.208   5.522 -1.2644  1.6139  3.0908
    9CHTO   C90 3523   6.024   5.007   5.576  0.3773  0.3731  0.1540
    9CHTO   O60 3524   6.086   5.023   5.707 -0.0528 -0.1882  0.3278
    9CHTO  H138 3525   6.159   4.964   5.711  0.2418  0.1678  0.1865
    9CHTO   O50 3526   5.955   5.452   5.524 -0.4330  0.1198 -0.2935
    9CHTO   C73 3527   5.995   5.580   5.576  0.7769  0.0425 -0.1564
    9CHTO  H145 3528   5.962   5.589   5.681  1.4090  0.8293 -0.0201
    9CHTO   C74 3529   5.941   5.704   5.497  0.3507 -0.6619  0.1786
    9CHTO  H146 3530   5.832   5.708   5.510  0.2035  1.2570 -1.4386
    9CHTO   O54 3531   5.992   5.818   5.561  0.2559  0.0106  0.3292
    9CHTO  H133 3532   6.052   5.872   5.514  0.0631  0.9583  1.1703
    9CHTO   C75 3533   5.980   5.681   5.349  0.1457 -0.2557  0.0511
    9CHTO  H147 3534   5.936   5.584   5.321  1.1069 -0.8044  0.3921
    9CHTO   N13 3535   5.911   5.781   5.265  0.2219  0.2230 -0.1917
    9CHTO  H139 3536   5.903   5.868   5.329 -2.5318  1.4830 -2.1375
    9CHTO  H140 3537   5.986   5.793   5.188  0.5796  2.9600  0.5260
    9CHTO   C76 3538   6.139   5.669   5.336  1.3321 -0.1158  0.1931
    9CHTO  H148 3539   6.183   5.767   5.357 -1.6584  1.1732  0.6741
    9CHTO   O49 3540   6.198   5.578   5.438 -0.2739 -0.2930 -0.2560
    9CHTO   C77 3541   6.151   5.588   5.575 -0.0234 -0.3051 -0.3760
    9CHTO  H149 3542   6.183   5.683   5.618  1.5733 -0.5420 -1.0159
    9CHTO   C88 3543   6.215   5.475   5.651 -0.1230  0.3399  0.0476
    9CHTO   O58 3544   6.186   5.495   5.816  0.1918 -0.3623 -0.4353
    9CHTO  H136 3545   6.209   5.426   5.876  1.2025  0.6381  0.3431
    9CHTO   O51 3546   6.161   5.606   5.209  0.2243  0.5354  0.0405
    9CHTO   C78 3547   6.315   5.613   5.163  0.4799  0.7963 -0.5688
    9CHTO  H150 3548   6.386   5.642   5.244  1.3380  0.0827 -1.0512
    9CHTO   C80 3549   6.319   5.712   5.050  0.4347 -0.3311  0.5535
    9CHTO  H152 3550   6.231   5.693   4.986 -0.8955 -0.2349  2.3275
    9CHTO   O55 3551   6.313   5.842   5.102  0.7464 -0.3038 -0.2379
    9CHTO  H134 3552   6.242   5.855   5.162 -0.8925 -1.5335 -1.8688
    9CHTO   C84 3553   6.463   5.706   4.966  0.8249 -0.9374  0.6111
    9CHTO  H156 3554   6.543   5.738   5.033 -1.6376  0.5507  2.9271
    9CHTO   N15 3555   6.471   5.799   4.847  0.4030 -0.6458 -0.3082
    9CHTO  H143 3556   6.395   5.875   4.852 -0.3301 -1.3450 -0.7803
    9CHTO  H144 3557   6.460   5.748   4.754  0.4407  0.6137 -1.0130
    9CHTO   C87 3558   6.496   5.557   4.935  0.4367 -0.4246 -0.8449
    9CHTO  H159 3559   6.444   5.511   4.851  0.9422  2.0730 -2.5914
    9CHTO   O53 3560   6.490   5.482   5.053 -0.7861  0.0317 -0.4012
    9CHTO   C82 3561   6.367   5.471   5.123  0.3324 -0.0722  0.1846
    9CHTO  H154 3562   6.300   5.413   5.059  0.8860  0.7099 -1.1258
    9CHTO   C89 3563   6.402   5.381   5.242 -0.0157  0.0162  0.1372
    9CHTO   O59 3564   6.288   5.319   5.303 -0.2370  0.1158 -0.1000
    9CHTO  H137 3565   6.247   5.259   5.244  0.8492 -0.9654  0.2324
    9CHTO   O45 3566   6.650   5.551   4.895 -0.4391 -1.2788  1.0561
    9CHTO   C67 3567   6.743   5.465   4.941 -0.5302  1.0312  0.8228
    9CHTO  H124 3568   6.712   5.421   5.036 -0.8635  1.7606  1.0591
    9CHTO   C65 3569   6.776   5.351   4.838  0.3683  0.4899  0.3295
    9CHTO  H122 3570   6.762   5.400   4.742  0.2511  0.2170  0.2078
    9CHTO   O44 3571   6.669   5.258   4.857 -0.0402  0.2358 -0.5944
    9CHTO  H102 3572   6.581   5.289   4.853 -0.5229 -1.3573 -3.2662
    9CHTO   C63 3573   6.926   5.294   4.835  0.0213  0.5947  0.3478
    9CHTO  H120 3574   6.980   5.368   4.776 -3.6659  1.5066 -2.0666
    9CHTO   N11 3575   6.958   5.164   4.771 -0.3798  0.2154 -0.3031
    9CHTO  H108 3576   6.911   5.084   4.823 -1.3956  0.9033 -0.1414
    9CHTO  H109 3577   7.064   5.150   4.772 -0.4666 -0.3929  0.6059
    9CHTO   C61 3578   6.975   5.303   4.989 -0.0921  0.4523  0.6728
    9CHTO  H118 3579   7.078   5.264   4.983 -1.1600 -2.2693 -1.4044
    9CHTO   O40 3580   6.975   5.444   5.033  0.0423 -0.4300 -0.0680
    9CHTO   C68 3581   6.878   5.546   4.976 -0.0090 -0.1187 -0.1031
    9CHTO  H125 3582   6.910   5.597   4.883  0.7524  1.1120  0.8257
    9CHTO   C72 3583   6.850   5.655   5.080 -0.4041  0.0413  0.1447
    9CHTO   O48 3584   6.834   5.783   5.034 -0.3403 -0.4226 -0.4984
    9CHTO  H105 3585   6.908   5.820   4.990 -2.7813  2.7608 -2.1638
    9CHTO   O38 3586   6.898   5.228   5.072  0.3719  0.9999 -0.3450
    9CHTO   C55 3587   6.953   5.167   5.186  0.6405 -1.1483 -0.8846
    9CHTO  H112 3588   7.058   5.196   5.202 -0.0258 -0.8140  3.7478
    9CHTO   C56 3589   6.934   5.011   5.166  0.2891  0.2400 -0.4598
    9CHTO  H113 3590   6.829   4.984   5.145  0.8852 -3.2970  0.8091
    9CHTO   O42 3591   7.015   4.976   5.051 -0.6900 -0.2423  0.0756
    9CHTO  H100 3592   7.106   4.997   5.060 -0.8778  0.6827 -0.1877
    9CHTO   C57 3593   6.987   4.939   5.295 -0.0503 -0.0043 -0.0311
    9CHTO  H114 3594   7.092   4.970   5.298  0.6075 -2.2645  1.4539
    9CHTO   N10 3595   6.989   4.791   5.299 -0.4435  0.3834 -0.7161
    9CHTO  H106 3596   7.020   4.751   5.204  0.4644 -0.5391 -0.0458
    9CHTO  H107 3597   7.068   4.769   5.370  1.9243  0.3306 -3.2525
    9CHTO   C58 3598   6.902   4.995   5.412 -0.0308  0.4573 -0.5814
    9CHTO  H115 3599   6.795   4.967   5.401  0.0995 -1.2983  2.1200
    9CHTO   O37 3600   6.908   5.139   5.427  0.0758  0.1627 -0.1473
    9CHTO   C59 3601   6.867   5.214   5.312 -0.1107  0.3514  0.3687
    9CHTO  H116 3602   6.761   5.198   5.292 -0.5995  2.2194  1.4029
    9CHTO   C70 3603   6.885   5.359   5.352  0.1483 -0.0894  0.1322
    9CHTO   O46 3604   6.781   5.410   5.429  0.0704 -0.2805  0.0009
    9CHTO  H103 3605   6.805   5.433   5.517 -0.7890  0.4122  0.0583
    9CHTO   O39 3606   6.962   4.932   5.552 -0.3733  0.0932 -0.5159
    9CHTO   C60 3607   6.867   4.898   5.652 -0.1609 -0.6580 -0.3575
    9CHTO  H117 3608   6.780   4.963   5.637 -1.5060 -2.8955 -2.7796
    9CHTO   C62 3609   6.823   4.751   5.644  0.1013 -0.4408  0.1086
    9CHTO  H119 3610   6.759   4.741   5.554 -0.9840 -3.0273  1.1216
    9CHTO   O43 3611   6.937   4.656   5.641 -0.3433 -0.2629  0.5611
    9CHTO  H101 3612   7.001   4.689   5.581  0.8035  1.4460  2.6812
    9CHTO   C66 3613   6.725   4.729   5.764 -0.0459  0.3900 -0.7056
    9CHTO  H123 3614   6.637   4.792   5.750 -1.1976 -0.6905  1.3923
    9CHTO   N12 3615   6.676   4.588   5.758 -0.3606 -0.5649  0.1193
    9CHTO  H110 3616   6.682   4.549   5.657  0.2625  1.5973 -0.6981
    9CHTO  H111 3617   6.574   4.590   5.794 -0.7231  1.3516 -0.9440
    9CHTO   C69 3618   6.794   4.766   5.900 -0.1593 -0.5307  0.1775
    9CHTO  H126 3619   6.878   4.694   5.912 -0.2778 -0.3733  2.1964
    9CHTO   O41 3620   6.834   4.911   5.905 -0.2492 -0.8241 -0.0726
    9CHTO   C64 3621   6.933   4.933   5.790 -0.2304 -0.6247  0.0279
    9CHTO  H121 3622   7.022   4.866   5.796 -0.0375 -0.2564  1.3861
    9CHTO   C71 3623   6.978   5.081   5.812 -0.2096 -0.6452  0.6787
    9CHTO   O47 3624   7.056   5.124   5.928 -0.3679  0.3524  0.5398
    9CHTO  H104 3625   7.022   5.075   6.001 -0.7208  1.2674  0.9923
    9CHTO   O34 3626   6.681   4.752   6.023 -0.3131  0.0813  1.4128
    9CHTO   C49 3627   6.680   4.719   6.171 -0.2732 -0.2209 -0.6152
    9CHTO   H91 3628   6.574   4.727   6.194 -0.2447 -0.6425 -0.3214
    9CHTO   C47 3629   6.762   4.827   6.253 -0.0978 -0.3510 -0.1504
    9CHTO   H89 3630   6.721   4.825   6.356  1.4100 -0.2860  0.4497
    9CHTO   O33 3631   6.744   4.957   6.194  0.1036  0.0608 -0.4119
    9CHTO   H70 3632   6.746   4.954   6.100 -0.8798 -1.7779 -0.3887
    9CHTO   C45 3633   6.921   4.798   6.268 -0.1979 -0.4777 -0.4530
    9CHTO   H87 3634   6.980   4.880   6.224  3.5769 -1.4994  2.3900
    9CHTO    N8 3635   6.965   4.793   6.407  0.5327  0.1669  0.7329
    9CHTO   H75 3636   7.008   4.695   6.423  0.9477 -0.1965 -2.3780
    9CHTO   H76 3637   6.885   4.809   6.478  1.0570  1.0098  1.1500
    9CHTO   C43 3638   6.963   4.663   6.192 -0.4350 -0.3128 -0.3983
    9CHTO   H85 3639   6.953   4.679   6.085 -0.4967 -0.3112 -0.3923
    9CHTO   O29 3640   6.868   4.562   6.237 -0.3321  0.2151  0.4838
    9CHTO   C50 3641   6.731   4.573   6.206 -0.1180  0.3402 -0.6299
    9CHTO   H92 3642   6.713   4.520   6.111 -0.8843 -1.5717  0.5481
    9CHTO   C54 3643   6.650   4.498   6.324  0.0651 -0.1485  0.7088
    9CHTO   O36 3644   6.636   4.587   6.435 -0.3085  0.0722 -0.1879
    9CHTO   H72 3645   6.584   4.661   6.411 -2.6118 -1.6552 -0.7045
    9CHTO   O27 3646   7.101   4.635   6.203  0.4306  0.2833 -0.4784
    9CHTO   C37 3647   7.225   4.654   6.137  0.0295 -0.4964 -0.3207
    9CHTO   H79 3648   7.286   4.563   6.146 -0.5008 -0.7743  0.5260
    9CHTO   C38 3649   7.201   4.678   5.982 -0.4638 -0.4885  0.1998
    9CHTO   H80 3650   7.126   4.757   5.971  0.5334  0.3637 -0.5669
    9CHTO   O31 3651   7.149   4.556   5.931  0.2823 -0.0761 -0.5298
    9CHTO   H68 3652   7.122   4.571   5.843  0.5513  1.8382 -0.3048
    9CHTO   C39 3653   7.334   4.721   5.904  0.0890 -0.3373 -0.3943
    9CHTO   H81 3654   7.404   4.638   5.904  1.9661  1.1975  1.0178
    9CHTO    N7 3655   7.320   4.749   5.755 -0.4174 -0.2846  0.5642
    9CHTO   H73 3656   7.308   4.673   5.679 -2.8783  1.2146 -0.6147
    9CHTO   H74 3657   7.308   4.851   5.722 -1.2337 -1.1048 -1.7796
    9CHTO   C40 3658   7.391   4.841   5.988 -0.2812  0.0072 -0.6620
    9CHTO   H82 3659   7.319   4.923   5.981  0.7237  0.9281 -0.3904
    9CHTO   O26 3660   7.417   4.799   6.120  0.2977  0.1541 -0.6788
    9CHTO   C41 3661   7.299   4.773   6.198 -0.3754 -0.1152 -0.3914
    9CHTO   H83 3662   7.233   4.861   6.196 -1.0705 -0.5908  1.1682
    9CHTO   C52 3663   7.326   4.746   6.344 -0.1521 -0.4378  0.2437
    9CHTO   O35 3664   7.346   4.885   6.422  0.1459 -0.0402  0.1911
    9CHTO   H71 3665   7.273   4.941   6.406 -0.2648 -0.2097  1.3941
    9CHTO   O28 3666   7.513   4.880   5.933 -0.1899 -0.1219  0.3231
    9CHTO   C42 3667   7.571   5.017   5.954  0.2946 -0.3439  0.8084
    9CHTO   H84 3668   7.676   5.010   5.926  0.4439 -2.3622  1.8391
    9CHTO   C44 3669   7.581   5.069   6.104  0.1720  0.4282 -0.2486
    9CHTO   H86 3670   7.492   5.040   6.161  1.8847 -1.2864  1.6124
    9CHTO   O32 3671   7.703   5.001   6.156 -0.0877  0.0128  0.2458
    9CHTO   H69 3672   7.771   5.057   6.189 -0.4573  1.6295 -1.6240
    9CHTO   C48 3673   7.596   5.226   6.125  0.1092  0.0279 -0.8685
    9CHTO   H90 3674   7.690   5.269   6.092 -0.2163  1.9864  0.6559
    9CHTO    N9 3675   7.589   5.269   6.269 -0.3710 -0.0204 -0.4218
    9CHTO   H77 3676   7.533   5.359   6.288  1.0594  0.3224  2.5432
    9CHTO   H78 3677   7.688   5.299   6.301 -0.4190 -0.8447  0.5140
    9CHTO   C51 3678   7.489   5.289   6.028  0.0833 -0.4145 -0.1814
    9CHTO   H93 3679   7.389   5.253   6.054  0.5357 -0.7827  1.0906
    9CHTO   O30 3680   7.527   5.260   5.893 -0.1861  0.1916  0.0579
    9CHTO   C46 3681   7.497   5.124   5.864 -0.4057 -0.1356 -0.1677
    9CHTO   H88 3682   7.392   5.098   5.866 -0.5291  0.4020  0.3858
    9CHTO   C53 3683   7.536   5.096   5.718 -0.0251 -0.2773  0.2769
    9CHTO   O72 3684   7.675   5.119   5.678  0.1695 -0.1978  0.4774
    9CHTO  H199 3685   7.690   5.165   5.598  1.6450 -1.6668 -0.1132
    9CHTO   O22 3686   7.493   5.436   6.034 -0.0352  0.0339  0.2545
    9CHTO   C31 3687   7.373   5.511   5.989 -0.5566 -0.4635 -0.2696
    9CHTO   H59 3688   7.402   5.618   5.990  0.0720 -0.6344  0.8584
    9CHTO   C29 3689   7.309   5.483   5.847  0.3220 -0.2652  0.6438
    9CHTO   H57 3690   7.285   5.376   5.843 -1.1677  0.0797 -0.0514
    9CHTO   O21 3691   7.409   5.523   5.746 -0.0854 -0.4363  0.6581
    9CHTO   H37 3692   7.380   5.493   5.662  1.5428  3.0912 -1.2559
    9CHTO   C27 3693   7.176   5.557   5.806 -0.5164  0.1489 -0.9361
    9CHTO   H55 3694   7.202   5.664   5.806  0.6405 -0.1004  1.2869
    9CHTO    N5 3695   7.113   5.524   5.671  0.4526  0.1549  0.5583
    9CHTO   H43 3696   7.170   5.557   5.585 -0.8429  0.3236 -0.2394
    9CHTO   H44 3697   7.006   5.514   5.672  0.5401 -0.7289  1.8541
    9CHTO   C25 3698   7.087   5.523   5.931  0.4153  0.2373  0.0699
    9CHTO   H53 3699   7.077   5.413   5.934  3.3340 -0.0502  1.1599
    9CHTO   O17 3700   7.144   5.581   6.058  0.4372  0.2697 -0.1425
    9CHTO   C32 3701   7.257   5.500   6.093  0.1592 -0.2431  0.0882
    9CHTO   H60 3702   7.215   5.399   6.092  1.2835 -0.7343  1.0173
    9CHTO   C36 3703   7.299   5.536   6.236 -0.0321  0.2169  0.5261
    9CHTO   O25 3704   7.191   5.514   6.330  0.0914  0.3356 -0.5726
    9CHTO   H40 3705   7.166   5.425   6.348 -1.6899  0.9915  0.2336
    9CHTO   O15 3706   6.938   5.591   5.920  0.1852  0.1859  0.7310
    9CHTO   C19 3707   6.805   5.528   5.911 -0.2634 -0.1578  0.4027
    9CHTO   H47 3708   6.730   5.609   5.915 -0.6353 -0.2530 -3.2490
    9CHTO   C20 3709   6.767   5.461   5.778 -0.0012 -0.6017 -0.3899
    9CHTO   H48 3710   6.835   5.378   5.755  1.1696  0.5853 -1.2497
    9CHTO   O19 3711   6.791   5.558   5.672  0.0593 -0.1372 -0.3680
    9CHTO   H35 3712   6.734   5.542   5.599  0.8773  1.4208 -1.3807
    9CHTO   C21 3713   6.613   5.420   5.780  0.5699  0.5972  0.5158
    9CHTO   H49 3714   6.554   5.509   5.801  0.8796  0.6309  1.2530
    9CHTO    N4 3715   6.568   5.345   5.656  0.2232  0.0079 -0.1583
    9CHTO   H41 3716   6.652   5.351   5.589  1.5226  1.9255  1.5516
    9CHTO   H42 3717   6.480   5.395   5.619  0.6098  1.0496  0.3074
    9CHTO   C22 3718   6.590   5.331   5.912  0.5554 -0.5771 -0.1661
    9CHTO   H50 3719   6.644   5.236   5.904 -0.2452 -0.9370 -1.4224
    9CHTO   O14 3720   6.635   5.402   6.033 -0.4071  0.3177 -0.0478
    9CHTO   C23 3721   6.771   5.439   6.028 -0.1280 -0.5177  0.0858
    9CHTO   H51 3722   6.827   5.344   6.017  2.5626  1.2432 -2.1308
    9CHTO   C34 3723   6.789   5.501   6.167 -0.6937  0.5095  0.3610
    9CHTO   O23 3724   6.772   5.402   6.275  0.4842  0.1090  0.1803
    9CHTO   H38 3725   6.848   5.391   6.329 -1.1612 -2.7855  2.0052
    9CHTO   O16 3726   6.450   5.300   5.931  0.6147  0.2497  0.5913
    9CHTO   C24 3727   6.419   5.171   6.023 -0.2554  0.2938  0.5489
    9CHTO   H52 3728   6.488   5.161   6.106  0.0979  1.5704  0.4122
    9CHTO   C26 3729   6.406   5.041   5.932 -0.2599 -0.1580  0.2746
    9CHTO   H54 3730   6.341   5.057   5.843  0.9551 -2.9141 -1.1732
    9CHTO   O20 3731   6.540   5.012   5.889  0.6150 -0.6099  0.0528
    9CHTO   H36 3732   6.555   5.069   5.816 -0.2860 -1.6040 -0.9346
    9CHTO   C30 3733   6.353   4.927   6.020  0.2200 -0.1448 -0.1570
    9CHTO   H58 3734   6.424   4.908   6.102  0.9107  0.5399 -0.5952
    9CHTO    N6 3735   6.344   4.793   5.948  0.1138  0.3683 -0.8816
    9CHTO   H45 3736   6.444   4.761   5.923  1.3654  1.2114  2.7675
    9CHTO   H46 3737   6.302   4.711   6.005  0.9231 -1.1470 -2.3911
    9CHTO   C33 3738   6.222   4.973   6.090 -0.1537  0.7599 -0.3809
    9CHTO   H61 3739   6.137   4.981   6.020  0.2117  1.0269 -0.7958
    9CHTO   O18 3740   6.228   5.103   6.157 -0.2965 -0.3105  0.2691
    9CHTO   C28 3741   6.289   5.212   6.081 -0.2359 -0.0918 -0.3519
    9CHTO   H56 3742   6.222   5.250   6.004 -1.7891  0.6113  1.2993
    9CHTO   C35 3743   6.313   5.334   6.179  0.1051 -0.2318 -0.2552
    9CHTO   O24 3744   6.189   5.377   6.229 -0.3885  0.3133  0.4604
    9CHTO   H39 3745   6.190   5.470   6.242  0.7539  0.3563  0.0762
    9CHTO    O9 3746   6.192   4.869   6.186 -1.0795  0.1091 -0.1244
    9CHTO   C13 3747   6.045   4.857   6.233  0.0079  0.5630  0.3099
    9CHTO   H26 3748   5.988   4.854   6.137 -3.7338  0.9844  2.4204
    9CHTO   C11 3749   5.997   4.978   6.322  0.3108  0.4119  0.0804
    9CHTO   H24 3750   5.963   5.059   6.256  0.3129 -0.9722 -1.6564
    9CHTO    O8 3751   6.100   5.021   6.411  0.0376 -0.0234 -0.1515
    9CHTO    H3 3752   6.065   5.096   6.455  0.8340  0.2974 -0.0635
    9CHTO    C9 3753   5.876   4.931   6.411 -0.0109  0.2498  0.0286
    9CHTO   H22 3754   5.801   4.890   6.341 -0.5038  0.3280  0.5063
    9CHTO    N2 3755   5.805   5.048   6.473 -0.8844 -0.0557 -0.3288
    9CHTO   H10 3756   5.698   5.060   6.463 -0.9317 -0.7207 -0.6526
    9CHTO   H11 3757   5.825   5.061   6.578  0.4197  1.2367 -0.7183
    9CHTO    C7 3758   5.920   4.823   6.512  0.2313  0.4416 -0.7969
    9CHTO   H20 3759   5.823   4.769   6.510  0.5895 -0.1780 -2.0780
    9CHTO    O4 3760   6.019   4.731   6.452  0.1293  0.0449  0.5818
    9CHTO   C14 3761   6.022   4.718   6.306 -0.5454 -0.1372  0.0758
    9CHTO   H27 3762   5.919   4.686   6.283 -0.8304  0.8154  0.0118
    9CHTO   C18 3763   6.120   4.601   6.265  0.2027  0.1789 -0.0598
    9CHTO   O13 3764   6.256   4.614   6.310  0.0083  0.0707 -0.5644
    9CHTO    H7 3765   6.249   4.561   6.387 -0.6963  1.4882  0.3705
    9CHTO    O2 3766   5.976   4.879   6.649 -0.4121  0.1854 -0.2222
    9CHTO    C1 3767   5.998   4.773   6.746 -1.1974  0.1031 -0.5628
    9CHTO   H14 3768   5.995   4.673   6.696 -0.0452  0.6460 -1.7583
    9CHTO    C2 3769   5.887   4.773   6.859 -0.2976  0.0263 -0.3171
    9CHTO   H15 3770   5.891   4.878   6.894  1.9182 -0.9964  2.6692
    9CHTO    O6 3771   5.755   4.752   6.807  0.0241  0.5310 -0.3611
    9CHTO    H1 3772   5.714   4.834   6.788  1.9034  1.0802 -2.2373
    9CHTO    C3 3773   5.911   4.664   6.971 -0.0882 -0.4353 -0.0006
    9CHTO   H16 3774   5.895   4.562   6.934  0.7853 -0.2421 -0.9056
    9CHTO    N1 3775   5.820   4.685   7.089  0.2935  0.1487  0.3109
    9CHTO    H8 3776   5.756   4.598   7.096  0.9083 -0.3140  0.2434
    9CHTO    H9 3777   5.760   4.772   7.071  1.3124  0.5479 -1.2225
    9CHTO    C4 3778   6.067   4.672   7.011 -0.9553 -0.5147 -0.2812
    9CHTO   H17 3779   6.087   4.760   7.072  0.1260 -0.2433 -0.9972
    9CHTO    O1 3780   6.159   4.669   6.895  0.5152  0.1382 -0.9113
    9CHTO    C5 3781   6.131   4.786   6.817  0.2153  0.2397 -0.0752
    9CHTO   H18 3782   6.130   4.874   6.882 -1.1602 -0.3228  0.7000
    9CHTO   C16 3783   6.242   4.809   6.718 -0.4704  0.3288 -0.3544
    9CHTO   O11 3784   6.352   4.887   6.764 -0.4105  0.1555  0.2598
    9CHTO    H5 3785   6.325   4.976   6.774  0.1725  0.6528 -2.1398
    9CHTO    O3 3786   6.100   4.565   7.095 -0.4088  0.8005  0.2327
    9CHTO    C6 3787   6.224   4.554   7.168 -0.3742  0.7422 -0.5848
    9CHTO   H19 3788   6.300   4.628   7.141  1.4304 -1.1383 -0.7910
    9CHTO    C8 3789   6.191   4.573   7.323  0.0672 -0.3499 -0.3230
    9CHTO   H21 3790   6.123   4.494   7.356 -1.1946  0.8920  0.0961
    9CHTO    O7 3791   6.131   4.705   7.331  0.1609  0.1936 -0.1612
    9CHTO    H2 3792   6.074   4.704   7.406 -0.8050  0.7321 -0.8804
    9CHTO   C12 3793   6.321   4.558   7.412  0.3097  0.1103  0.1296
    9CHTO   H25 3794   6.387   4.644   7.388  0.8770 -0.5057 -0.5596
    9CHTO    N3 3795   6.290   4.564   7.559 -0.1470 -0.1140  0.3508
    9CHTO   H12 3796   6.185   4.542   7.575 -0.2565  0.1560  0.0009
    9CHTO   H13 3797   6.354   4.497   7.615  0.7393 -0.2460 -0.8047
    9CHTO   C15 3798   6.395   4.430   7.361  0.4041 -0.3553  1.1766
    9CHTO   H28 3799   6.351   4.339   7.402 -0.2618 -1.4353 -1.8188
    9CHTO   O10 3800   6.537   4.443   7.397  0.4760 -0.1806 -0.1260
    9CHTO    H4 3801   6.556   4.421   7.487 -0.6932 -0.1638  0.1365
    9CHTO    O5 3802   6.411   4.417   7.214 -0.5584 -0.0130 -0.4500
    9CHTO   C10 3803   6.290   4.414   7.141  0.2397 -0.1648  0.3198
    9CHTO   H23 3804   6.223   4.339   7.184  0.4907 -0.1474  0.7472
    9CHTO   C17 3805   6.321   4.382   6.993  0.0558 -0.4550 -0.2964
    9CHTO   O12 3806   6.436   4.447   6.937 -0.0472 -0.3811 -0.0443
    9CHTO    H6 3807   6.479   4.400   6.869  0.9627 -1.6254  1.4352
   10CHTO  H203 3808   6.671   7.032   6.333 -0.8763  0.0978 -0.0319
   10CHTO   O82 3809   6.621   6.974   6.387  0.4916 -0.2675  0.8594
   10CHTO  C123 3810   6.498   7.042   6.426  0.1751  0.8695 -0.4661
   10CHTO  H227 3811   6.472   7.114   6.347 -0.9151  1.7187  0.6467
   10CHTO   O77 3812   6.405   6.932   6.427  0.8628 -0.3881  0.2068
   10CHTO  C118 3813   6.271   6.960   6.471  0.1636  0.1855 -0.3365
   10CHTO  H222 3814   6.213   7.026   6.405  2.2508  0.2900 -2.1005
   10CHTO  C125 3815   6.200   6.823   6.479 -0.2969  0.0170 -0.8619
   10CHTO   O84 3816   6.266   6.724   6.557 -0.0812  0.4711 -0.0990
   10CHTO  H205 3817   6.210   6.701   6.629 -1.3794  1.1578 -0.8697
   10CHTO  C114 3818   6.261   7.027   6.610  0.9113 -0.6697 -0.3699
   10CHTO  H218 3819   6.298   6.953   6.682 -0.5662 -0.4247  0.6841
   10CHTO  C116 3820   6.356   7.148   6.620 -0.0753  0.6081 -0.1298
   10CHTO  H220 3821   6.317   7.236   6.563  1.2323  0.9485 -0.5210
   10CHTO   O79 3822   6.352   7.184   6.757 -0.6677  0.0835  0.6000
   10CHTO  H201 3823   6.315   7.269   6.773 -1.5798 -0.1703 -0.1326
   10CHTO  C120 3824   6.502   7.103   6.570 -0.2729  0.7064  0.1040
   10CHTO  H224 3825   6.548   7.030   6.640 -0.3979  0.6397  0.1165
   10CHTO   N21 3826   6.591   7.222   6.577 -0.2300  0.5826  0.0020
   10CHTO  H211 3827   6.672   7.217   6.506 -0.5237 -2.3086 -0.1685
   10CHTO  H212 3828   6.613   7.231   6.682  0.8449 -0.3871 -0.1302
   10CHTO   O75 3829   6.124   7.055   6.641 -0.1310 -0.0625  0.0821
   10CHTO  C112 3830   6.081   6.994   6.792 -0.3326  0.0415  0.3303
   10CHTO  H216 3831   6.155   7.023   6.868  1.8608 -1.5875 -1.1012
   10CHTO   O73 3832   6.072   6.849   6.779 -0.2368  0.6288  0.3334
   10CHTO  C113 3833   6.034   6.788   6.894 -0.1542  0.0561  0.0839
   10CHTO  H217 3834   6.093   6.830   6.978 -1.4251  0.0672  0.9682
   10CHTO  C124 3835   6.052   6.639   6.889 -0.0846  0.0399  0.3574
   10CHTO   O83 3836   6.195   6.609   6.866  0.2873 -0.4091  1.0086
   10CHTO  H204 3837   6.236   6.690   6.842 -1.7206  0.5497  0.6896
   10CHTO  C109 3838   5.886   6.825   6.927  0.4185  0.1747  0.6843
   10CHTO  H213 3839   5.827   6.792   6.840  0.7363 -0.6031  0.7587
   10CHTO  C110 3840   5.878   6.977   6.940  0.2009  0.1070  0.3147
   10CHTO  H214 3841   5.929   6.989   7.035 -0.9129  1.3246  0.7799
   10CHTO   O78 3842   5.739   7.013   6.960  0.2317 -0.8068 -0.4222
   10CHTO  H200 3843   5.704   6.956   7.026  0.9869 -0.6462  0.1199
   10CHTO  C111 3844   5.947   7.054   6.825  0.4459 -0.4686  0.1185
   10CHTO  H215 3845   5.878   7.056   6.740 -0.8155  1.3404  1.1475
   10CHTO   N19 3846   5.968   7.198   6.860  0.0887  0.1903 -0.4396
   10CHTO  H207 3847   6.017   7.261   6.787  0.6955 -1.6746 -1.6828
   10CHTO  H208 3848   5.877   7.239   6.902  0.4848 -0.6664  1.2989
   10CHTO   O74 3849   5.841   6.759   7.044 -0.2183  0.1378  0.5088
   10CHTO  C115 3850   5.694   6.683   7.024 -0.9925 -0.8511 -0.1846
   10CHTO  H219 3851   5.655   6.688   6.923 -1.2567  0.4582 -0.0365
   10CHTO   O76 3852   5.708   6.531   7.051 -0.0561  0.0397  0.1064
   10CHTO  C122 3853   5.751   6.510   7.185 -0.7058 -0.5950 -0.2202
   10CHTO  H226 3854   5.851   6.553   7.197 -0.1953 -1.8596  0.1753
   10CHTO  C126 3855   5.767   6.356   7.210  0.2071 -0.3951 -0.2743
   10CHTO   O85 3856   5.884   6.298   7.141  0.5171 -0.0554  0.0404
   10CHTO  H206 3857   5.951   6.364   7.149  0.2320  0.0467  1.7762
   10CHTO  C121 3858   5.650   6.565   7.297  0.5484  0.3160 -0.1541
   10CHTO  H225 3859   5.605   6.477   7.348  4.0502 -1.3445  0.2950
   10CHTO   O81 3860   5.718   6.646   7.392 -0.3211 -0.5421 -0.5494
   10CHTO  H202 3861   5.787   6.588   7.419 -0.6847 -1.2004 -1.0176
   10CHTO  C119 3862   5.541   6.648   7.233  0.3881 -0.4228  0.4998
   10CHTO  H223 3863   5.482   6.573   7.180  0.4401  0.4797 -0.8626
   10CHTO  C117 3864   5.588   6.743   7.115 -0.4711 -0.1531  0.6634
   10CHTO  H221 3865   5.628   6.836   7.155 -0.9132 -0.2806  1.4087
   10CHTO   N20 3866   5.462   6.785   7.031 -0.4899  0.0468 -0.0972
   10CHTO  H209 3867   5.451   6.892   7.025  0.5618  0.1493 -0.3797
   10CHTO  H210 3868   5.442   6.738   6.936  1.9178 -1.5106  0.1056
   10CHTO   O80 3869   5.438   6.718   7.334  0.6588  0.3188  0.0146
   10CHTO  C103 3870   5.291   6.650   7.351  0.0861 -0.2176 -0.0643
   10CHTO  H190 3871   5.265   6.599   7.258 -2.2596 -1.3687  1.1931
   10CHTO  C101 3872   5.268   6.546   7.456  1.1039 -0.5264 -0.2373
   10CHTO  H188 3873   5.289   6.595   7.551 -0.7045 -0.3674  0.0985
   10CHTO   O68 3874   5.368   6.409   7.436  0.0273 -0.1397 -0.2203
   10CHTO  H168 3875   5.361   6.355   7.513 -1.0754  0.4900  0.1389
   10CHTO   C99 3876   5.114   6.498   7.460  0.0028  0.2206  0.0672
   10CHTO  H186 3877   5.092   6.450   7.362  1.3804  0.5222 -0.4021
   10CHTO   N17 3878   5.084   6.398   7.564 -0.6081  0.5960 -0.7212
   10CHTO  H174 3879   5.054   6.305   7.519  0.1153 -2.0287  3.8910
   10CHTO  H175 3880   5.154   6.391   7.646  0.2339 -0.6939 -1.5229
   10CHTO   C97 3881   5.015   6.620   7.475  0.2082 -0.4563  0.3314
   10CHTO  H184 3882   5.025   6.660   7.577  0.6497  0.9765 -0.2655
   10CHTO   O64 3883   5.046   6.716   7.375 -0.0326 -0.5249 -0.7758
   10CHTO  C104 3884   5.179   6.769   7.371 -0.3642  0.5083 -0.2929
   10CHTO  H191 3885   5.204   6.821   7.464  2.2090  1.4834 -1.4795
   10CHTO  C108 3886   5.177   6.874   7.255 -0.1192  0.1075  0.4771
   10CHTO   O71 3887   5.107   6.993   7.292 -0.4638  0.0159 -0.9553
   10CHTO  H171 3888   5.014   6.990   7.282 -0.6260  1.6481 -0.2105
   10CHTO   O62 3889   4.880   6.578   7.465  0.3537 -0.1972 -0.9327
   10CHTO   C91 3890   4.783   6.670   7.508 -0.5116 -0.2874 -0.3468
   10CHTO  H178 3891   4.802   6.678   7.615 -2.8591  0.8827  0.0071
   10CHTO   C92 3892   4.651   6.596   7.494  0.9519  0.2693  0.1716
   10CHTO  H179 3893   4.628   6.574   7.388 -2.4896  0.9291  0.7442
   10CHTO   O66 3894   4.652   6.464   7.560 -0.2052 -0.0184  0.0892
   10CHTO  H166 3895   4.728   6.428   7.600 -0.4961 -1.9864 -1.0344
   10CHTO   C93 3896   4.532   6.685   7.559 -0.6107 -0.4523  0.4695
   10CHTO  H180 3897   4.548   6.685   7.667  0.8189  0.9193  0.2806
   10CHTO   N16 3898   4.394   6.626   7.546  0.4353  0.1205 -0.2664
   10CHTO  H172 3899   4.388   6.566   7.456 -0.6254 -1.4184  0.8127
   10CHTO  H173 3900   4.313   6.697   7.548  0.5946  0.4040 -2.2040
   10CHTO   C94 3901   4.538   6.836   7.506  0.1907 -0.6057 -0.8701
   10CHTO  H181 3902   4.444   6.872   7.464  0.1112  2.1479  1.4845
   10CHTO   O61 3903   4.642   6.849   7.410 -0.1314  0.0816  0.6747
   10CHTO   C95 3904   4.775   6.805   7.429 -0.0657  0.2792 -0.6509
   10CHTO  H182 3905   4.822   6.783   7.333  0.4074  0.3313 -0.4352
   10CHTO  C106 3906   4.853   6.910   7.509  0.0323  0.1707  0.3398
   10CHTO   O69 3907   4.850   7.047   7.470  0.9131  0.2990 -0.7315
   10CHTO  H169 3908   4.935   7.078   7.495  0.8257  1.1482 -1.4655
   10CHTO   O63 3909   4.560   6.915   7.620  0.9001  0.2602 -0.3269
   10CHTO   C96 3910   4.450   7.037   7.657 -0.6687 -0.2354 -0.0973
   10CHTO  H183 3911   4.374   7.022   7.580 -1.4071 -0.6905  0.7137
   10CHTO   C98 3912   4.500   7.185   7.642 -0.3056  0.0911  0.1672
   10CHTO  H185 3913   4.555   7.190   7.547 -0.9503 -0.0308 -0.2117
   10CHTO   O67 3914   4.392   7.274   7.637  0.1104 -0.1734  1.0223
   10CHTO  H167 3915   4.416   7.364   7.631 -0.6821  0.0841  1.7920
   10CHTO  C102 3916   4.593   7.237   7.761 -0.0294 -0.6503  0.2470
   10CHTO  H189 3917   4.566   7.343   7.777  1.5702  0.0222 -1.3917
   10CHTO   N18 3918   4.735   7.242   7.733 -0.0991  0.6117 -0.6922
   10CHTO  H176 3919   4.764   7.304   7.650  0.1371  1.0600 -0.2731
   10CHTO  H177 3920   4.777   7.290   7.820  0.8294  0.6376 -1.1504
   10CHTO  C105 3921   4.574   7.153   7.888  0.0643 -0.0266 -0.0831
   10CHTO  H192 3922   4.635   7.063   7.883  1.1543  0.6668  0.3888
   10CHTO   O65 3923   4.436   7.105   7.895  0.1995  0.5159  0.1732
   10CHTO  C100 3924   4.396   7.002   7.801 -0.0986 -0.0689 -0.2143
   10CHTO  H187 3925   4.446   6.912   7.839  1.4197 -0.7041 -3.5445
   10CHTO  C107 3926   4.245   6.977   7.787  0.3254 -0.2621 -0.1826
   10CHTO   O70 3927   4.200   6.901   7.902 -0.0858  0.4308  0.0415
   10CHTO  H170 3928   4.107   6.889   7.894 -0.2880  2.2237 -0.3407
   10CHTO   O57 3929   4.616   7.245   8.028  0.5520  0.1947  0.2659
   10CHTO   C85 3930   4.553   7.200   8.154  0.0817  0.1723  0.4105
   10CHTO  H157 3931   4.480   7.120   8.129  1.2329 -0.9024  0.3950
   10CHTO   C83 3932   4.458   7.311   8.211 -0.1632 -0.3228 -0.1554
   10CHTO  H155 3933   4.381   7.334   8.138 -0.3839  0.0108  0.1837
   10CHTO   O56 3934   4.532   7.438   8.232 -0.0195  0.1517 -0.2594
   10CHTO  H135 3935   4.474   7.493   8.281  0.1051  1.0288 -1.0928
   10CHTO   C81 3936   4.395   7.258   8.342 -0.2744 -0.3428 -0.2359
   10CHTO  H153 3937   4.334   7.173   8.312 -1.9675  0.4038  0.9875
   10CHTO   N14 3938   4.297   7.348   8.398 -0.0722  0.3441  0.1606
   10CHTO  H141 3939   4.342   7.437   8.438 -0.8663  0.5890  0.5171
   10CHTO  H142 3940   4.239   7.298   8.473  0.9132 -2.1486 -0.6702
   10CHTO   C79 3941   4.502   7.211   8.450 -0.3217  1.3323 -0.1107
   10CHTO  H151 3942   4.445   7.162   8.529  0.1790  1.4567  0.3265
   10CHTO   O52 3943   4.595   7.113   8.400  0.5964  0.8812  0.5877
   10CHTO   C86 3944   4.654   7.147   8.271 -0.1260  0.2436  0.6584
   10CHTO  H158 3945   4.728   7.227   8.294  0.7496 -0.0923 -0.9082
   10CHTO   C90 3946   4.732   7.025   8.226  0.7290  0.8284 -0.6691
   10CHTO   O60 3947   4.821   6.986   8.325 -0.4722 -0.1941  0.7377
   10CHTO  H138 3948   4.861   6.904   8.302 -0.6423  0.4003 -1.8131
   10CHTO   O50 3949   4.571   7.321   8.509 -0.4332  0.1430  0.3315
   10CHTO   C73 3950   4.696   7.313   8.580  0.1211 -0.0889 -0.1495
   10CHTO  H145 3951   4.774   7.266   8.517 -1.9870 -1.9501 -1.4284
   10CHTO   C74 3952   4.693   7.236   8.708 -0.3476 -0.2375 -0.1885
   10CHTO  H146 3953   4.662   7.137   8.671  0.0154 -0.1010 -0.8660
   10CHTO   O54 3954   4.829   7.216   8.765  0.1219  0.1786  0.5569
   10CHTO  H133 3955   4.867   7.299   8.783  0.3748 -0.1076  1.4040
   10CHTO   C75 3956   4.595   7.300   8.811 -0.2303  0.5722 -0.3124
   10CHTO  H147 3957   4.494   7.297   8.769 -0.0742 -0.3296 -0.6360
   10CHTO   N13 3958   4.575   7.230   8.939  0.6088 -0.1298  0.2003
   10CHTO  H139 3959   4.577   7.302   9.020  0.7940  0.4692 -0.3283
   10CHTO  H140 3960   4.482   7.178   8.929  0.4920  0.4943 -2.4508
   10CHTO   C76 3961   4.645   7.455   8.840  0.2461  0.3273  0.2563
   10CHTO  H148 3962   4.743   7.453   8.887 -0.8397 -0.7864  2.5472
   10CHTO   O49 3963   4.660   7.525   8.713 -0.0831  0.3579 -0.1018
   10CHTO   C77 3964   4.742   7.458   8.616  0.4554  0.0349  0.8348
   10CHTO  H149 3965   4.841   7.458   8.662  0.6780 -0.2025  0.3602
   10CHTO   C88 3966   4.749   7.553   8.495  0.1649  0.1464  0.3777
   10CHTO   O58 3967   4.850   7.670   8.526  0.1450 -0.0516  0.0419
   10CHTO  H136 3968   4.934   7.640   8.553 -0.2490 -0.2014  1.1150
   10CHTO   O51 3969   4.532   7.531   8.943 -0.3931 -0.5477 -0.0914
   10CHTO   C78 3970   4.609   7.643   9.025  0.3410 -0.0104  0.5702
   10CHTO  H150 3971   4.711   7.655   8.982  0.1477 -1.3438 -0.3053
   10CHTO   C80 3972   4.619   7.609   9.178  0.2478  0.1635  0.6792
   10CHTO  H152 3973   4.517   7.603   9.221  0.5150  4.2088  2.0981
   10CHTO   O55 3974   4.682   7.477   9.189  0.2021 -0.2347  0.6601
   10CHTO  H134 3975   4.776   7.477   9.191  0.2358 -0.7589 -0.5715
   10CHTO   C84 3976   4.701   7.719   9.254  0.6461  0.2578  0.7977
   10CHTO  H156 3977   4.797   7.710   9.203 -0.1021  2.6623 -1.1457
   10CHTO   N15 3978   4.718   7.686   9.393  0.3839  0.1802  0.0097
   10CHTO  H143 3979   4.632   7.637   9.435  0.3833  2.0231  2.2373
   10CHTO  H144 3980   4.810   7.633   9.407  0.4384  0.7923  2.0245
   10CHTO   C87 3981   4.636   7.858   9.230  0.2211  0.0564  0.2148
   10CHTO  H159 3982   4.548   7.885   9.288  1.0282  0.5478  1.2276
   10CHTO   O53 3983   4.617   7.870   9.084 -0.3363  0.0587  0.8104
   10CHTO   C82 3984   4.533   7.779   9.015  0.0235  0.1425  0.3487
   10CHTO  H154 3985   4.434   7.774   9.061 -0.6638 -2.0897 -1.2652
   10CHTO   C89 3986   4.507   7.823   8.867 -0.2033  0.2655 -0.2962
   10CHTO   O59 3987   4.627   7.825   8.784 -0.2478 -0.3986  0.5479
   10CHTO  H137 3988   4.664   7.911   8.779 -0.9170 -0.0444  1.4698
   10CHTO   O45 3989   4.734   7.983   9.259  0.1187 -0.0769 -0.3307
   10CHTO   C67 3990   4.666   8.095   9.315  0.3357 -0.0391 -0.2122
   10CHTO  H124 3991   4.562   8.098   9.282 -0.4781  0.5856  2.2862
   10CHTO   C65 3992   4.664   8.085   9.471 -0.8930 -0.3463 -0.2738
   10CHTO  H122 3993   4.625   7.987   9.495  1.4217 -1.0439  0.8543
   10CHTO   O44 3994   4.571   8.171   9.534 -0.1753 -0.4555  0.2355
   10CHTO  H102 3995   4.599   8.259   9.549  1.8013 -0.6665 -1.7990
   10CHTO   C63 3996   4.807   8.090   9.520 -0.1244  0.4546  0.0230
   10CHTO  H120 3997   4.865   8.020   9.461  1.6777  2.2484 -0.3947
   10CHTO   N11 3998   4.840   8.046   9.660  0.1462 -0.3247 -0.2753
   10CHTO  H108 3999   4.783   8.093   9.737  2.3249 -0.4393  1.4692
   10CHTO  H109 4000   4.941   8.080   9.667  0.2286 -0.8553  1.3035
   10CHTO   C61 4001   4.861   8.232   9.484 -0.1170 -0.3581  0.5053
   10CHTO  H118 4002   4.966   8.221   9.517 -0.2372 -1.0556  0.6590
   10CHTO   O40 4003   4.862   8.266   9.346  0.5716 -0.1517 -0.7113
   10CHTO   C68 4004   4.729   8.243   9.274  0.3170  0.1288 -0.1035
   10CHTO  H125 4005   4.754   8.228   9.166  0.2031 -0.6697 -0.0259
   10CHTO   C72 4006   4.621   8.353   9.280  0.1423  0.8361 -0.0741
   10CHTO   O48 4007   4.668   8.481   9.243  0.2676 -0.1047  0.4269
   10CHTO  H105 4008   4.712   8.513   9.319 -0.5168 -1.0094  1.2746
   10CHTO   O38 4009   4.807   8.336   9.569  0.5270 -0.2165 -0.6526
   10CHTO   C55 4010   4.891   8.433   9.636 -0.3722  0.3588  0.9038
   10CHTO  H112 4011   4.994   8.408   9.605 -1.4128  0.1242 -2.5890
   10CHTO   C56 4012   4.877   8.419   9.790 -0.6578  0.0865 -0.5423
   10CHTO  H113 4013   4.777   8.456   9.818 -1.5042 -0.2769 -2.9400
   10CHTO   O42 4014   4.904   8.281   9.831  0.4776  0.5265  0.7902
   10CHTO  H100 4015   4.916   8.268   9.923 -1.0089  1.8110  1.1877
   10CHTO   C57 4016   4.982   8.517   9.853 -0.2618  0.2115 -0.1419
   10CHTO  H114 4017   5.080   8.486   9.817 -1.1825 -2.4094 -0.4699
   10CHTO   N10 4018   4.991   8.511  10.003  0.0871 -0.2953  0.0586
   10CHTO  H106 4019   5.095   8.515  10.033 -0.4508  0.2688  1.8884
   10CHTO  H107 4020   4.938   8.593  10.049  0.3178 -0.6713  0.9987
   10CHTO   C58 4021   4.957   8.662   9.799 -0.1035 -0.3830 -0.2806
   10CHTO  H115 4022   4.860   8.698   9.838  2.1040  3.2866  2.0699
   10CHTO   O37 4023   4.961   8.670   9.656  0.6144 -0.1981 -0.3179
   10CHTO   C59 4024   4.873   8.576   9.598 -0.2414  0.9222  0.0344
   10CHTO  H116 4025   4.773   8.603   9.633 -1.0118 -0.0144 -1.4129
   10CHTO   C70 4026   4.885   8.581   9.439 -0.1526 -0.1812 -0.1777
   10CHTO   O46 4027   4.838   8.711   9.401 -0.9398  0.7952 -0.7244
   10CHTO  H103 4028   4.910   8.769   9.385  0.1306  0.4111  2.4027
   10CHTO   O39 4029   5.070   8.748   9.846  0.1423  0.2380 -0.6145
   10CHTO   C60 4030   5.026   8.876   9.896 -0.4270 -0.4816 -0.4778
   10CHTO  H117 4031   4.929   8.896   9.851 -0.6320 -1.7399 -0.6138
   10CHTO   C62 4032   5.003   8.879  10.049 -0.8773  0.4789  0.5154
   10CHTO  H119 4033   4.932   8.797  10.068  3.1110 -2.7846  2.0798
   10CHTO   O43 4034   5.121   8.825  10.108 -0.3933 -0.7719  0.3736
   10CHTO  H101 4035   5.132   8.851  10.198  0.7784 -0.6225  0.1963
   10CHTO   C66 4036   4.961   9.025  10.093  0.5352  0.3369  0.6677
   10CHTO  H123 4037   4.876   9.060  10.035  1.5132  2.0059  0.2076
   10CHTO   N12 4038   4.920   9.031  10.236 -0.1357 -0.6519 -0.6358
   10CHTO  H110 4039   4.971   9.103  10.298  2.5207  1.2303 -4.7639
   10CHTO  H111 4040   4.813   9.045  10.242  0.0668  0.4588  0.5280
   10CHTO   C69 4041   5.076   9.116  10.059 -0.9648  0.9532 -0.5077
   10CHTO  H126 4042   5.170   9.083  10.108 -1.2809 -0.4645 -0.8338
   10CHTO   O41 4043   5.100   9.112   9.908  0.1643 -0.1077  0.1076
   10CHTO   C64 4044   5.125   8.984   9.847  0.0275 -0.5889 -0.5217
   10CHTO  H121 4045   5.224   8.939   9.866 -0.3145 -0.0479  2.9919
   10CHTO   C71 4046   5.116   9.010   9.690  0.4911 -0.7834  0.0346
   10CHTO   O47 4047   4.981   9.033   9.643 -0.3025 -0.6685 -0.3978
   10CHTO  H104 4048   4.933   8.958   9.612 -1.7561  1.2155 -2.9185
   10CHTO   O34 4049   5.064   9.262  10.091 -0.0980 -0.2135  0.4899
   10CHTO   C49 4050   5.167   9.376  10.162  0.4252 -0.1571  0.5900
   10CHTO   H91 4051   5.266   9.334  10.148  0.1550 -1.9506  3.5286
   10CHTO   C47 4052   5.135   9.385  10.314  0.2468  0.7839 -0.2376
   10CHTO   H89 4053   5.224   9.439  10.355  0.6559 -0.6654  0.8241
   10CHTO   O33 4054   5.127   9.256  10.380  0.1756  0.1436 -0.2507
   10CHTO   H70 4055   5.202   9.208  10.351  0.4283 -1.2559  2.5668
   10CHTO   C45 4056   4.995   9.467  10.322 -0.1791  0.4765 -0.2341
   10CHTO   H87 4057   4.923   9.427  10.250  1.0154 -2.1322 -0.0375
   10CHTO    N8 4058   4.931   9.468  10.456 -0.6424 -0.1762 -0.6820
   10CHTO   H75 4059   4.929   9.369  10.499 -0.8020 -0.0237 -0.3346
   10CHTO   H76 4060   4.830   9.508  10.464 -0.5777 -0.1305 -0.0298
   10CHTO   C43 4061   5.021   9.615  10.264  0.6524 -0.0877  0.1081
   10CHTO   H85 4062   4.925   9.665  10.277 -0.0684 -0.8700 -1.9381
   10CHTO   O29 4063   5.049   9.602  10.120 -0.1061 -0.1400 -0.2999
   10CHTO   C50 4064   5.160   9.517  10.093  0.3136  0.5804  0.0044
   10CHTO   H92 4065   5.163   9.494   9.986  3.1455  0.8029 -0.0062
   10CHTO   C54 4066   5.290   9.598  10.123  0.3275 -0.4043 -0.2421
   10CHTO   O36 4067   5.287   9.717  10.040 -0.1474  0.0601  0.1423
   10CHTO   H72 4068   5.291   9.695   9.949 -0.4013  0.7866 -0.0445
   10CHTO   O27 4069   5.117   9.700  10.337  0.1013  0.1314 -0.8521
   10CHTO   C37 4070   5.150   9.844  10.355  0.2823 -0.5714 -0.4068
   10CHTO   H79 4071   5.204   9.886  10.269  0.9732 -1.0633 -0.2254
   10CHTO   C38 4072   5.017   9.925  10.363 -0.4163 -0.2091 -0.2792
   10CHTO   H80 4073   4.946   9.871  10.427 -0.3652 -0.9345 -0.8366
   10CHTO   O31 4074   4.966   9.926  10.224 -0.1512 -0.4074 -0.2222
   10CHTO   H68 4075   4.879   9.961  10.214  0.6537  1.3744 -1.3234
   10CHTO   C39 4076   5.032  10.069  10.419  0.3700 -0.5751 -0.7903
   10CHTO   H81 4077   5.087  10.116  10.337  1.7985 -0.1032  0.4184
   10CHTO    N7 4078   4.909  10.149  10.442 -0.1858  0.0581  0.4818
   10CHTO   H73 4079   4.935  10.253  10.428  1.1266 -0.3809 -0.4687
   10CHTO   H74 4080   4.883  10.134  10.545 -1.2033 -0.8738  0.1023
   10CHTO   C40 4081   5.133  10.071  10.539  0.2726 -0.1982 -0.1618
   10CHTO   H82 4082   5.095  10.035  10.635  0.2489  1.8549  0.6336
   10CHTO   O26 4083   5.254  10.006  10.506 -0.8054 -0.0759 -0.1951
   10CHTO   C41 4084   5.247   9.859  10.478 -0.5588  0.3189  0.2354
   10CHTO   H83 4085   5.204   9.799  10.559 -0.4166  0.6561  0.5580
   10CHTO   C52 4086   5.398   9.817  10.442  0.1818  0.5024 -0.6454
   10CHTO   O35 4087   5.426   9.653  10.441 -0.4113 -0.3933  0.6299
   10CHTO   H71 4088   5.518   9.644  10.428 -0.8092 -0.6504 -2.3484
   10CHTO   O28 4089   5.181  10.201  10.571 -0.1782  0.2321 -0.3276
   10CHTO   C42 4090   5.264  10.238  10.690  0.0123 -0.3127 -0.1925
   10CHTO   H84 4091   5.370  10.242  10.666  1.1735  1.6081  4.7310
   10CHTO   C44 4092   5.251  10.131  10.808 -0.3449  0.2257 -0.2246
   10CHTO   H86 4093   5.150  10.092  10.818 -0.4148  0.6926  0.9158
   10CHTO   O32 4094   5.335  10.015  10.775 -0.3390 -0.1698  0.1981
   10CHTO   H69 4095   5.282   9.951  10.733 -0.5948  0.1533  0.0279
   10CHTO   C48 4096   5.302  10.189  10.948 -0.4075  0.5640  0.5359
   10CHTO   H90 4097   5.410  10.205  10.956 -0.4703  1.2014  0.1732
   10CHTO    N9 4098   5.276  10.099  11.067  0.4877  0.0943 -0.3071
   10CHTO   H77 4099   5.369  10.057  11.101 -0.8300 -2.6110  0.0443
   10CHTO   H78 4100   5.220  10.149  11.144  0.6664 -0.8462  0.4337
   10CHTO   C51 4101   5.247  10.330  10.975  0.1219  0.3297 -0.4938
   10CHTO   H93 4102   5.138  10.321  10.975  0.1260 -0.2841  2.3275
   10CHTO   O30 4103   5.294  10.418  10.879  0.2648 -0.0153 -0.3012
   10CHTO   C46 4104   5.226  10.382  10.741 -0.1598  0.4344  0.4444
   10CHTO   H88 4105   5.118  10.396  10.745 -0.2421  0.4029 -1.2306
   10CHTO   C53 4106   5.276  10.475  10.634 -0.0442  0.1226  1.0602
   10CHTO   O72 4107   5.210  10.462  10.511  0.1135 -0.1260  0.6496
   10CHTO  H199 4108   5.122  10.491  10.522  0.3603  1.1417 -0.5926
   10CHTO   O22 4109   5.289  10.376  11.104 -0.0407 -0.5405 -0.2425
   10CHTO   C31 4110   5.230  10.495  11.168  0.0748  0.0014  0.0454
   10CHTO   H59 4111   5.177  10.548  11.087 -2.3420  0.6688  2.0046
   10CHTO   C29 4112   5.124  10.457  11.274  0.2028  0.4995  0.2581
   10CHTO   H57 4113   5.172  10.394  11.350 -0.3843  1.3469  1.3469
   10CHTO   O21 4114   5.029  10.365  11.209 -0.5652  0.1280  0.7833
   10CHTO   H37 4115   4.987  10.304  11.266 -4.1554  2.7722  1.1594
   10CHTO   C27 4116   5.060  10.585  11.346 -0.4350 -0.3198 -0.1387
   10CHTO   H55 4117   4.984  10.633  11.283 -0.3518  0.7224  0.5397
   10CHTO    N5 4118   4.988  10.548  11.472  0.4563  0.0397  0.0788
   10CHTO   H43 4119   4.972  10.442  11.487 -0.0752  0.1962  0.6505
   10CHTO   H44 4120   4.921  10.621  11.517  1.4470  0.3899  1.0149
   10CHTO   C25 4121   5.175  10.687  11.382  0.8779  0.2693 -0.3252
   10CHTO   H53 4122   5.243  10.642  11.456  0.4424 -0.1394 -0.1795
   10CHTO   O17 4123   5.270  10.710  11.268  0.1512  0.1523  0.0067
   10CHTO   C32 4124   5.334  10.589  11.228 -0.1152 -0.1103 -0.1040
   10CHTO   H60 4125   5.386  10.535  11.307  3.6752 -0.0153 -2.3806
   10CHTO   C36 4126   5.452  10.634  11.130  0.5961  0.1527  0.6569
   10CHTO   O25 4127   5.512  10.529  11.050  0.1659 -0.2601 -0.0932
   10CHTO   H40 4128   5.467  10.526  10.968  0.5144  0.4931 -0.3139
   10CHTO   O15 4129   5.099  10.832  11.448 -0.4193  0.1222  0.6433
   10CHTO   C19 4130   5.175  10.920  11.539 -0.4193  0.1003  0.7276
   10CHTO   H47 4131   5.253  10.862  11.590 -0.3531 -0.6316 -0.1821
   10CHTO   C20 4132   5.246  11.034  11.461  0.7474 -0.1483  0.0160
   10CHTO   H48 4133   5.175  11.096  11.404  1.0103  0.6073  0.4848
   10CHTO   O19 4134   5.339  10.975  11.369  0.1541  0.2636  0.4628
   10CHTO   H35 4135   5.311  10.946  11.284 -2.2661 -1.5295  1.7956
   10CHTO   C21 4136   5.318  11.138  11.563  0.4929  0.0212  0.0960
   10CHTO   H49 4137   5.395  11.082  11.616  0.3311 -2.7100 -2.4466
   10CHTO    N4 4138   5.383  11.254  11.503  0.1067 -0.0086 -0.0559
   10CHTO   H41 4139   5.400  11.241  11.397 -0.5705 -1.1928 -0.0265
   10CHTO   H42 4140   5.481  11.272  11.546 -0.4179 -0.0363  1.1554
   10CHTO   C22 4141   5.210  11.176  11.673 -0.6119 -0.0237 -0.1431
   10CHTO   H50 4142   5.131  11.240  11.633 -1.1882 -0.7111 -0.1092
   10CHTO   O14 4143   5.158  11.059  11.735 -0.3746 -0.0975  0.6066
   10CHTO   C23 4144   5.087  10.976  11.649 -0.4254  0.5190  0.3504
   10CHTO   H51 4145   5.009  11.044  11.610 -1.5313 -0.3046  1.1065
   10CHTO   C34 4146   5.024  10.874  11.739 -0.0772  0.3786  0.2611
   10CHTO   O23 4147   4.902  10.928  11.802 -0.8394  0.2780 -0.4204
   10CHTO   H38 4148   4.901  10.910  11.894 -2.2906 -0.4813 -0.5616
   10CHTO   O16 4149   5.276  11.234  11.788 -0.3295 -0.3381  1.0429
   10CHTO   C24 4150   5.210  11.362  11.856  0.1379  0.2327  0.9451
   10CHTO   H52 4151   5.127  11.403  11.797  0.7266  1.7658  1.1685
   10CHTO   C26 4152   5.324  11.467  11.855 -0.3556 -0.0099 -0.4147
   10CHTO   H54 4153   5.415  11.415  11.891  0.2380  0.4902 -1.2035
   10CHTO   O20 4154   5.358  11.503  11.715  0.2069  0.3030 -0.0254
   10CHTO   H36 4155   5.407  11.582  11.722  0.8584 -0.0337 -0.7661
   10CHTO   C30 4156   5.281  11.584  11.944  0.2441 -0.8496  0.1151
   10CHTO   H58 4157   5.206  11.646  11.894  1.5077  1.8861  1.4936
   10CHTO    N6 4158   5.393  11.678  11.977  0.5218 -0.0927  0.1594
   10CHTO   H45 4159   5.491  11.637  11.996 -0.5498 -2.5726  0.6646
   10CHTO   H46 4160   5.365  11.747  12.055 -1.4087  1.2320 -1.6608
   10CHTO   C33 4161   5.211  11.547  12.082 -0.6100  0.0881  0.3539
   10CHTO   H61 4162   5.286  11.507  12.152  1.9346 -0.9261 -2.8418
   10CHTO   O18 4163   5.111  11.449  12.066 -0.3023  0.3152 -0.1160
   10CHTO   C28 4164   5.155  11.329  11.998  0.6168  0.0247  0.1652
   10CHTO   H56 4165   5.234  11.286  12.059  1.5937 -0.0038 -1.1071
   10CHTO   C35 4166   5.043  11.225  11.989 -0.0414 -0.0099 -0.0980
   10CHTO   O24 4167   5.019  11.169  12.118 -0.2623 -0.3370  0.0022
   10CHTO   H39 4168   4.952  11.105  12.102 -0.7662  0.8514 -2.9991
   10CHTO    O9 4169   5.158  11.664  12.150  0.3367 -0.4434 -0.1242
   10CHTO   C13 4170   5.130  11.642  12.332  0.1394 -0.0486 -0.3914
   10CHTO   H26 4171   5.196  11.559  12.367 -1.3989 -1.1300 -0.0319
   10CHTO   C11 4172   4.978  11.617  12.359 -0.1014 -0.2496  0.1798
   10CHTO   H24 4173   4.955  11.514  12.330  0.3888  0.6485 -3.7183
   10CHTO    O8 4174   4.913  11.705  12.264  0.3059 -0.3768 -0.5540
   10CHTO    H3 4175   4.941  11.794  12.272 -1.0496  0.1780 -1.6728
   10CHTO    C9 4176   4.944  11.642  12.505  0.2985  1.0362 -0.0099
   10CHTO   H22 4177   5.010  11.570  12.556 -0.9189  0.1725  0.3577
   10CHTO    N2 4178   4.811  11.605  12.553  0.0994 -0.0892 -0.0638
   10CHTO   H10 4179   4.736  11.602  12.476 -2.6566  3.1112  2.3396
   10CHTO   H11 4180   4.779  11.664  12.638 -1.0606 -0.9021  0.0651
   10CHTO    C7 4181   4.997  11.788  12.549  0.5765 -0.2454  0.2139
   10CHTO   H20 4182   5.055  11.753  12.637  0.7155  0.9137  0.5828
   10CHTO    O4 4183   5.084  11.861  12.450 -0.2165  0.0513  0.0797
   10CHTO   C14 4184   5.190  11.773  12.411  1.0874 -0.0476  0.2882
   10CHTO   H27 4185   5.246  11.738  12.500  0.5113 -1.4046  0.1163
   10CHTO   C18 4186   5.294  11.851  12.325  0.7065  0.1673  0.0372
   10CHTO   O13 4187   5.237  11.908  12.208 -0.3636  0.2114 -0.1161
   10CHTO    H7 4188   5.158  11.951  12.234 -0.1693 -0.1135  1.0624
   10CHTO    O2 4189   4.870  11.885  12.599  0.2674  0.3933  0.1039
   10CHTO    C1 4190   4.908  12.017  12.631 -0.5815  0.0829 -0.4681
   10CHTO   H14 4191   5.014  12.037  12.605 -0.6967 -0.2171 -1.1713
   10CHTO    C2 4192   4.893  12.037  12.785  0.3064  0.2361 -0.1181
   10CHTO   H15 4193   4.792  12.006  12.815  0.2966  2.0181  1.7774
   10CHTO    O6 4194   4.994  11.965  12.855  0.4871  0.1950 -0.0816
   10CHTO    H1 4195   4.972  11.945  12.944  0.8676 -0.5903 -0.1577
   10CHTO    C3 4196   4.903  12.195  12.817 -0.0652  0.1719  0.2026
   10CHTO   H16 4197   5.007  12.230  12.810 -0.4568  1.3951  0.3346
   10CHTO    N1 4198   4.852  12.221  12.958 -0.2693  0.2531  0.5563
   10CHTO    H8 4199   4.916  12.165  13.024 -3.3023 -2.3770  1.3666
   10CHTO    H9 4200   4.880  12.326  12.965  2.0926 -0.1464 -1.8703
   10CHTO    C4 4201   4.819  12.280  12.708 -0.3676  0.0509  0.4128
   10CHTO   H17 4202   4.712  12.268  12.722 -1.0114  2.2538 -2.0782
   10CHTO    O1 4203   4.840  12.244  12.567 -0.7167  0.7020  0.0910
   10CHTO    C5 4204   4.811  12.103  12.544  0.5575 -0.0448  0.4703
   10CHTO   H18 4205   4.704  12.090  12.565  0.4516 -1.2360 -0.6788
   10CHTO   C16 4206   4.832  12.080  12.391 -0.3268 -0.0472  0.0605
   10CHTO   O11 4207   4.743  11.965  12.367  0.0152 -0.4054  0.1636
   10CHTO    H5 4208   4.718  11.959  12.277 -0.7559  1.6267  0.2009
   10CHTO    O3 4209   4.844  12.418  12.724 -0.8233 -0.4381 -0.2954
   10CHTO    C6 4210   4.748  12.520  12.685  0.3526 -0.8348  0.1584
   10CHTO   H19 4211   4.661  12.478  12.634 -0.2323 -0.3929  0.7887
   10CHTO    C8 4212   4.699  12.608  12.810  0.8762  0.2953  0.0994
   10CHTO   H21 4213   4.788  12.653  12.855  0.8842 -1.8702  2.3210
   10CHTO    O7 4214   4.637  12.527  12.904 -0.3708  0.2834 -0.7351
   10CHTO    H2 4215   4.704  12.489  12.958 -1.5088 -1.2177 -0.3357
   10CHTO   C12 4216   4.605  12.726  12.762  0.3495 -0.2786 -0.2056
   10CHTO   H25 4217   4.514  12.678  12.719  0.9766  0.8392 -2.8427
   10CHTO    N3 4218   4.560  12.825  12.868 -0.2596  0.4884 -0.0989
   10CHTO   H12 4219   4.644  12.867  12.920 -0.2292 -1.0031  1.0884
   10CHTO   H13 4220   4.494  12.903  12.833 -0.5356  0.8013  1.1124
   10CHTO   C15 4221   4.673  12.797  12.643 -0.3357 -0.4610 -0.6692
   10CHTO   H28 4222   4.759  12.854  12.680  1.0923 -2.3892 -0.8967
   10CHTO   O10 4223   4.558  12.882  12.567 -0.1571  0.2587 -0.4610
   10CHTO    H4 4224   4.525  12.955  12.617  0.4562  0.5403 -0.4615
   10CHTO    O5 4225   4.727  12.712  12.535 -0.2274  0.4695  0.2681
   10CHTO   C10 4226   4.820  12.616  12.580  0.4566 -0.0706  0.0285
   10CHTO   H23 4227   4.901  12.678  12.616 -0.2152  1.4464 -0.9957
   10CHTO   C17 4228   4.864  12.540  12.456 -0.9204  0.0866 -0.3165
   10CHTO   O12 4229   4.995  12.574  12.416 -0.1312  0.5406  0.6155
   10CHTO    H6 4230   5.000  12.585  12.323  0.3935  0.2320  0.6047
   11CHTO  H203 4231   6.737   6.335   3.180 -0.5600 -0.3339  1.7160
   11CHTO   O82 4232   6.650   6.368   3.170 -0.2786 -0.0222  0.1437
   11CHTO  C123 4233   6.643   6.406   3.036 -0.0103 -0.2161  0.3347
   11CHTO  H227 4234   6.731   6.371   2.981 -0.4914 -0.8089 -0.0703
   11CHTO   O77 4235   6.530   6.330   2.990 -0.4394 -0.4330 -0.1850
   11CHTO  C118 4236   6.524   6.333   2.849 -0.4065  0.3158  0.7926
   11CHTO  H222 4237   6.618   6.295   2.806 -1.1652 -1.5539  0.7661
   11CHTO  C125 4238   6.410   6.229   2.813 -0.2141  0.1865  0.0507
   11CHTO   O84 4239   6.271   6.259   2.838  0.3432  0.3052 -0.7894
   11CHTO  H205 4240   6.254   6.348   2.861 -1.7644 -0.4357  0.7473
   11CHTO  C114 4241   6.495   6.477   2.802 -0.2934  0.0006 -0.4187
   11CHTO  H218 4242   6.397   6.503   2.844  0.6210  0.5983  1.3847
   11CHTO  C116 4243   6.603   6.578   2.855 -0.4317 -0.3693 -0.3741
   11CHTO  H220 4244   6.702   6.555   2.811  0.1918  1.8433 -0.2084
   11CHTO   O79 4245   6.565   6.714   2.813  0.1810  0.2506 -0.0159
   11CHTO  H201 4246   6.617   6.776   2.862 -1.5729  1.4684  0.3626
   11CHTO  C120 4247   6.607   6.562   3.008 -0.4934  0.3306  0.1031
   11CHTO  H224 4248   6.510   6.588   3.056 -0.9477 -0.2660 -0.4955
   11CHTO   N21 4249   6.706   6.654   3.075 -0.5463 -0.4345  0.9520
   11CHTO  H211 4250   6.798   6.599   3.080 -0.0256 -0.0089 -2.5161
   11CHTO  H212 4251   6.715   6.755   3.038  3.9998 -0.1513  2.5299
   11CHTO   O75 4252   6.502   6.466   2.660 -0.5513 -0.6669  0.0138
   11CHTO  C112 4253   6.380   6.519   2.570 -1.3565 -0.4498  0.1678
   11CHTO  H216 4254   6.382   6.627   2.590 -1.2382 -0.4016 -0.1001
   11CHTO   O73 4255   6.260   6.461   2.620 -0.3507 -0.8556 -0.4717
   11CHTO  C113 4256   6.142   6.490   2.544 -0.4753 -0.1810 -0.1162
   11CHTO  H217 4257   6.121   6.598   2.555 -1.4759 -0.1162 -2.2889
   11CHTO  C124 4258   6.032   6.409   2.608  0.5710  0.7451  0.7081
   11CHTO   O83 4259   5.997   6.447   2.739  0.7317  0.1154 -0.1124
   11CHTO  H204 4260   5.980   6.539   2.734  1.7811  0.3057 -0.4243
   11CHTO  C109 4261   6.150   6.462   2.398  0.0417  0.1438  0.2762
   11CHTO  H213 4262   6.145   6.352   2.390 -0.9952  0.2101 -0.0352
   11CHTO  C110 4263   6.280   6.528   2.333  0.1359 -0.9243 -0.3985
   11CHTO  H214 4264   6.263   6.635   2.328 -0.0362 -1.0132 -2.0423
   11CHTO   O78 4265   6.288   6.482   2.205  0.5089  0.1600 -0.4519
   11CHTO  H200 4266   6.243   6.548   2.155  0.7280  0.2086 -0.5846
   11CHTO  C111 4267   6.405   6.491   2.417  0.0658 -1.1617 -0.3221
   11CHTO  H215 4268   6.436   6.386   2.404  1.0217 -1.1360  1.6790
   11CHTO   N19 4269   6.523   6.574   2.373 -0.0619  0.4089  0.9680
   11CHTO  H207 4270   6.589   6.606   2.452  0.1890 -1.5339  1.5827
   11CHTO  H208 4271   6.476   6.669   2.355  0.4742  0.6164  0.6602
   11CHTO   O74 4272   6.032   6.511   2.324  0.1560  0.0834 -0.1071
   11CHTO  C115 4273   5.993   6.386   2.213  0.4751 -0.3828  1.0652
   11CHTO  H219 4274   6.065   6.305   2.217 -0.7122 -1.5512 -0.6890
   11CHTO   O76 4275   5.850   6.323   2.252  0.5526 -0.3005  0.3425
   11CHTO  C122 4276   5.751   6.423   2.257  0.0794 -0.4414 -0.1980
   11CHTO  H226 4277   5.771   6.468   2.354  1.9797  0.5622 -1.0331
   11CHTO  C126 4278   5.607   6.357   2.267 -0.5040 -0.1653 -0.7307
   11CHTO   O85 4279   5.586   6.287   2.397  0.0222 -0.0474  0.6752
   11CHTO  H206 4280   5.498   6.255   2.402 -1.2122  3.0958  0.0955
   11CHTO  C121 4281   5.759   6.526   2.126  0.3988  0.6467 -0.5742
   11CHTO  H225 4282   5.657   6.536   2.083  0.4992  0.2589 -0.9021
   11CHTO   O81 4283   5.784   6.657   2.176 -0.2762  0.2907  0.3870
   11CHTO  H202 4284   5.861   6.659   2.230  0.3232 -1.4137 -0.3558
   11CHTO  C119 4285   5.848   6.460   2.012  0.3347  0.7769  0.8155
   11CHTO  H223 4286   5.798   6.363   2.006 -3.3316  2.5394  1.3692
   11CHTO  C117 4287   5.999   6.441   2.062 -0.1018  0.2760 -0.0108
   11CHTO  H221 4288   6.052   6.536   2.069 -1.1703  0.8772  0.0004
   11CHTO   N20 4289   6.073   6.355   1.965 -1.0744  0.8874  0.0091
   11CHTO  H209 4290   6.031   6.257   1.950  1.3276 -0.4183  1.3666
   11CHTO  H210 4291   6.177   6.351   1.994 -1.5298 -2.4135  1.3801
   11CHTO   O80 4292   5.816   6.521   1.859 -0.2364 -0.2901  0.3247
   11CHTO  C103 4293   5.842   6.662   1.832  0.3457 -0.5092 -1.1187
   11CHTO  H190 4294   5.855   6.728   1.917  0.0162  0.1248 -1.5570
   11CHTO  C101 4295   5.968   6.690   1.736  0.2862 -0.3635 -0.1956
   11CHTO  H188 4296   5.947   6.650   1.637 -0.1650 -0.3173 -0.1201
   11CHTO   O68 4297   6.093   6.624   1.796  0.7334  0.1670  0.3154
   11CHTO  H168 4298   6.072   6.536   1.821 -1.3167  0.5730  0.1334
   11CHTO   C99 4299   5.973   6.850   1.708 -0.6726 -0.4803 -0.1019
   11CHTO  H186 4300   5.964   6.895   1.809 -3.1313  0.6517 -0.7811
   11CHTO   N17 4301   6.100   6.892   1.634  0.0264 -0.6505  0.4741
   11CHTO  H174 4302   6.085   6.992   1.596  0.8139 -0.5337  0.4663
   11CHTO  H175 4303   6.112   6.816   1.559 -1.0078  0.2631 -0.6460
   11CHTO   C97 4304   5.839   6.900   1.639 -0.0817 -0.7714 -0.6929
   11CHTO  H184 4305   5.843   6.849   1.542 -0.0769  0.4726 -1.3536
   11CHTO   O64 4306   5.723   6.859   1.726 -0.4994 -0.2532  0.8257
   11CHTO  C104 4307   5.716   6.715   1.745  0.0284 -0.3096  0.3111
   11CHTO  H191 4308   5.710   6.661   1.651  3.0679 -0.8881  0.4044
   11CHTO  C108 4309   5.588   6.677   1.817  0.2825  0.5294  0.1192
   11CHTO   O71 4310   5.463   6.692   1.747  0.0446  0.6190  0.4214
   11CHTO  H171 4311   5.471   6.747   1.671  0.3325 -1.0420 -0.7742
   11CHTO   O62 4312   5.843   7.041   1.619 -0.0277 -0.7731  0.1392
   11CHTO   C91 4313   5.751   7.085   1.523  0.1548  0.1344 -0.2656
   11CHTO  H178 4314   5.675   7.009   1.509  0.4625  0.0083 -1.2897
   11CHTO   C92 4315   5.825   7.104   1.380  0.5930  0.2965 -0.2910
   11CHTO  H179 4316   5.884   7.016   1.350  0.8493  0.7971 -1.2766
   11CHTO   O66 4317   5.720   7.117   1.285 -0.2148 -0.4397  0.4376
   11CHTO  H166 4318   5.683   7.031   1.291  0.9351 -1.0097 -0.3322
   11CHTO   C93 4319   5.908   7.237   1.384 -0.6065 -0.2052  0.0054
   11CHTO  H180 4320   5.935   7.255   1.279 -0.3742 -1.0708 -0.0901
   11CHTO   N16 4321   6.039   7.233   1.460 -0.3462  0.7234 -0.3178
   11CHTO  H172 4322   6.022   7.181   1.553 -2.5114  2.6075  0.3938
   11CHTO  H173 4323   6.123   7.191   1.407  0.3517  1.8376 -0.1039
   11CHTO   C94 4324   5.820   7.363   1.437 -0.3491  0.2117  0.0604
   11CHTO  H181 4325   5.865   7.404   1.528  0.7487 -1.4960  0.2937
   11CHTO   O61 4326   5.679   7.333   1.471 -0.4080  0.2590 -0.0973
   11CHTO   C95 4327   5.670   7.218   1.562  0.4047  0.3882 -0.4868
   11CHTO  H182 4328   5.712   7.249   1.658 -0.2860 -2.9417  0.9515
   11CHTO  C106 4329   5.520   7.178   1.580 -0.5077 -0.3730 -0.1920
   11CHTO   O69 4330   5.499   7.114   1.708 -0.0175  0.2914 -0.3234
   11CHTO  H169 4331   5.502   7.176   1.778 -0.4526  0.7533 -0.7206
   11CHTO   O63 4332   5.820   7.475   1.313 -0.2592  0.2280  0.1561
   11CHTO   C96 4333   5.887   7.596   1.341 -0.3608  0.0289 -0.6607
   11CHTO  H183 4334   5.957   7.573   1.422 -1.7890 -0.3608  0.4914
   11CHTO   C98 4335   5.798   7.707   1.409  0.1087 -0.0706  0.0124
   11CHTO  H185 4336   5.751   7.659   1.496 -0.1359  1.9585  1.0279
   11CHTO   O67 4337   5.889   7.801   1.468 -0.3236 -0.7232  0.3728
   11CHTO  H167 4338   5.936   7.848   1.402 -1.0214  0.0130  0.3838
   11CHTO  C102 4339   5.699   7.769   1.298  0.0867  0.1594 -0.0586
   11CHTO  H189 4340   5.656   7.862   1.339  1.9349 -0.8096  4.2909
   11CHTO   N18 4341   5.582   7.683   1.276 -0.2524 -0.0831  0.4493
   11CHTO  H176 4342   5.507   7.734   1.217 -0.8949 -0.9414  0.5051
   11CHTO  H177 4343   5.614   7.593   1.224 -1.8996  0.7946 -2.1901
   11CHTO  C105 4344   5.780   7.806   1.170 -0.2585 -0.0264 -0.5280
   11CHTO  H192 4345   5.750   7.747   1.084 -0.3012 -1.5408  0.5056
   11CHTO   O65 4346   5.920   7.787   1.187 -0.5308 -0.1864  0.0301
   11CHTO  C100 4347   5.959   7.653   1.208 -0.8739  0.4253 -0.4841
   11CHTO  H187 4348   5.925   7.594   1.122  1.5973  1.2356 -2.0703
   11CHTO  C107 4349   6.115   7.632   1.213 -0.3292  0.3977 -1.0020
   11CHTO   O70 4350   6.154   7.505   1.272 -0.1847 -0.2911  0.0075
   11CHTO  H170 4351   6.246   7.490   1.261  0.2703  1.3372  1.2725
   11CHTO   O57 4352   5.719   7.976   1.139  0.5367 -0.1250 -1.1635
   11CHTO   C85 4353   5.710   8.032   1.010 -0.2891 -0.2733 -0.8027
   11CHTO  H157 4354   5.697   8.141   1.025 -2.2737 -0.6030  0.0083
   11CHTO   C83 4355   5.574   7.986   0.932  0.5491  0.4462  0.3430
   11CHTO  H155 4356   5.484   8.012   0.988  1.0863  0.2932  1.2932
   11CHTO   O56 4357   5.570   7.845   0.921  0.1138 -0.1734 -0.0278
   11CHTO  H135 4358   5.613   7.810   0.997 -0.1408  0.5610  0.4619
   11CHTO   C81 4359   5.564   8.048   0.786 -0.2532  0.6509  0.8765
   11CHTO  H153 4360   5.553   8.156   0.797 -0.8738  0.5403  1.4008
   11CHTO   N14 4361   5.435   8.007   0.713 -0.4975  0.7544 -0.3794
   11CHTO  H141 4362   5.433   8.036   0.610  0.2063 -1.6389 -1.0961
   11CHTO  H142 4363   5.346   8.045   0.758  0.8848  0.7275  2.5019
   11CHTO   C79 4364   5.700   8.006   0.712 -0.8303  0.2571 -0.3388
   11CHTO  H151 4365   5.698   8.048   0.611  1.2271 -0.8386 -0.8623
   11CHTO   O52 4366   5.814   8.070   0.779 -0.7815 -0.0627  0.2421
   11CHTO   C86 4367   5.826   8.000   0.914  0.6029 -0.7363 -0.3946
   11CHTO  H158 4368   5.838   7.891   0.897  3.8566 -0.5801  0.6057
   11CHTO   C90 4369   5.965   8.045   0.984  0.0662 -0.3435  0.0952
   11CHTO   O60 4370   6.076   8.047   0.904  0.6648 -0.1102  0.2480
   11CHTO  H138 4371   6.050   8.079   0.820  0.4764  0.1075  0.3897
   11CHTO   O50 4372   5.715   7.860   0.686  0.1685  0.2670  0.1060
   11CHTO   C73 4373   5.807   7.785   0.595  0.3697  0.5313 -0.0060
   11CHTO  H145 4374   5.879   7.850   0.544  0.5519 -0.5011 -1.0799
   11CHTO   C74 4375   5.724   7.709   0.495 -0.2404  0.5815  0.1381
   11CHTO  H146 4376   5.660   7.781   0.443 -0.5889  0.7501  0.7917
   11CHTO   O54 4377   5.816   7.655   0.396  0.3089  0.4420 -0.6037
   11CHTO  H133 4378   5.765   7.609   0.332 -0.1810 -0.9501  0.7640
   11CHTO   C75 4379   5.637   7.599   0.572 -0.6258 -0.0640 -0.6422
   11CHTO  H147 4380   5.561   7.649   0.635  0.9412  1.4873  0.0759
   11CHTO   N13 4381   5.545   7.524   0.484  0.1763 -0.1538  0.5248
   11CHTO  H139 4382   5.592   7.440   0.434 -4.1498 -0.7008 -2.9390
   11CHTO  H140 4383   5.455   7.491   0.534  1.8728 -1.3686  2.8767
   11CHTO   C76 4384   5.732   7.507   0.657 -0.2181  0.4409  0.2117
   11CHTO  H148 4385   5.797   7.451   0.590  1.2611  0.4708  1.5803
   11CHTO   O49 4386   5.817   7.591   0.746  0.1569 -0.0640  0.9343
   11CHTO   C77 4387   5.901   7.677   0.670  0.7425 -0.3898 -0.0649
   11CHTO  H149 4388   5.953   7.617   0.595  0.3658 -1.6553  0.6707
   11CHTO   C88 4389   6.003   7.744   0.766  0.0849 -0.1424  0.1573
   11CHTO   O58 4390   6.083   7.637   0.861  0.1652  0.1628 -0.2244
   11CHTO  H136 4391   6.157   7.675   0.903 -0.3770  0.0090  0.8879
   11CHTO   O51 4392   5.652   7.406   0.751 -0.1394 -0.0612  0.1080
   11CHTO   C78 4393   5.745   7.282   0.785  0.0107  0.6440 -0.0956
   11CHTO  H150 4394   5.853   7.310   0.787  0.3493 -0.7275  3.3736
   11CHTO   C80 4395   5.715   7.169   0.682 -0.1344  0.0513  0.0015
   11CHTO  H152 4396   5.606   7.153   0.678  0.2129 -2.4298 -0.4330
   11CHTO   O55 4397   5.754   7.229   0.555 -0.4626  0.0726 -0.3385
   11CHTO  H134 4398   5.714   7.181   0.485 -0.5766  0.8403 -0.8003
   11CHTO   C84 4399   5.793   7.037   0.717 -0.0361  0.0492 -0.4060
   11CHTO  H156 4400   5.901   7.048   0.707 -0.1667 -0.1717 -2.2056
   11CHTO   N15 4401   5.762   6.927   0.620  0.0995 -0.7994  0.2040
   11CHTO  H143 4402   5.822   6.847   0.658  0.6506 -0.9254 -0.9358
   11CHTO  H144 4403   5.795   6.948   0.521  1.9914 -1.1226  0.7550
   11CHTO   C87 4404   5.759   6.986   0.861 -0.2494  0.2392  0.0745
   11CHTO  H159 4405   5.653   6.963   0.861 -0.0673 -0.6345 -0.0962
   11CHTO   O53 4406   5.779   7.117   0.960 -0.2175 -0.6505 -0.0573
   11CHTO   C82 4407   5.706   7.237   0.924 -0.5293 -0.6302  0.0420
   11CHTO  H154 4408   5.601   7.212   0.910 -0.6946  0.8491 -1.5192
   11CHTO   C89 4409   5.725   7.353   1.033 -0.1255 -0.3894 -0.3502
   11CHTO   O59 4410   5.862   7.351   1.061 -0.3165 -0.0632  0.2776
   11CHTO  H137 4411   5.909   7.421   1.020  0.1140  0.8307  2.2086
   11CHTO   O45 4412   5.850   6.875   0.915 -0.0151  0.6066 -0.2128
   11CHTO   C67 4413   5.993   6.897   0.914  0.5416 -0.3305  0.2477
   11CHTO  H124 4414   6.024   6.960   0.831 -1.2814 -1.2751 -1.1930
   11CHTO   C65 4415   6.051   6.965   1.045 -0.4889  0.1876 -0.1466
   11CHTO  H122 4416   5.979   6.940   1.123 -0.1471  3.4089  1.2727
   11CHTO   O44 4417   6.058   7.107   1.030 -0.3823 -0.1147 -0.0536
   11CHTO  H102 4418   5.998   7.140   1.094  2.8798  1.8789  2.1672
   11CHTO   C63 4419   6.190   6.904   1.100 -0.5339  0.2042  0.3837
   11CHTO  H120 4420   6.172   6.807   1.146  0.7359  0.6638  1.8895
   11CHTO   N11 4421   6.246   6.974   1.217  0.4731  0.2205 -0.5280
   11CHTO  H108 4422   6.325   6.918   1.262 -1.2138 -1.6471  0.1737
   11CHTO  H109 4423   6.170   7.010   1.283 -0.3109 -0.5722 -0.9887
   11CHTO   C61 4424   6.284   6.876   0.981  0.0525  0.0137 -1.3043
   11CHTO  H118 4425   6.364   6.819   1.029  0.0422  0.6165 -0.5549
   11CHTO   O40 4426   6.223   6.791   0.881 -0.2841 -0.1950 -0.0663
   11CHTO   C68 4427   6.078   6.760   0.893 -0.0809 -0.0786 -0.1186
   11CHTO  H125 4428   6.058   6.688   0.975  0.1246 -0.5762 -0.5057
   11CHTO   C72 4429   6.034   6.692   0.760  0.0036 -0.4558  0.2708
   11CHTO   O48 4430   5.902   6.638   0.776 -0.0706  0.4396 -0.4918
   11CHTO  H105 4431   5.878   6.617   0.688  0.8017 -1.0193 -0.3948
   11CHTO   O38 4432   6.327   6.999   0.915  0.1220  0.0662  0.7494
   11CHTO   C55 4433   6.461   7.002   0.868 -0.2496 -0.8396 -0.3577
   11CHTO  H112 4434   6.483   6.895   0.861 -1.0159 -0.9726 -0.8991
   11CHTO   C56 4435   6.559   7.082   0.967 -0.4338  0.3509 -0.2986
   11CHTO  H113 4436   6.518   7.184   0.968 -1.5653 -0.1120  1.7060
   11CHTO   O42 4437   6.545   7.023   1.100  0.0498  0.1596  0.1930
   11CHTO  H100 4438   6.574   7.077   1.171 -1.4106 -1.4014  2.0015
   11CHTO   C57 4439   6.706   7.080   0.915 -0.1230 -0.4555  0.1351
   11CHTO  H114 4440   6.731   6.975   0.929  1.9515 -0.0197 -0.1218
   11CHTO   N10 4441   6.802   7.166   0.996  0.0608  0.2196  0.4146
   11CHTO  H106 4442   6.894   7.111   0.999 -0.6650 -1.0560 -0.2280
   11CHTO  H107 4443   6.816   7.260   0.944 -0.6414  0.9467  1.5136
   11CHTO   C58 4444   6.714   7.112   0.763 -0.1602  0.6134 -0.1130
   11CHTO  H115 4445   6.713   7.223   0.759  2.6179  0.6283 -1.3735
   11CHTO   O37 4446   6.615   7.053   0.680 -0.3119  0.1767 -0.6991
   11CHTO   C59 4447   6.473   7.064   0.722 -0.1099  0.0973 -0.3306
   11CHTO  H116 4448   6.442   7.168   0.708  0.1815  0.3139  0.5908
   11CHTO   C70 4449   6.385   6.983   0.623 -0.1398 -0.3046  0.6164
   11CHTO   O46 4450   6.244   6.999   0.650  0.5133 -0.4994  0.1925
   11CHTO  H103 4451   6.205   6.923   0.688  0.4315  0.0599  1.2595
   11CHTO   O39 4452   6.853   7.058   0.697 -0.0680 -0.5380  0.1504
   11CHTO   C60 4453   6.901   7.141   0.592 -0.3928 -0.7416  0.7516
   11CHTO  H117 4454   6.819   7.205   0.558 -1.3094 -1.7925  0.9544
   11CHTO   C62 4455   7.010   7.238   0.646  0.2050 -0.5847 -0.1509
   11CHTO  H119 4456   6.955   7.295   0.724  1.7224 -0.2322  0.6878
   11CHTO   O43 4457   7.114   7.159   0.708 -0.5406  0.3468 -0.1935
   11CHTO  H101 4458   7.158   7.119   0.636 -0.0972  0.2590  0.1244
   11CHTO   C66 4459   7.064   7.345   0.537  0.4646  0.2213 -0.6097
   11CHTO  H123 4460   6.980   7.404   0.500  0.3211  0.5608  0.2334
   11CHTO   N12 4461   7.159   7.443   0.589  0.1678  0.5528 -0.2295
   11CHTO  H110 4462   7.146   7.548   0.569 -0.6491  0.3885 -0.5700
   11CHTO  H111 4463   7.168   7.417   0.693 -1.0966  1.0824  0.0191
   11CHTO   C69 4464   7.111   7.261   0.411  0.7545  0.6458  0.3470
   11CHTO  H126 4465   7.179   7.186   0.457 -0.8126 -0.8698  0.2580
   11CHTO   O41 4466   6.988   7.182   0.361 -0.1871  0.9123  0.6632
   11CHTO   C64 4467   6.957   7.068   0.464 -0.4142  0.2468  0.0530
   11CHTO  H121 4468   7.053   7.013   0.474 -0.6328  0.2092  2.3599
   11CHTO   C71 4469   6.854   6.966   0.406  0.0926 -0.8650  0.3896
   11CHTO   O47 4470   6.914   6.859   0.335 -0.0023  0.1952 -0.2015
   11CHTO  H104 4471   6.913   6.865   0.242  0.6377 -1.5042 -0.3408
   11CHTO   O34 4472   7.180   7.342   0.308  0.1249  0.0171 -0.6424
   11CHTO   C49 4473   7.307   7.322   0.248  0.3510  0.3949  0.7595
   11CHTO   H91 4474   7.390   7.325   0.318  0.2225 -2.4225  1.1059
   11CHTO   C47 4475   7.327   7.434   0.151  0.3960  0.6840 -0.2204
   11CHTO   H89 4476   7.430   7.406   0.117  0.2324 -0.1181 -0.0627
   11CHTO   O33 4477   7.325   7.561   0.217 -0.0534 -0.2551 -0.4355
   11CHTO   H70 4478   7.381   7.553   0.291 -1.4281  3.7012  1.1282
   11CHTO   C45 4479   7.225   7.421   0.022 -0.0318 -0.3373 -0.1694
   11CHTO   H87 4480   7.144   7.493   0.038  0.4370 -0.2779  2.1482
   11CHTO    N8 4481   7.302   7.470  -0.100  0.3917 -0.2230 -0.6511
   11CHTO   H75 4482   7.267   7.569  -0.126  0.7199  0.4026  1.1919
   11CHTO   H76 4483   7.410   7.465  -0.098  0.3148 -1.5045  1.7827
   11CHTO   C43 4484   7.154   7.273   0.022 -0.4942  0.0915  0.4855
   11CHTO   H85 4485   7.095   7.278   0.113 -0.9648 -0.6632  0.2297
   11CHTO   O29 4486   7.262   7.174   0.034  0.0609 -0.9805  1.0913
   11CHTO   C50 4487   7.323   7.189   0.162 -0.6278 -0.3989 -0.3511
   11CHTO   H92 4488   7.282   7.110   0.227 -0.6514  0.9131  1.2628
   11CHTO   C54 4489   7.472   7.137   0.149 -0.2607 -0.7540  0.3017
   11CHTO   O36 4490   7.545   7.136   0.273 -0.4263  0.4373  0.3098
   11CHTO   H72 4491   7.639   7.134   0.264 -0.0098  3.2034  3.4212
   11CHTO   O27 4492   7.061   7.249  -0.081 -0.6411 -0.6160 -0.0832
   11CHTO   C37 4493   6.965   7.167  -0.139 -0.2995  0.2916  0.4853
   11CHTO   H79 4494   7.000   7.063  -0.132  0.3662  0.5635  1.2531
   11CHTO   C38 4495   6.830   7.178  -0.060 -0.1699 -0.5356 -0.2853
   11CHTO   H80 4496   6.807   7.286  -0.057 -3.1226 -1.1422  0.8254
   11CHTO   O31 4497   6.858   7.136   0.071 -0.6453  0.1955  0.4099
   11CHTO   H68 4498   6.811   7.183   0.138  1.7612  2.5065  0.5561
   11CHTO   C39 4499   6.715   7.097  -0.129 -0.6217  1.0008  0.4368
   11CHTO   H81 4500   6.741   6.991  -0.135  1.2125  1.3237  2.1427
   11CHTO    N7 4501   6.585   7.096  -0.058 -0.4073  0.1195  0.6476
   11CHTO   H73 4502   6.514   7.026  -0.099  0.6028 -0.1246 -0.6925
   11CHTO   H74 4503   6.602   7.063   0.044  0.0519  0.1248  0.5711
   11CHTO   C40 4504   6.708   7.151  -0.279  0.2473  0.2344  0.8815
   11CHTO   H82 4505   6.679   7.256  -0.284 -2.1085 -0.4665 -1.1731
   11CHTO   O26 4506   6.833   7.129  -0.341 -0.1523  0.0837  0.6660
   11CHTO   C41 4507   6.950   7.199  -0.285 -0.2468  0.2815 -0.1330
   11CHTO   H83 4508   6.929   7.304  -0.309 -0.8780 -0.2409 -1.9764
   11CHTO   C52 4509   7.073   7.160  -0.371  0.7839 -0.0079 -0.0979
   11CHTO   O35 4510   7.182   7.241  -0.319 -0.4331  0.2970  0.2879
   11CHTO   H71 4511   7.191   7.230  -0.226 -1.5757  0.6674  0.4433
   11CHTO   O28 4512   6.617   7.078  -0.364 -0.3701  0.1162  0.5157
   11CHTO   C42 4513   6.607   7.116  -0.502  0.1637  0.5237 -0.3097
   11CHTO   H84 4514   6.706   7.148  -0.534 -0.7608  0.9019 -2.9509
   11CHTO   C44 4515   6.506   7.233  -0.542 -0.2126 -0.0585  0.1847
   11CHTO   H86 4516   6.405   7.203  -0.515 -1.0000  0.0982 -2.3739
   11CHTO   O32 4517   6.548   7.351  -0.471 -0.0748  0.1489  0.1935
   11CHTO   H69 4518   6.549   7.334  -0.378  0.9929  1.6464  0.4579
   11CHTO   C48 4519   6.491   7.250  -0.699 -0.2448 -0.4233 -0.4432
   11CHTO   H90 4520   6.592   7.275  -0.731  0.2009 -0.2413  1.0770
   11CHTO    N9 4521   6.392   7.352  -0.752 -0.1395 -0.2183  0.2618
   11CHTO   H77 4522   6.345   7.411  -0.674  0.1617  0.4087 -0.0306
   11CHTO   H78 4523   6.320   7.301  -0.813 -0.6706 -3.2664  3.3032
   11CHTO   C51 4524   6.471   7.110  -0.759  1.0620  0.1836 -0.2237
   11CHTO   H93 4525   6.372   7.073  -0.733  0.3661  0.9559 -1.7313
   11CHTO   O30 4526   6.573   7.024  -0.718 -0.2067  0.5024  0.1522
   11CHTO   C46 4527   6.577   6.983  -0.580 -0.1784  0.1665  0.4046
   11CHTO   H88 4528   6.483   6.936  -0.554 -0.4830 -0.8572 -2.3652
   11CHTO   C53 4529   6.686   6.879  -0.568 -0.4480 -0.1176  0.0628
   11CHTO   O72 4530   6.691   6.813  -0.442 -0.0744 -0.6163 -0.4651
   11CHTO  H199 4531   6.648   6.730  -0.436 -1.1029  0.0872  2.5992
   11CHTO   O22 4532   6.494   7.097  -0.904 -0.0187 -0.2164 -0.7725
   11CHTO   C31 4533   6.400   7.017  -0.994  0.2658  0.4669 -0.4499
   11CHTO   H59 4534   6.305   7.002  -0.940  0.4972 -0.1893 -0.2311
   11CHTO   C29 4535   6.362   7.086  -1.123  0.0518  0.3187  0.5724
   11CHTO   H57 4536   6.456   7.125  -1.165  0.3026  0.6597  1.4357
   11CHTO   O21 4537   6.280   7.198  -1.094  0.2733  0.4683  0.1664
   11CHTO   H37 4538   6.319   7.264  -1.040  3.2910 -2.1893  1.3709
   11CHTO   C27 4539   6.294   6.987  -1.232  0.0861  0.8481 -0.1295
   11CHTO   H55 4540   6.194   6.957  -1.196 -0.3855  2.3208 -0.1784
   11CHTO    N5 4541   6.276   7.047  -1.364  0.1945 -0.3713  0.4082
   11CHTO   H43 4542   6.370   7.098  -1.384 -0.5744  0.5750 -0.8631
   11CHTO   H44 4543   6.192   7.114  -1.366 -0.3941 -1.1433 -1.5411
   11CHTO   C25 4544   6.367   6.848  -1.238 -0.6301 -0.5447 -0.4729
   11CHTO   H53 4545   6.461   6.855  -1.295  1.1054  1.4178  2.5030
   11CHTO   O17 4546   6.377   6.794  -1.107  0.2103 -0.1756 -0.1385
   11CHTO   C32 4547   6.458   6.875  -1.019  0.2838  0.2587  0.9246
   11CHTO   H60 4548   6.561   6.888  -1.051  1.9173 -3.4069  4.2473
   11CHTO   C36 4549   6.458   6.789  -0.888 -0.6148 -0.1657  0.0324
   11CHTO   O25 4550   6.504   6.657  -0.921  0.2008 -0.0595 -0.2481
   11CHTO   H40 4551   6.436   6.597  -0.895  0.8758 -0.5879  0.3023
   11CHTO   O15 4552   6.285   6.750  -1.322  0.3919 -0.0219  0.0374
   11CHTO   C19 4553   6.175   6.657  -1.328 -0.0855  0.6013  0.0078
   11CHTO   H47 4554   6.221   6.568  -1.282  1.6873  1.7425  0.4798
   11CHTO   C20 4555   6.039   6.691  -1.247  0.2458 -0.5286 -0.0669
   11CHTO   H48 4556   5.994   6.785  -1.282  0.0804 -0.4162  0.4386
   11CHTO   O19 4557   6.077   6.711  -1.110 -0.1182  0.0222 -0.1069
   11CHTO   H35 4558   6.092   6.798  -1.078 -3.1885  0.2848  0.7689
   11CHTO   C21 4559   5.945   6.561  -1.255 -0.3332  0.0153  0.3783
   11CHTO   H49 4560   5.996   6.478  -1.204  0.6394 -1.2385 -2.5379
   11CHTO    N4 4561   5.816   6.567  -1.192  1.0850  0.1826 -0.6904
   11CHTO   H41 4562   5.804   6.512  -1.099  2.4699 -2.3700 -1.9903
   11CHTO   H42 4563   5.773   6.665  -1.174  0.6584 -0.3004  1.0823
   11CHTO   C22 4564   5.923   6.519  -1.401 -0.5229 -0.4182 -0.0715
   11CHTO   H50 4565   5.859   6.596  -1.444 -0.4781 -0.3005  0.0766
   11CHTO   O14 4566   6.048   6.510  -1.472 -0.5771 -0.5081  0.2015
   11CHTO   C23 4567   6.140   6.619  -1.476 -0.5076 -1.0281 -0.0421
   11CHTO   H51 4568   6.079   6.694  -1.528 -0.9808 -1.9944 -0.8819
   11CHTO   C34 4569   6.268   6.564  -1.536 -0.2265  0.9861  0.0373
   11CHTO   O23 4570   6.248   6.551  -1.679  0.3635 -0.4672  0.1868
   11CHTO   H38 4571   6.312   6.491  -1.712  0.4368 -0.0775 -0.3970
   11CHTO   O16 4572   5.871   6.390  -1.416 -0.2545  0.2537 -0.0572
   11CHTO   C24 4573   5.818   6.350  -1.559  0.4654 -0.2467  0.2504
   11CHTO   H52 4574   5.863   6.410  -1.638  0.1642 -0.8013 -0.3541
   11CHTO   C26 4575   5.666   6.366  -1.566  0.3754  0.4913  0.7782
   11CHTO   H54 4576   5.619   6.294  -1.495  2.2421 -1.2167  0.3338
   11CHTO   O20 4577   5.614   6.499  -1.538 -0.2468 -0.5276 -0.1228
   11CHTO   H36 4578   5.522   6.493  -1.520 -0.4202  2.7631  0.3303
   11CHTO   C30 4579   5.617   6.316  -1.707  0.3523  0.4850 -0.0104
   11CHTO   H58 4580   5.639   6.394  -1.781  3.2895  2.4856  2.8165
   11CHTO    N6 4581   5.465   6.298  -1.717  0.0059  0.3047 -0.6190
   11CHTO   H45 4582   5.434   6.222  -1.646 -0.7271 -0.0296 -1.2871
   11CHTO   H46 4583   5.412   6.388  -1.691 -0.8700 -0.4951  0.4581
   11CHTO   C33 4584   5.679   6.180  -1.756  0.9012 -0.1899 -0.1676
   11CHTO   H61 4585   5.629   6.103  -1.696  0.3573 -1.2095 -1.8934
   11CHTO   O18 4586   5.817   6.178  -1.725 -0.3497  0.8009  0.6165
   11CHTO   C28 4587   5.860   6.205  -1.588 -0.3789 -0.2712  1.1232
   11CHTO   H56 4588   5.809   6.139  -1.519  1.1815 -2.6285  0.0981
   11CHTO   C35 4589   6.013   6.171  -1.585  0.4043 -0.0509 -0.3267
   11CHTO   O24 4590   6.080   6.197  -1.470 -0.0019 -0.3837 -0.1397
   11CHTO   H39 4591   6.164   6.154  -1.464 -0.3071 -0.7791  1.4592
   11CHTO    O9 4592   5.651   6.141  -1.891  0.3434 -1.1513 -0.0635
   11CHTO   C13 4593   5.708   6.246  -2.020 -0.2232  0.0674 -0.5175
   11CHTO   H26 4594   5.721   6.348  -1.980  0.6052 -0.0537 -0.4826
   11CHTO   C11 4595   5.604   6.242  -2.127  0.0474  0.1629  0.0001
   11CHTO   H24 4596   5.508   6.278  -2.087  0.2354 -2.9073  3.4415
   11CHTO    O8 4597   5.575   6.101  -2.152 -0.3175 -0.3328 -0.2581
   11CHTO    H3 4598   5.501   6.095  -2.209 -0.5400 -0.9663  0.0939
   11CHTO    C9 4599   5.660   6.320  -2.244  0.7348 -0.3164 -0.1450
   11CHTO   H22 4600   5.685   6.416  -2.197  0.0330 -1.2436  2.2086
   11CHTO    N2 4601   5.562   6.334  -2.351  0.7034  0.0330  0.7614
   11CHTO   H10 4602   5.532   6.236  -2.386  0.3320  0.0165  1.1108
   11CHTO   H11 4603   5.479   6.390  -2.310 -0.4946  0.4034 -2.0647
   11CHTO    C7 4604   5.796   6.260  -2.297 -1.2869 -0.2763  0.5763
   11CHTO   H20 4605   5.838   6.326  -2.376 -0.1350 -1.1293  0.4587
   11CHTO    O4 4606   5.893   6.263  -2.194  0.1344  0.1807 -0.6657
   11CHTO   C14 4607   5.856   6.202  -2.070 -0.0739 -0.5990  0.7113
   11CHTO   H27 4608   5.930   6.237  -1.996  2.6574 -3.0465 -0.7805
   11CHTO   C18 4609   5.867   6.047  -2.075 -0.2209 -1.0700  0.0169
   11CHTO   O13 4610   5.977   5.997  -2.148 -0.2426 -0.6659  0.7227
   11CHTO    H7 4611   6.033   5.957  -2.084 -0.0147 -1.9524 -0.2510
   11CHTO    O2 4612   5.793   6.111  -2.365  0.1068  0.2189  0.0279
   11CHTO    C1 4613   5.813   6.108  -2.503  0.0912  0.1518  0.2987
   11CHTO   H14 4614   5.793   6.210  -2.542 -2.2804  0.1465  1.3602
   11CHTO    C2 4615   5.718   6.009  -2.588  0.8864  0.8019 -0.9031
   11CHTO   H15 4616   5.740   5.912  -2.541  0.1848  0.2138 -1.7597
   11CHTO    O6 4617   5.582   6.054  -2.578  0.5405  0.0357 -0.3103
   11CHTO    H1 4618   5.525   5.981  -2.594  1.1635 -0.7466  0.9788
   11CHTO    C3 4619   5.761   6.007  -2.741  0.1367 -0.6831  0.2976
   11CHTO   H16 4620   5.734   6.101  -2.790  0.2854 -1.3762 -1.1313
   11CHTO    N1 4621   5.676   5.905  -2.813  0.3255 -0.0410 -0.3616
   11CHTO    H8 4622   5.668   5.922  -2.919 -0.8236  1.1720 -0.0988
   11CHTO    H9 4623   5.579   5.905  -2.767 -0.2038 -2.5591 -1.4304
   11CHTO    C4 4624   5.917   5.994  -2.762 -0.0993  0.2747  0.0539
   11CHTO   H17 4625   5.945   5.895  -2.726 -2.0623  0.1013  1.1386
   11CHTO    O1 4626   5.990   6.089  -2.677 -0.4301 -0.1128 -0.7205
   11CHTO    C5 4627   5.965   6.064  -2.535  0.0428  0.1740 -1.0167
   11CHTO   H18 4628   5.969   5.960  -2.502 -1.6790  0.9110  1.6654
   11CHTO   C16 4629   6.067   6.140  -2.456 -0.0732 -0.0569 -0.5226
   11CHTO   O11 4630   6.203   6.119  -2.500 -0.0794 -0.4771  0.5467
   11CHTO    H5 4631   6.254   6.198  -2.507 -0.5636  0.0672  2.6665
   11CHTO    O3 4632   5.965   6.017  -2.892  0.2179  0.2357  0.3172
   11CHTO    C6 4633   6.069   5.929  -2.940 -0.4369 -0.2557 -0.4463
   11CHTO   H19 4634   6.127   5.886  -2.858  1.6478  1.3009 -1.0697
   11CHTO    C8 4635   6.003   5.813  -3.024  0.0522 -0.0852  0.0391
   11CHTO   H21 4636   5.924   5.855  -3.086  1.6958  1.1216 -1.2918
   11CHTO    O7 4637   5.949   5.719  -2.925  0.0917  0.2592 -0.2661
   11CHTO    H2 4638   5.875   5.670  -2.956 -0.7839  1.2720  0.1798
   11CHTO   C12 4639   6.104   5.749  -3.115 -0.7122  0.1127  0.0675
   11CHTO   H25 4640   6.178   5.690  -3.057 -1.2435  0.9797  1.6471
   11CHTO    N3 4641   6.025   5.649  -3.200  0.0101  0.3358 -0.1061
   11CHTO   H12 4642   5.946   5.700  -3.253  0.7914  0.1495 -1.4651
   11CHTO   H13 4643   5.988   5.562  -3.149  3.3937 -1.0788  0.0752
   11CHTO   C15 4644   6.179   5.860  -3.207 -0.1481  0.1474  0.0821
   11CHTO   H28 4645   6.108   5.916  -3.268 -0.2358  2.7950  2.4918
   11CHTO   O10 4646   6.286   5.797  -3.292  0.2495 -0.0542  0.2549
   11CHTO    H4 4647   6.348   5.864  -3.316  1.1972 -1.0316 -0.0909
   11CHTO    O5 4648   6.251   5.951  -3.115 -0.1331  0.2059  0.1574
   11CHTO   C10 4649   6.169   6.022  -3.023  0.5898 -0.1072 -0.5271
   11CHTO   H23 4650   6.105   6.098  -3.069 -0.5813  0.8947  2.5994
   11CHTO   C17 4651   6.269   6.096  -2.925 -0.1448  0.1249  0.2173
   11CHTO   O12 4652   6.219   6.132  -2.800 -0.6628 -0.3362 -0.0479
   11CHTO    H6 4653   6.169   6.211  -2.804  0.3324  0.2401 -1.3631
   12CHTO  H203 4654   6.469  12.374   6.893 -0.2072  1.0648  1.6197
   12CHTO   O82 4655   6.379  12.401   6.882 -0.2495  0.4897  0.4583
   12CHTO  C123 4656   6.308  12.326   6.988  0.5615 -0.3938  0.8025
   12CHTO  H227 4657   6.211  12.375   7.008  0.1826 -0.0937 -1.5623
   12CHTO   O77 4658   6.275  12.189   6.940  0.0480 -0.0833  0.2453
   12CHTO  C118 4659   6.190  12.118   7.033 -0.2004 -0.2308 -0.1899
   12CHTO  H222 4660   6.101  12.175   7.064  0.3293  0.5607 -0.1187
   12CHTO  C125 4661   6.143  11.981   6.973  0.0922 -0.4099  0.3675
   12CHTO   O84 4662   6.055  11.994   6.857  0.0429 -0.1309  0.1454
   12CHTO  H205 4663   6.094  12.020   6.776  1.8434  1.8960  1.6076
   12CHTO  C114 4664   6.277  12.090   7.166  0.2280  0.2315 -0.2532
   12CHTO  H218 4665   6.370  12.041   7.139 -0.7983 -2.7366  1.3324
   12CHTO  C116 4666   6.320  12.230   7.224 -0.8235 -0.0861  0.8030
   12CHTO  H220 4667   6.231  12.292   7.248 -0.5310  0.0688  1.5054
   12CHTO   O79 4668   6.389  12.198   7.350 -0.7599 -0.0892  0.4805
   12CHTO  H201 4669   6.460  12.259   7.348 -1.9121  1.2666  0.9530
   12CHTO  C120 4670   6.404  12.311   7.113  0.3792  0.4311 -0.5821
   12CHTO  H224 4671   6.498  12.257   7.089  0.5601  1.9106 -3.5471
   12CHTO   N21 4672   6.445  12.441   7.170 -0.3728  0.5478  0.1022
   12CHTO  H211 4673   6.431  12.445   7.277  0.9098  1.0639  0.2608
   12CHTO  H212 4674   6.549  12.460   7.149 -0.2600 -0.3972 -0.2388
   12CHTO   O75 4675   6.183  12.026   7.258 -0.1208  0.4170  0.2151
   12CHTO  C112 4676   6.242  11.908   7.348  0.1475 -0.0141  0.9255
   12CHTO  H216 4677   6.343  11.937   7.381  1.4383 -1.0335 -1.9949
   12CHTO   O73 4678   6.254  11.794   7.253 -0.1056 -0.0749  0.1140
   12CHTO  C113 4679   6.296  11.670   7.315  0.4045 -0.8374  0.5249
   12CHTO  H217 4680   6.390  11.687   7.372  1.9632 -2.3860 -1.4908
   12CHTO  C124 4681   6.309  11.565   7.202  0.5499 -0.2089 -0.3503
   12CHTO   O83 4682   6.200  11.549   7.116 -0.0425 -0.0182  0.4512
   12CHTO  H204 4683   6.189  11.628   7.068  3.2332 -1.1659 -2.3740
   12CHTO  C109 4684   6.204  11.623   7.436 -0.4459 -0.2810 -0.1225
   12CHTO  H213 4685   6.108  11.595   7.390 -0.8748  0.1695  0.4916
   12CHTO  C110 4686   6.209  11.739   7.539 -0.4527 -0.3942 -0.8310
   12CHTO  H214 4687   6.313  11.757   7.562 -0.2921 -3.5383  1.2805
   12CHTO   O78 4688   6.140  11.701   7.660  0.0200  0.0597 -0.4866
   12CHTO  H200 4689   6.077  11.634   7.642 -0.6353  1.4152 -3.5301
   12CHTO  C111 4690   6.156  11.869   7.471  0.3333  0.4940 -0.3141
   12CHTO  H215 4691   6.052  11.849   7.439 -0.3829 -1.6749  3.2012
   12CHTO   N19 4692   6.150  11.985   7.571  0.5821 -0.5796 -0.1512
   12CHTO  H207 4693   6.154  12.077   7.516  0.5869  0.1001  0.9778
   12CHTO  H208 4694   6.050  11.981   7.613  1.2092  0.1228  1.4713
   12CHTO   O74 4695   6.257  11.505   7.511 -0.1136 -0.0336 -0.7263
   12CHTO  C115 4696   6.139  11.383   7.529 -0.5215  0.5808 -0.5006
   12CHTO  H219 4697   6.039  11.423   7.512 -0.2264  0.9530 -1.3961
   12CHTO   O76 4698   6.160  11.273   7.426  0.1152 -0.4093 -0.4225
   12CHTO  C122 4699   6.290  11.208   7.430  0.1448 -0.0130  0.0869
   12CHTO  H226 4700   6.355  11.281   7.382 -1.8499  1.4528 -0.4958
   12CHTO  C126 4701   6.298  11.088   7.337 -0.0513  0.3458  0.5471
   12CHTO   O85 4702   6.223  10.976   7.378 -0.5715  0.7368  0.5702
   12CHTO  H206 4703   6.271  10.898   7.358 -0.7470  1.0823 -1.2933
   12CHTO  C121 4704   6.330  11.174   7.589 -0.2440 -0.7329 -0.5117
   12CHTO  H225 4705   6.371  11.071   7.594 -3.2064 -1.9094  0.9821
   12CHTO   O81 4706   6.430  11.269   7.631 -0.2480  0.3286 -0.5758
   12CHTO  H202 4707   6.509  11.242   7.588 -0.4575 -1.4569  0.0824
   12CHTO  C119 4708   6.209  11.189   7.682  0.2278 -0.4511 -0.2466
   12CHTO  H223 4709   6.134  11.119   7.643  0.5386 -0.2733 -1.1890
   12CHTO  C117 4710   6.156  11.334   7.677  0.0227 -0.0596  0.1886
   12CHTO  H221 4711   6.215  11.410   7.729  0.0203  1.3313 -1.7804
   12CHTO   N20 4712   6.025  11.339   7.747  0.2226  0.5481 -0.3737
   12CHTO  H209 4713   5.970  11.429   7.726  0.1011  0.4604 -0.4357
   12CHTO  H210 4714   6.028  11.301   7.848 -2.6531  1.7583  0.2330
   12CHTO   O80 4715   6.249  11.119   7.826  0.1321 -0.0998  0.1094
   12CHTO  C103 4716   6.185  10.990   7.866  0.2923 -0.2066  0.7315
   12CHTO  H190 4717   6.079  10.990   7.840  0.2692 -2.6264  0.7034
   12CHTO  C101 4718   6.249  10.860   7.809 -0.1621  0.5124  0.3577
   12CHTO  H188 4719   6.357  10.857   7.824  0.2564 -3.2557 -2.6517
   12CHTO   O68 4720   6.216  10.849   7.646 -0.3341 -0.2740 -0.2153
   12CHTO  H168 4721   6.275  10.906   7.601 -2.8620  1.5436 -1.3611
   12CHTO   C99 4722   6.182  10.731   7.884  0.2043 -0.6313  0.4274
   12CHTO  H186 4723   6.074  10.746   7.865  0.1648 -0.5817  0.6844
   12CHTO   N17 4724   6.220  10.589   7.840 -0.7850 -0.0860 -0.1465
   12CHTO  H174 4725   6.320  10.575   7.878 -0.2432 -0.2703 -1.5953
   12CHTO  H175 4726   6.219  10.577   7.733  0.9847  0.2316 -0.2172
   12CHTO   C97 4727   6.204  10.746   8.042 -0.8084  0.0933 -0.3453
   12CHTO  H184 4728   6.310  10.748   8.071 -1.2659  2.7637  1.2825
   12CHTO   O64 4729   6.137  10.862   8.095 -0.7189 -0.5748  0.1617
   12CHTO  C104 4730   6.190  10.981   8.029  0.2601  0.5611  0.8282
   12CHTO  H191 4731   6.294  10.993   8.057  1.1462 -1.4684 -1.4842
   12CHTO  C108 4732   6.110  11.099   8.085  0.3965 -0.5962  0.6369
   12CHTO   O71 4733   5.967  11.110   8.060 -0.3882 -0.0316 -0.2204
   12CHTO  H171 4734   5.919  11.089   8.138  0.3925 -0.1133  0.2461
   12CHTO   O62 4735   6.125  10.648   8.115  0.2650 -0.1165  0.7385
   12CHTO   C91 4736   6.186  10.593   8.228 -0.0244 -0.4376 -0.3571
   12CHTO  H178 4737   6.294  10.581   8.216  0.4659  3.5066 -0.6095
   12CHTO   C92 4738   6.111  10.460   8.241  0.4160  0.2049  0.0227
   12CHTO  H179 4739   6.009  10.471   8.201  0.9573 -1.0649 -1.7697
   12CHTO   O66 4740   6.164  10.361   8.152  0.1118  0.0103 -0.1010
   12CHTO  H166 4741   6.258  10.354   8.160  0.1829  1.9443  0.9720
   12CHTO   C93 4742   6.117  10.405   8.393  0.2045 -0.1571 -0.0224
   12CHTO  H180 4743   6.227  10.394   8.401  0.3513  1.0504 -0.1939
   12CHTO   N16 4744   6.060  10.275   8.420 -0.5393  0.1338 -0.7147
   12CHTO  H172 4745   5.952  10.269   8.419 -0.5738  0.8517 -1.5895
   12CHTO  H173 4746   6.102  10.200   8.356 -0.9384 -0.2518 -0.5293
   12CHTO   C94 4747   6.077  10.506   8.504  0.2781 -0.2703 -0.5244
   12CHTO  H181 4748   5.976  10.487   8.541 -0.1316 -0.1904 -1.5940
   12CHTO   O61 4749   6.073  10.635   8.451  0.2411 -0.2761  0.3395
   12CHTO   C95 4750   6.169  10.687   8.355  0.0338  0.0681 -0.8727
   12CHTO  H182 4751   6.132  10.783   8.318 -0.0700  0.0974 -0.6961
   12CHTO  C106 4752   6.303  10.724   8.424  0.2639  0.1099  0.7831
   12CHTO   O69 4753   6.280  10.812   8.534 -0.6558 -0.0789  0.4345
   12CHTO  H169 4754   6.256  10.761   8.609  1.0903  0.0559  1.1208
   12CHTO   O63 4755   6.174  10.509   8.611 -0.5178  0.1944 -0.6471
   12CHTO   C96 4756   6.131  10.608   8.753  0.4616 -0.1720  0.3229
   12CHTO  H183 4757   6.103  10.706   8.713  2.2671  1.6162  3.2888
   12CHTO   C98 4758   6.251  10.628   8.849  0.2560  0.4610  0.1184
   12CHTO  H185 4759   6.338  10.673   8.799  0.7306  0.3586  0.8346
   12CHTO   O67 4760   6.220  10.721   8.946 -0.1062 -0.0489 -0.0942
   12CHTO  H167 4761   6.149  10.698   9.002 -0.9519  3.1320  0.2207
   12CHTO  C102 4762   6.294  10.482   8.913 -0.0388 -0.0484 -0.3694
   12CHTO  H189 4763   6.327  10.504   9.015 -2.6348  1.2353  0.2294
   12CHTO   N18 4764   6.407  10.416   8.846  0.0002 -0.2420 -0.1813
   12CHTO  H176 4765   6.498  10.473   8.859  0.0943 -0.1917 -1.0225
   12CHTO  H177 4766   6.421  10.312   8.870 -0.3323 -0.8987 -2.6852
   12CHTO  C105 4767   6.164  10.394   8.930 -0.0770  0.4176 -0.6473
   12CHTO  H192 4768   6.138  10.343   8.837 -0.1284 -1.6640  0.4598
   12CHTO   O65 4769   6.050  10.477   8.959 -0.5875  0.1308  0.6060
   12CHTO  C100 4770   6.006  10.547   8.845 -0.5043 -0.1632 -0.1430
   12CHTO  H187 4771   5.944  10.482   8.782 -1.0308 -0.8984  1.0945
   12CHTO  C107 4772   5.908  10.650   8.897  0.5895  0.5509  0.6703
   12CHTO   O70 4773   5.841  10.737   8.797 -0.1656  0.7743 -0.0612
   12CHTO  H170 4774   5.898  10.812   8.791  0.2457  0.6487  1.9038
   12CHTO   O57 4775   6.185  10.290   9.034  0.4000 -0.5626  0.9147
   12CHTO   C85 4776   6.130  10.156   9.029 -0.6675  0.2445 -0.0855
   12CHTO  H157 4777   6.140  10.128   8.922  0.6489  1.4994 -0.3175
   12CHTO   C83 4778   5.977  10.154   9.062  0.3962 -0.3290  0.4550
   12CHTO  H155 4779   5.922  10.207   8.984 -0.8112  0.5961  1.9100
   12CHTO   O56 4780   5.957  10.232   9.183  0.1674 -0.3792 -0.6488
   12CHTO  H135 4781   5.872  10.207   9.215 -0.9472  0.0131 -3.1589
   12CHTO   C81 4782   5.927  10.004   9.061 -0.0483 -0.2985 -0.2412
   12CHTO  H153 4783   5.942   9.953   8.966 -1.0906 -1.4871  0.2213
   12CHTO   N14 4784   5.780   9.995   9.073 -0.4571  1.2055 -0.1659
   12CHTO  H141 4785   5.748   9.893   9.072 -0.4486  1.2073 -0.6907
   12CHTO  H142 4786   5.737  10.041   9.160 -1.1024  0.5504 -0.1300
   12CHTO   C79 4787   6.008   9.930   9.175 -0.6557  0.5415  0.4631
   12CHTO  H151 4788   5.979   9.825   9.165 -1.6964  0.8720 -0.0111
   12CHTO   O52 4789   6.152   9.926   9.132  0.0394  0.4065 -0.1319
   12CHTO   C86 4790   6.210  10.057   9.126 -0.1003 -0.3687 -0.1717
   12CHTO  H158 4791   6.217  10.093   9.231  3.6554 -0.0264 -0.4731
   12CHTO   C90 4792   6.368  10.046   9.075 -0.4701 -0.1304  0.0813
   12CHTO   O60 4793   6.426  10.180   9.070  0.0829 -0.6498  0.3165
   12CHTO  H138 4794   6.513  10.185   9.035 -0.2771  0.5037 -0.4692
   12CHTO   O50 4795   5.992   9.975   9.312  0.4062  0.0714  0.0951
   12CHTO   C73 4796   5.905   9.974   9.425 -0.2308 -0.2623 -0.8068
   12CHTO  H145 4797   5.804   9.951   9.387 -0.5761  1.4807 -0.9692
   12CHTO   C74 4798   5.888  10.108   9.499 -0.2085 -0.6210 -0.0468
   12CHTO  H146 4799   5.853  10.184   9.428  0.2337  1.4311  1.8664
   12CHTO   O54 4800   5.797  10.092   9.604 -0.3472  0.3143  0.6680
   12CHTO  H133 4801   5.816  10.017   9.657  0.7998 -0.2550 -0.5059
   12CHTO   C75 4802   6.027  10.149   9.566 -0.9380 -0.4305 -0.1923
   12CHTO  H147 4803   6.097  10.166   9.483 -1.1286 -1.5785 -0.6006
   12CHTO   N13 4804   6.038  10.281   9.636 -0.2042  0.0166  0.0285
   12CHTO  H139 4805   6.049  10.257   9.740 -1.0511  0.5293  0.2420
   12CHTO  H140 4806   5.949  10.339   9.616 -0.7267 -0.4365  1.0088
   12CHTO   C76 4807   6.088  10.034   9.655 -0.5189 -0.6528 -0.0254
   12CHTO  H148 4808   6.040  10.022   9.752  1.9656 -1.9261  1.1151
   12CHTO   O49 4809   6.084   9.908   9.587 -0.4430 -0.2021  0.1449
   12CHTO   C77 4810   5.959   9.867   9.527 -0.4209  0.6577 -0.1010
   12CHTO  H149 4811   5.882   9.859   9.604 -0.5686  2.3649 -0.0469
   12CHTO   C88 4812   5.985   9.729   9.464  0.9140 -0.8222 -0.3507
   12CHTO   O58 4813   5.871   9.692   9.387  0.4788  0.2169  0.1056
   12CHTO  H136 4814   5.886   9.713   9.297 -2.4541  0.6413 -0.3437
   12CHTO   O51 4815   6.244  10.069   9.671  0.1688 -1.0430 -0.3608
   12CHTO   C78 4816   6.342   9.972   9.734 -0.0340 -0.8199  0.1370
   12CHTO  H150 4817   6.332   9.880   9.672 -1.0620  0.0332 -0.9602
   12CHTO   C80 4818   6.308   9.941   9.877 -0.5314  0.1846  0.8754
   12CHTO  H152 4819   6.288  10.038   9.926  0.5659  2.1172 -2.3400
   12CHTO   O55 4820   6.191   9.865   9.877  0.6388 -0.5240 -0.7384
   12CHTO  H134 4821   6.122   9.922   9.906  0.6554 -0.8940  0.0299
   12CHTO   C84 4822   6.433   9.863   9.943 -0.5402  0.1067  0.2657
   12CHTO  H156 4823   6.424   9.761   9.906  0.4477  0.2425 -0.3593
   12CHTO   N15 4824   6.423   9.860  10.097  0.6571 -0.0422  0.1435
   12CHTO  H143 4825   6.520   9.839  10.136  0.1378 -1.3849  0.7631
   12CHTO  H144 4826   6.378   9.947  10.140  1.7949  0.8032 -0.3392
   12CHTO   C87 4827   6.562   9.939   9.909  0.4738 -0.7842 -0.1040
   12CHTO  H159 4828   6.558  10.036   9.959 -1.2810 -0.6043 -0.5582
   12CHTO   O53 4829   6.575   9.952   9.759 -0.1183 -0.0981 -0.2253
   12CHTO   C82 4830   6.482  10.036   9.710  0.1895  0.2212  0.3190
   12CHTO  H154 4831   6.480  10.137   9.751  0.5595 -0.4165  1.9432
   12CHTO   C89 4832   6.517  10.054   9.553 -0.3368  0.2029 -0.0345
   12CHTO   O59 4833   6.444  10.159   9.491 -0.2427  0.0659  0.1756
   12CHTO  H137 4834   6.381  10.107   9.444 -0.1947  0.4311 -0.2903
   12CHTO   O45 4835   6.696   9.849   9.967  0.6864 -0.5418  0.8661
   12CHTO   C67 4836   6.767   9.757   9.880 -0.0761 -0.0607 -0.5022
   12CHTO  H124 4837   6.697   9.713   9.809  0.8267  0.6612 -1.8823
   12CHTO   C65 4838   6.874   9.835   9.793 -0.3129  0.5743 -0.0623
   12CHTO  H122 4839   6.813   9.915   9.751 -1.9857  0.0127  1.2590
   12CHTO   O44 4840   6.917   9.752   9.687 -0.0228 -0.3263  0.0719
   12CHTO  H102 4841   7.001   9.781   9.659  0.0906  0.9864  1.6890
   12CHTO   C63 4842   6.987   9.889   9.895 -0.1938  0.0003 -0.2050
   12CHTO  H120 4843   6.934   9.943   9.975 -0.7836 -2.2910  1.0133
   12CHTO   N11 4844   7.080   9.992   9.852  0.0268  0.6590 -0.2301
   12CHTO  H108 4845   7.139  10.039   9.928  1.5153 -2.3494  0.5760
   12CHTO  H109 4846   7.149   9.940   9.789  1.4999 -0.8926  2.5275
   12CHTO   C61 4847   7.050   9.760   9.957  0.4529 -0.3752 -0.8389
   12CHTO  H118 4848   7.125   9.799  10.028 -0.5514  0.2707 -0.1222
   12CHTO   O40 4849   6.951   9.684  10.038  0.2846 -0.4418  0.0633
   12CHTO   C68 4850   6.824   9.634   9.970 -0.1277 -0.0365 -0.1375
   12CHTO  H125 4851   6.748   9.615  10.049 -1.9278 -0.3769 -1.9098
   12CHTO   C72 4852   6.828   9.503   9.889 -0.6192 -0.3012 -0.1519
   12CHTO   O48 4853   6.882   9.391   9.959  0.5386 -0.0495  0.5040
   12CHTO  H105 4854   6.809   9.351  10.002  0.0594  0.3500  0.0652
   12CHTO   O38 4855   7.117   9.680   9.853  0.9450  0.9398 -0.4495
   12CHTO   C55 4856   7.262   9.671   9.861  0.1876  0.3497 -0.5706
   12CHTO  H112 4857   7.309   9.751   9.921 -1.3993 -0.7822  2.2932
   12CHTO   C56 4858   7.311   9.671   9.714 -0.0239 -0.1368  0.6091
   12CHTO  H113 4859   7.256   9.593   9.658 -2.0395  1.0417  0.9162
   12CHTO   O42 4860   7.283   9.804   9.664  0.2516 -0.4678 -0.0580
   12CHTO  H100 4861   7.288   9.877   9.723 -0.8574  0.7257 -1.3870
   12CHTO   C57 4862   7.466   9.640   9.710  0.0960 -0.6067  0.1822
   12CHTO  H114 4863   7.510   9.711   9.780  1.7050 -1.3530 -0.0368
   12CHTO   N10 4864   7.527   9.644   9.571 -0.4457 -0.3203 -0.1094
   12CHTO  H106 4865   7.634   9.644   9.562 -0.2786 -0.0010  1.8000
   12CHTO  H107 4866   7.488   9.729   9.517 -0.4291  0.1024  0.5532
   12CHTO   C58 4867   7.495   9.498   9.766  1.0684 -0.0936 -0.7277
   12CHTO  H115 4868   7.444   9.421   9.705  1.5222 -1.1601  0.2156
   12CHTO   O37 4869   7.442   9.502   9.901  0.1244  0.0185  0.7471
   12CHTO   C59 4870   7.303   9.532   9.916  0.1049  0.0753  0.2571
   12CHTO  H116 4871   7.248   9.458   9.856  0.6863  0.4985 -0.8098
   12CHTO   C70 4872   7.275   9.504  10.061 -0.2102 -0.2613  0.0286
   12CHTO   O46 4873   7.297   9.367  10.095 -0.0261  0.3500 -0.0257
   12CHTO  H103 4874   7.259   9.347  10.179 -0.4543  1.9658  0.1914
   12CHTO   O39 4875   7.655   9.468   9.777  0.2802  0.0802 -0.3598
   12CHTO   C60 4876   7.703   9.350   9.844 -0.6872 -0.8799  0.2167
   12CHTO  H117 4877   7.644   9.330   9.934 -1.5503  1.9178  0.3189
   12CHTO   C62 4878   7.686   9.220   9.759 -0.3748  0.2605  0.4056
   12CHTO  H119 4879   7.579   9.210   9.730 -0.5705 -0.5102  1.3603
   12CHTO   O43 4880   7.767   9.244   9.645 -0.2184  0.3823 -0.4005
   12CHTO  H101 4881   7.786   9.164   9.600  0.7532  0.7954 -0.7187
   12CHTO   C66 4882   7.719   9.094   9.857 -0.3104  0.1558 -0.1280
   12CHTO  H123 4883   7.655   9.106   9.945  2.3796 -0.2247  1.9417
   12CHTO   N12 4884   7.692   8.966   9.795  0.8235  0.0191 -0.4915
   12CHTO  H110 4885   7.588   8.961   9.765  0.4514  0.1305  0.7313
   12CHTO  H111 4886   7.707   8.885   9.865  0.3280 -0.0093 -0.4102
   12CHTO   C69 4887   7.865   9.098   9.895  0.6664  0.4331  0.0652
   12CHTO  H126 4888   7.921   9.085   9.800 -0.8254  2.2729 -1.0912
   12CHTO   O41 4889   7.905   9.238   9.968 -0.5137 -0.0573 -0.6750
   12CHTO   C64 4890   7.853   9.369   9.894  0.5005  0.1668 -0.5236
   12CHTO  H121 4891   7.911   9.386   9.800 -0.6336  3.0132 -0.7546
   12CHTO   C71 4892   7.868   9.491   9.987  0.0521  0.9389 -0.6553
   12CHTO   O47 4893   7.819   9.477  10.123 -0.1211  0.2368  0.1016
   12CHTO  H104 4894   7.815   9.553  10.178  2.5955  1.4602 -1.3035
   12CHTO   O34 4895   7.898   8.979   9.999  0.1524  0.1970 -0.5168
   12CHTO   C49 4896   7.939   9.011  10.150 -0.3891  0.9376  0.5904
   12CHTO   H91 4897   8.030   9.070  10.142 -0.9894  1.8240  0.2181
   12CHTO   C47 4898   7.973   8.878  10.223  0.1273  0.3401  0.5996
   12CHTO   H89 4899   8.018   8.907  10.320  0.2728  2.4436 -0.0558
   12CHTO   O33 4900   8.074   8.807  10.153 -0.1010 -0.0988 -0.7175
   12CHTO   H70 4901   8.116   8.756  10.220  0.0496 -1.2738 -1.6956
   12CHTO   C45 4902   7.837   8.783  10.235 -0.7516  0.0995 -0.3033
   12CHTO   H87 4903   7.834   8.713  10.149 -0.2195  0.2836 -0.4745
   12CHTO    N8 4904   7.856   8.702  10.355  0.2381  0.1149  0.1650
   12CHTO   H75 4905   7.835   8.766  10.439  0.4879  2.1127 -1.2634
   12CHTO   H76 4906   7.949   8.648  10.368 -1.6031 -3.0000  0.9820
   12CHTO   C43 4907   7.705   8.875  10.211 -0.0708 -0.3637 -0.9950
   12CHTO   H85 4908   7.692   8.888  10.104 -2.0505 -1.9583 -0.9776
   12CHTO   O29 4909   7.715   9.005  10.281 -0.4180  0.2528 -0.2421
   12CHTO   C50 4910   7.829   9.083  10.236 -0.8780 -0.1379 -0.3767
   12CHTO   H92 4911   7.800   9.168  10.174  0.2191 -1.0752 -2.2079
   12CHTO   C54 4912   7.891   9.158  10.356 -0.2258  0.0152  0.6324
   12CHTO   O36 4913   7.971   9.268  10.312  0.0859 -0.4462  0.0116
   12CHTO   H72 4914   7.911   9.336  10.287  0.4887 -0.3858 -0.8144
   12CHTO   O27 4915   7.592   8.799  10.256 -0.1836 -0.1147  0.0826
   12CHTO   C37 4916   7.446   8.807  10.268  0.3246 -0.0954 -0.3243
   12CHTO   H79 4917   7.413   8.733  10.344  2.2504  1.6151  2.2463
   12CHTO   C38 4918   7.397   8.945  10.308  0.3953 -0.7259  0.5587
   12CHTO   H80 4919   7.444   9.017  10.240 -1.1924 -1.3670 -1.2362
   12CHTO   O31 4920   7.452   8.975  10.437  0.2595  0.0451  0.5547
   12CHTO   H68 4921   7.425   9.061  10.466 -1.2530 -0.8927  2.0143
   12CHTO   C39 4922   7.235   8.951  10.311 -0.6093 -0.0990  0.0309
   12CHTO   H81 4923   7.213   8.903  10.407  1.1281  1.8062  1.4344
   12CHTO    N7 4924   7.185   9.093  10.329  0.2931 -0.2152 -0.4576
   12CHTO   H73 4925   7.268   9.161  10.323 -0.3933  0.5188 -1.7435
   12CHTO   H74 4926   7.114   9.101  10.410  0.8110 -0.5126  0.0329
   12CHTO   C40 4927   7.160   8.885  10.188 -0.2418  0.2736 -0.0979
   12CHTO   H82 4928   7.164   8.952  10.103 -3.8494  0.4187 -0.2336
   12CHTO   O26 4929   7.224   8.756  10.162 -0.3279  0.4472  0.0248
   12CHTO   C41 4930   7.372   8.771  10.130 -0.2225  0.0136 -0.0402
   12CHTO   H83 4931   7.403   8.847  10.056  1.2468  1.2569  1.8199
   12CHTO   C52 4932   7.419   8.636  10.063  1.1672 -0.5960 -0.4451
   12CHTO   O35 4933   7.570   8.635  10.007 -0.5437  0.5032  0.1593
   12CHTO   H71 4934   7.579   8.545   9.984 -1.7104  0.2722  0.5917
   12CHTO   O28 4935   7.029   8.841  10.219  0.5888 -0.8096 -0.7628
   12CHTO   C42 4936   6.913   8.858  10.127  0.4134 -0.3858  0.4787
   12CHTO   H84 4937   6.843   8.779  10.154 -1.3327  0.3435 -1.7336
   12CHTO   C44 4938   6.949   8.829   9.967 -0.8728 -0.0581 -0.4100
   12CHTO   H86 4939   7.039   8.886   9.944 -0.8103  0.0897  0.1904
   12CHTO   O32 4940   6.984   8.690   9.964  0.4510  0.7667 -0.6337
   12CHTO   H69 4941   6.917   8.640  10.006  2.7167 -0.5868  1.4208
   12CHTO   C48 4942   6.833   8.854   9.863 -0.3814  0.0842  0.4320
   12CHTO   H90 4943   6.777   8.762   9.884  0.3360 -0.4616 -0.0516
   12CHTO    N9 4944   6.872   8.853   9.718  0.1580 -0.3322 -0.2456
   12CHTO   H77 4945   6.954   8.785   9.704  0.3989 -0.3965  1.3771
   12CHTO   H78 4946   6.888   8.954   9.683  0.1666  0.0769  0.9385
   12CHTO   C51 4947   6.759   8.990   9.891  0.8625  0.5158  0.3639
   12CHTO   H93 4948   6.818   9.076   9.862  1.2033  0.5059  1.0196
   12CHTO   O30 4949   6.727   8.992  10.036  0.5426  0.3575  0.1146
   12CHTO   C46 4950   6.841   8.998  10.131 -0.4117 -0.1084  0.0082
   12CHTO   H88 4951   6.909   9.076  10.099 -0.8786 -0.1399 -1.0819
   12CHTO   C53 4952   6.788   9.027  10.275  0.6072 -0.3137  0.5343
   12CHTO   O72 4953   6.886   9.039  10.380  0.1697 -0.0987  0.0880
   12CHTO  H199 4954   6.924   8.954  10.394 -0.6272 -0.3676  0.6874
   12CHTO   O22 4955   6.627   8.999   9.826 -0.5575 -0.3230  0.1924
   12CHTO   C31 4956   6.551   9.124   9.802 -0.3251  1.1468 -0.6623
   12CHTO   H59 4957   6.452   9.087   9.766  1.0859 -1.5604 -1.8606
   12CHTO   C29 4958   6.525   9.211   9.927  0.5367 -0.6867  0.4249
   12CHTO   H57 4959   6.621   9.247   9.967 -1.1591  1.9056  2.2823
   12CHTO   O21 4960   6.458   9.138  10.030 -0.1318 -0.2665 -0.5390
   12CHTO   H37 4961   6.512   9.072  10.069  0.2258 -0.6381 -1.6413
   12CHTO   C27 4962   6.434   9.335   9.899  0.1331 -0.3458 -0.1248
   12CHTO   H55 4963   6.330   9.302   9.892  0.0876  0.0818 -1.5787
   12CHTO    N5 4964   6.434   9.439  10.005  0.3527 -0.2100  0.3746
   12CHTO   H43 4965   6.475   9.396  10.095 -0.7696  0.7496  1.3791
   12CHTO   H44 4966   6.334   9.475  10.027  1.3988  0.9520  3.4707
   12CHTO   C25 4967   6.465   9.397   9.759 -0.6021 -0.3936 -0.5214
   12CHTO   H53 4968   6.553   9.463   9.768 -1.6494  0.9477  0.0509
   12CHTO   O17 4969   6.502   9.303   9.660  0.2290 -0.3414  0.2649
   12CHTO   C32 4970   6.607   9.210   9.693  0.0466 -0.7709 -0.3904
   12CHTO   H60 4971   6.696   9.262   9.729 -0.4750  0.4474 -0.8499
   12CHTO   C36 4972   6.630   9.128   9.566  0.0244  0.4950 -0.4394
   12CHTO   O25 4973   6.699   9.213   9.470  0.0708 -0.3263  0.1352
   12CHTO   H40 4974   6.711   9.168   9.389 -1.8159  0.7552 -0.7878
   12CHTO   O15 4975   6.346   9.483   9.705  0.5588 -0.3397 -0.5118
   12CHTO   C19 4976   6.307   9.532   9.571 -0.4629  0.0680 -0.1652
   12CHTO   H47 4977   6.222   9.599   9.587 -1.0337 -0.7562  0.3233
   12CHTO   C20 4978   6.420   9.611   9.504  0.4546 -0.6130  0.2039
   12CHTO   H48 4979   6.501   9.547   9.466  0.6689 -0.8615  1.0600
   12CHTO   O19 4980   6.470   9.695   9.608  0.3070  0.0470 -0.5626
   12CHTO   H35 4981   6.556   9.726   9.585 -0.3052  0.5456 -2.2469
   12CHTO   C21 4982   6.353   9.688   9.381  0.0862  0.2407 -0.2375
   12CHTO   H49 4983   6.268   9.746   9.416 -0.3505 -1.0812  0.9483
   12CHTO    N4 4984   6.458   9.773   9.314 -0.3900  0.6472 -0.4872
   12CHTO   H41 4985   6.553   9.721   9.302 -2.1114 -2.3432 -1.8850
   12CHTO   H42 4986   6.477   9.869   9.358 -1.6950  0.9920 -0.6590
   12CHTO   C22 4987   6.306   9.582   9.285 -0.3430  0.7947  0.2262
   12CHTO   H50 4988   6.387   9.522   9.244 -0.4442  2.5359 -2.6170
   12CHTO   O14 4989   6.222   9.487   9.347  0.3489  0.2166  0.0453
   12CHTO   C23 4990   6.268   9.416   9.465  0.0475  0.2015  0.0421
   12CHTO   H51 4991   6.352   9.351   9.441 -0.6988 -1.1507  1.0274
   12CHTO   C34 4992   6.147   9.336   9.511 -0.4452 -0.4584 -0.7909
   12CHTO   O23 4993   6.193   9.261   9.624  0.2987  0.5082  0.0001
   12CHTO   H38 4994   6.242   9.185   9.600  0.8216  1.1246 -0.9101
   12CHTO   O16 4995   6.236   9.638   9.174 -0.0126 -0.2961  0.0197
   12CHTO   C24 4996   6.233   9.557   9.036 -0.6235 -0.8048 -0.0897
   12CHTO   H52 4997   6.249   9.451   9.055 -0.1444 -0.4996  1.2959
   12CHTO   C26 4998   6.346   9.606   8.943  0.5409 -0.2873  0.3158
   12CHTO   H54 4999   6.339   9.717   8.944 -2.8376 -0.4451 -0.7953
   12CHTO   O20 5000   6.469   9.559   8.994  0.3894 -0.4639 -0.3163
   12CHTO   H36 5001   6.534   9.602   8.943 -0.9145 -0.6836 -2.1892
   12CHTO   C30 5002   6.330   9.559   8.800 -0.5786 -0.5516  0.3253
   12CHTO   H58 5003   6.370   9.457   8.791  4.5018  1.2494  1.0298
   12CHTO    N6 5004   6.394   9.638   8.694  0.5001  0.0036 -0.4563
   12CHTO   H45 5005   6.401   9.607   8.591  3.2381 -1.9512  0.2447
   12CHTO   H46 5006   6.348   9.735   8.705 -3.4838 -1.8121 -0.2086
   12CHTO   C33 5007   6.182   9.542   8.759  0.4867  0.3157 -0.7909
   12CHTO   H61 5008   6.137   9.636   8.725 -1.9823 -1.1505 -1.6859
   12CHTO   O18 5009   6.099   9.491   8.866 -0.1457  0.3370 -0.0460
   12CHTO   C28 5010   6.094   9.577   8.982 -0.4609 -0.0912  0.0876
   12CHTO   H56 5011   6.083   9.680   8.948 -2.4324 -0.3113 -0.0227
   12CHTO   C35 5012   5.983   9.535   9.076  0.3127 -0.1704 -0.4466
   12CHTO   O24 5013   5.884   9.638   9.079  0.4281 -0.4195  0.1746
   12CHTO   H39 5014   5.802   9.597   9.098 -1.0586  2.0313 -0.6802
   12CHTO    O9 5015   6.175   9.455   8.644 -0.6504  0.5062 -0.1008
   12CHTO   C13 5016   6.184   9.293   8.675 -0.0537 -0.3169 -0.1965
   12CHTO   H26 5017   6.192   9.271   8.784 -0.9508 -0.5950 -0.1849
   12CHTO   C11 5018   6.296   9.219   8.594  0.2841 -0.6410  0.3569
   12CHTO   H24 5019   6.397   9.242   8.632  0.3012 -0.2122  0.0689
   12CHTO    O8 5020   6.281   9.245   8.450 -0.3952  0.6870  0.2034
   12CHTO    H3 5021   6.362   9.266   8.409 -0.7109 -0.1188 -0.8455
   12CHTO    C9 5022   6.269   9.070   8.616 -0.4777 -0.0495 -0.4522
   12CHTO   H22 5023   6.261   9.054   8.725 -0.3637  1.7428 -0.1578
   12CHTO    N2 5024   6.383   8.990   8.566  0.5616 -0.7218  0.3745
   12CHTO   H10 5025   6.400   9.019   8.463 -0.0076  0.1693  0.5312
   12CHTO   H11 5026   6.353   8.887   8.580 -0.3110 -0.8653 -2.3143
   12CHTO    C7 5027   6.139   9.025   8.561  0.6227 -0.0242  0.6276
   12CHTO   H20 5028   6.128   8.918   8.588  0.0156  0.7370  3.5838
   12CHTO    O4 5029   6.029   9.095   8.622  0.5276 -1.3636 -0.1484
   12CHTO   C14 5030   6.038   9.235   8.664  0.6097 -0.1158  0.2014
   12CHTO   H27 5031   5.996   9.237   8.767  1.7308  0.3503  0.6539
   12CHTO   C18 5032   5.944   9.303   8.562  0.2623 -0.3750 -0.5133
   12CHTO   O13 5033   5.807   9.267   8.586 -0.0473 -0.2538 -0.0033
   12CHTO    H7 5034   5.785   9.187   8.543 -0.9153 -1.2659  2.2426
   12CHTO    O2 5035   6.125   9.038   8.395  0.6385  0.3170  0.2210
   12CHTO    C1 5036   6.107   8.922   8.315 -0.8262 -0.6171  0.6292
   12CHTO   H14 5037   6.114   8.828   8.374  3.5840 -0.5432  0.3620
   12CHTO    C2 5038   6.202   8.901   8.190  0.0975  0.5067  0.1244
   12CHTO   H15 5039   6.174   8.971   8.110 -0.5953  0.3412  0.2219
   12CHTO    O6 5040   6.338   8.913   8.233  0.2813  0.3928 -0.2513
   12CHTO    H1 5041   6.351   9.004   8.250  1.0001  0.0755  0.9195
   12CHTO    C3 5042   6.172   8.758   8.129 -0.2653  0.9678  0.8652
   12CHTO   H16 5043   6.173   8.691   8.216  0.6615  1.0297  0.9087
   12CHTO    N1 5044   6.268   8.713   8.016  0.8320  0.5196 -0.1378
   12CHTO    H8 5045   6.218   8.636   7.960  0.7321  1.1250 -0.8816
   12CHTO    H9 5046   6.365   8.689   8.056  1.5958  3.2264 -0.2962
   12CHTO    C4 5047   6.023   8.764   8.076  0.0266  0.2862  0.3276
   12CHTO   H17 5048   6.022   8.829   7.988  0.4024 -1.0482 -0.6664
   12CHTO    O1 5049   5.938   8.800   8.187 -0.2131 -0.2523 -0.2166
   12CHTO    C5 5050   5.965   8.914   8.264  0.0793  0.1820 -0.6444
   12CHTO   H18 5051   5.950   9.006   8.208  0.0005  1.4417  1.3645
   12CHTO   C16 5052   5.860   8.913   8.380  0.0396 -0.2981  0.5941
   12CHTO   O11 5053   5.880   8.796   8.459 -0.3865 -0.2391  0.1490
   12CHTO    H5 5054   5.906   8.827   8.544  0.6825 -0.1399 -0.2027
   12CHTO    O3 5055   5.967   8.636   8.037 -0.4009 -0.1038 -0.3752
   12CHTO    C6 5056   5.870   8.643   7.932 -0.4921 -0.1422 -0.3472
   12CHTO   H19 5057   5.859   8.743   7.890  1.0941  1.0435  1.9239
   12CHTO    C8 5058   5.927   8.547   7.821 -0.0323 -0.0586  0.3001
   12CHTO   H21 5059   5.954   8.452   7.866 -1.0150 -1.0787 -1.2111
   12CHTO    O7 5060   6.032   8.615   7.749 -0.4673 -0.2134 -0.0753
   12CHTO    H2 5061   6.102   8.638   7.806 -0.0780  0.1549 -0.7066
   12CHTO   C12 5062   5.817   8.493   7.720 -0.1698 -0.0177 -0.4624
   12CHTO   H25 5063   5.787   8.578   7.656 -2.0858  1.2474  2.0367
   12CHTO    N3 5064   5.866   8.382   7.632 -0.1362 -0.4686 -0.3263
   12CHTO   H12 5065   5.787   8.348   7.566 -0.6226 -0.0291  0.0223
   12CHTO   H13 5066   5.897   8.304   7.699 -0.7374 -0.0201  0.4827
   12CHTO   C15 5067   5.695   8.449   7.798 -0.7822 -0.4503  0.4357
   12CHTO   H28 5068   5.721   8.375   7.874 -1.0021 -0.0201  0.9282
   12CHTO   O10 5069   5.564   8.418   7.717  0.0279 -0.1748 -0.1011
   12CHTO    H4 5070   5.579   8.379   7.633  2.4808 -0.7918  0.5986
   12CHTO    O5 5071   5.651   8.566   7.863  0.2908  0.6250 -0.0614
   12CHTO   C10 5072   5.731   8.592   7.979 -0.1659 -0.4712  0.4648
   12CHTO   H23 5073   5.736   8.499   8.037  0.4489 -0.9043 -0.2752
   12CHTO   C17 5074   5.658   8.696   8.063 -0.0550 -0.8395  0.6630
   12CHTO   O12 5075   5.634   8.812   7.981  0.0454  0.7469  0.0092
   12CHTO    H6 5076   5.604   8.886   8.030 -1.9129  0.7236 -1.1023
   13CHTO  H203 5077   6.363   4.654   3.759  1.3697  1.6375  1.5579
   13CHTO   O82 5078   6.354   4.716   3.689 -0.0067  0.0442  0.2797
   13CHTO  C123 5079   6.292   4.841   3.729 -0.3854  0.6773  0.1752
   13CHTO  H227 5080   6.323   4.861   3.833 -0.5308 -0.8050  0.5130
   13CHTO   O77 5081   6.362   4.936   3.650 -0.6113 -0.0179  0.2150
   13CHTO  C118 5082   6.320   5.077   3.652 -0.0921  0.0917  0.0720
   13CHTO  H222 5083   6.339   5.120   3.751  1.0751 -1.1482  0.4045
   13CHTO  C125 5084   6.408   5.156   3.545 -0.7542 -0.1787  0.4057
   13CHTO   O84 5085   6.547   5.118   3.543 -0.2690  0.0115  0.5400
   13CHTO  H205 5086   6.601   5.186   3.508 -0.1571  0.0548  0.8028
   13CHTO  C114 5087   6.171   5.088   3.610  0.2703  0.4782  0.3503
   13CHTO  H218 5088   6.164   5.052   3.508  0.0412  1.5318 -0.0134
   13CHTO  C116 5089   6.081   4.988   3.699 -0.3612  0.4458  0.0379
   13CHTO  H220 5090   6.073   5.028   3.802 -0.4962  1.0512 -0.2094
   13CHTO   O79 5091   5.951   5.002   3.647 -0.3332 -0.3248 -0.4476
   13CHTO  H201 5092   5.881   4.987   3.708  0.1273 -1.1472 -0.0995
   13CHTO  C120 5093   6.140   4.840   3.701  0.1794  0.3427 -0.4093
   13CHTO  H224 5094   6.106   4.795   3.606 -0.9221 -0.2309  0.2328
   13CHTO   N21 5095   6.066   4.761   3.801  0.0637  0.4069 -0.3905
   13CHTO  H211 5096   5.962   4.790   3.807 -0.7789 -1.8743 -2.9237
   13CHTO  H212 5097   6.074   4.656   3.774  0.2649  0.1633  0.6167
   13CHTO   O75 5098   6.129   5.228   3.609 -0.0850 -0.2533 -0.2570
   13CHTO  C112 5099   6.134   5.312   3.761  0.9241  0.1089  1.1532
   13CHTO  H216 5100   6.221   5.281   3.822  0.7717 -0.8313  0.8998
   13CHTO   O73 5101   6.010   5.284   3.827 -0.4116  0.1836 -0.6404
   13CHTO  C113 5102   5.978   5.360   3.942 -0.1773 -0.2083 -0.2115
   13CHTO  H217 5103   6.066   5.354   4.009 -1.0527 -0.1492  0.9573
   13CHTO  C124 5104   5.857   5.290   4.014  0.3785  0.1682 -0.1935
   13CHTO   O83 5105   5.880   5.157   4.055  0.3071  0.0852  0.6321
   13CHTO  H204 5106   5.811   5.101   4.024 -1.2298  2.2756 -0.0323
   13CHTO  C109 5107   5.964   5.507   3.903 -0.0285 -0.7883 -0.0098
   13CHTO  H213 5108   5.884   5.512   3.828 -2.5382  0.7115  2.6745
   13CHTO  C110 5109   6.113   5.549   3.852  0.6129  1.1610 -0.0975
   13CHTO  H214 5110   6.191   5.525   3.925  0.6496  2.8215  0.4274
   13CHTO   O78 5111   6.114   5.688   3.819  0.1804  0.0942  0.3312
   13CHTO  H200 5112   6.192   5.732   3.845 -0.2281  0.6868  0.5608
   13CHTO  C111 5113   6.147   5.465   3.727 -1.2464 -0.1956 -0.2513
   13CHTO  H215 5114   6.072   5.485   3.650 -0.3797 -0.0458 -1.0724
   13CHTO   N19 5115   6.283   5.494   3.663 -0.0132 -0.5609  0.0383
   13CHTO  H207 5116   6.344   5.566   3.715  0.1412 -0.6155 -0.0704
   13CHTO  H208 5117   6.273   5.515   3.558  2.0715 -2.2186 -0.5201
   13CHTO   O74 5118   5.915   5.582   4.022  0.6591 -0.0518 -0.7267
   13CHTO  C115 5119   5.776   5.639   4.009 -0.5880  0.2550  0.7895
   13CHTO  H219 5120   5.740   5.634   3.906  0.9949  2.7505  0.0887
   13CHTO   O76 5121   5.663   5.550   4.081  0.8386 -0.2232  0.1600
   13CHTO  C122 5122   5.678   5.549   4.226 -0.0210  0.4850 -0.2164
   13CHTO  H226 5123   5.778   5.510   4.245  0.0727  0.3871 -0.8887
   13CHTO  C126 5124   5.585   5.440   4.287  0.0605  0.0362  0.0734
   13CHTO   O85 5125   5.621   5.310   4.243  0.0993  1.1133 -0.0612
   13CHTO  H206 5126   5.712   5.288   4.233 -0.3305 -1.2793  0.9775
   13CHTO  C121 5127   5.661   5.691   4.282 -0.1518 -0.2624 -0.1082
   13CHTO  H225 5128   5.561   5.691   4.330  0.5854 -1.3997  1.4895
   13CHTO   O81 5129   5.761   5.739   4.376  0.4862  0.4979 -0.3289
   13CHTO  H202 5130   5.764   5.682   4.450 -1.2078  0.7903 -0.0225
   13CHTO  C119 5131   5.657   5.797   4.169  0.0815 -0.9972  0.2642
   13CHTO  H223 5132   5.562   5.783   4.117  0.5298  0.2520 -0.9445
   13CHTO  C117 5133   5.771   5.785   4.067  0.1090  0.0872 -0.4327
   13CHTO  H221 5134   5.873   5.808   4.098 -0.3084  0.0295  1.0102
   13CHTO   N20 5135   5.750   5.872   3.952  0.8724  0.5194  0.2782
   13CHTO  H209 5136   5.843   5.919   3.923  2.2693 -2.2457  0.0775
   13CHTO  H210 5137   5.689   5.826   3.876 -0.6629  0.0052  1.7820
   13CHTO   O80 5138   5.648   5.955   4.225 -0.4807 -0.0760 -0.4604
   13CHTO  C103 5139   5.508   6.019   4.277 -0.1749  0.2155 -0.1833
   13CHTO  H190 5140   5.511   6.124   4.250  1.0836 -0.0452 -1.1105
   13CHTO  C101 5141   5.372   5.958   4.228  1.1198  0.1530  0.1109
   13CHTO  H188 5142   5.369   5.851   4.247  1.6297 -0.0610 -0.9579
   13CHTO   O68 5143   5.374   5.962   4.086 -0.7616  0.2541 -0.2374
   13CHTO  H168 5144   5.438   5.902   4.052 -1.9724 -1.5208  0.5427
   13CHTO   C99 5145   5.246   6.021   4.302  0.1730 -0.7107 -0.6781
   13CHTO  H186 5146   5.245   6.132   4.292  1.4637 -0.2285  3.6401
   13CHTO   N17 5147   5.123   5.962   4.250  0.0451 -0.0746 -0.2228
   13CHTO  H174 5148   5.140   5.855   4.254 -0.8597 -0.2287 -0.3186
   13CHTO  H175 5149   5.040   5.986   4.314  0.0647 -1.0796  0.1990
   13CHTO   C97 5150   5.272   6.001   4.458 -0.8904  0.1307  0.2649
   13CHTO  H184 5151   5.269   5.893   4.479  0.8141  0.2997  1.4553
   13CHTO   O64 5152   5.396   6.056   4.491 -0.3057 -0.3058 -0.1888
   13CHTO  C104 5153   5.514   6.003   4.431 -0.5226  0.6387 -0.9183
   13CHTO  H191 5154   5.535   5.899   4.460  2.1306  1.1141 -1.0187
   13CHTO  C108 5155   5.639   6.075   4.488 -0.9969 -0.0347 -0.3394
   13CHTO   O71 5156   5.759   6.003   4.506  0.2545 -0.4995 -0.0606
   13CHTO  H171 5157   5.758   5.953   4.585  1.4178 -1.1161 -0.4305
   13CHTO   O62 5158   5.185   6.079   4.538  0.3162  0.2448 -0.1741
   13CHTO   C91 5159   5.109   6.010   4.638  0.1426 -0.2306 -0.4212
   13CHTO  H178 5160   5.122   5.902   4.640 -0.6549 -0.3398 -0.7724
   13CHTO   C92 5161   4.959   6.017   4.601 -0.1056 -0.2735 -0.2720
   13CHTO  H179 5162   4.944   6.123   4.574  1.4285 -0.0799 -0.4667
   13CHTO   O66 5163   4.942   5.944   4.477  0.4731 -0.2290  0.5107
   13CHTO  H166 5164   4.987   5.975   4.401  0.4730  1.6498  1.2615
   13CHTO   C93 5165   4.850   5.970   4.706 -0.2575  0.0395  0.4457
   13CHTO  H180 5166   4.851   5.860   4.705  0.2348  0.0499 -2.4919
   13CHTO   N16 5167   4.717   6.035   4.675  0.8943  0.2573 -0.3253
   13CHTO  H172 5168   4.732   6.142   4.674  2.9217  0.0474  2.1805
   13CHTO  H173 5169   4.676   6.001   4.581  1.8276  0.7623 -0.9205
   13CHTO   C94 5170   4.892   6.019   4.849 -0.3390  0.2343  0.1971
   13CHTO  H181 5171   4.867   6.124   4.864  1.8837  1.0000 -1.1960
   13CHTO   O61 5172   5.029   6.002   4.882 -0.5671 -0.2296 -0.3729
   13CHTO   C95 5173   5.124   6.060   4.792  0.5678 -0.3185 -0.0458
   13CHTO  H182 5174   5.125   6.168   4.803 -2.4826 -0.3735  1.2548
   13CHTO  C106 5175   5.267   6.026   4.850  0.4349 -0.1207  0.0024
   13CHTO   O69 5176   5.352   6.103   4.767  0.0060  0.2631 -0.7893
   13CHTO  H169 5177   5.354   6.070   4.679 -0.5161 -1.1191 -0.2952
   13CHTO   O63 5178   4.793   5.907   4.967 -0.2247 -0.3297 -0.3697
   13CHTO   C96 5179   4.775   5.967   5.114  0.1224  0.1725  0.3482
   13CHTO  H183 5180   4.724   6.062   5.102  0.0244  0.0200 -0.5380
   13CHTO   C98 5181   4.910   5.991   5.197 -0.2572 -0.3569  1.3488
   13CHTO  H185 5182   4.987   6.045   5.141 -0.8695  0.1752  1.0098
   13CHTO   O67 5183   4.868   6.087   5.302 -0.3809 -0.1424 -0.6628
   13CHTO  H167 5184   4.944   6.141   5.312  1.6968 -3.2029  0.4570
   13CHTO  C102 5185   4.956   5.858   5.260  0.1352  0.9144 -0.1018
   13CHTO  H189 5186   5.033   5.887   5.333  0.5472  3.5972 -1.5673
   13CHTO   N18 5187   5.018   5.759   5.173  0.3692  0.2811 -0.2759
   13CHTO  H176 5188   4.941   5.726   5.105 -0.8313  3.0903 -0.3455
   13CHTO  H177 5189   5.087   5.807   5.104 -1.9138  3.2780 -0.5743
   13CHTO  C105 5190   4.846   5.789   5.353 -0.6749 -0.3825  0.4417
   13CHTO  H192 5191   4.832   5.684   5.330  0.2775 -0.7986  1.7046
   13CHTO   O65 5192   4.720   5.852   5.333 -0.0843 -0.2436  0.0087
   13CHTO  C100 5193   4.686   5.873   5.196 -0.0942  0.5845  0.0652
   13CHTO  H187 5194   4.697   5.780   5.137  1.4474  0.4902  0.4910
   13CHTO  C107 5195   4.538   5.919   5.193  0.4192 -0.1351 -0.1719
   13CHTO   O70 5196   4.452   5.805   5.231 -0.0865 -0.0594  0.0005
   13CHTO  H170 5197   4.466   5.782   5.320 -0.6830  0.2818  0.1861
   13CHTO   O57 5198   4.899   5.792   5.507  0.0600 -0.5763 -0.1974
   13CHTO   C85 5199   4.840   5.701   5.603  0.4282  0.2175 -0.0469
   13CHTO  H157 5200   4.844   5.603   5.550  0.0853 -1.2089  2.4482
   13CHTO   C83 5201   4.693   5.728   5.643 -0.5119  0.2207  0.7146
   13CHTO  H155 5202   4.643   5.707   5.549  1.8596 -0.5572 -0.4016
   13CHTO   O56 5203   4.673   5.863   5.688  0.0925  0.5765 -0.6751
   13CHTO  H135 5204   4.629   5.905   5.618  1.3936  0.5757 -1.5068
   13CHTO   C81 5205   4.644   5.621   5.742  0.2507  0.1118  0.1770
   13CHTO  H153 5206   4.645   5.528   5.687 -2.0644  0.2610 -0.1641
   13CHTO   N14 5207   4.501   5.643   5.781 -0.4142 -0.0650  0.5585
   13CHTO  H141 5208   4.442   5.603   5.701  0.0406 -0.3124  0.3449
   13CHTO  H142 5209   4.449   5.615   5.870 -1.7542 -1.7649 -0.7171
   13CHTO   C79 5210   4.731   5.615   5.867  0.1871 -0.1633 -0.4066
   13CHTO  H151 5211   4.705   5.525   5.923  1.9385 -0.7412 -0.5221
   13CHTO   O52 5212   4.867   5.593   5.834  0.3827 -0.0369 -0.0359
   13CHTO   C86 5213   4.920   5.697   5.737 -0.1794 -0.9039 -0.1440
   13CHTO  H158 5214   4.913   5.794   5.792 -0.1593 -1.5719  1.0400
   13CHTO   C90 5215   5.065   5.675   5.719 -0.3007  0.1610 -0.3224
   13CHTO   O60 5216   5.126   5.687   5.850  0.4130 -0.0293 -0.0868
   13CHTO  H138 5217   5.219   5.690   5.844  0.5076 -1.9628 -0.0454
   13CHTO   O50 5218   4.721   5.733   5.955  0.3330  0.3857  0.9598
   13CHTO   C73 5219   4.692   5.840   6.049 -0.2215  0.1240 -0.4783
   13CHTO  H145 5220   4.584   5.859   6.037  0.3350  2.1005 -2.7006
   13CHTO   C74 5221   4.768   5.978   6.016 -0.0321  0.1191 -0.6790
   13CHTO  H146 5222   4.754   5.999   5.909 -1.8748  1.4089 -0.2146
   13CHTO   O54 5223   4.697   6.089   6.080  0.5869 -0.2434  0.1102
   13CHTO  H133 5224   4.604   6.087   6.071  0.6669 -2.0713 -0.5599
   13CHTO   C75 5225   4.919   5.977   6.053  0.1468 -0.9268  0.2840
   13CHTO  H147 5226   4.971   5.914   5.980  3.2601  1.3944  0.3559
   13CHTO   N13 5227   4.980   6.117   6.033  0.0907  0.0009  0.2536
   13CHTO  H139 5228   5.086   6.101   6.045 -0.2205 -3.1797 -0.8061
   13CHTO  H140 5229   4.954   6.155   5.935  2.3777 -3.2132 -1.6951
   13CHTO   C76 5230   4.940   5.908   6.189 -0.2827  0.1260  0.0860
   13CHTO  H148 5231   4.912   5.975   6.270 -0.3383  0.8921 -0.5610
   13CHTO   O49 5232   4.871   5.782   6.212 -0.1590  0.4585 -0.4203
   13CHTO   C77 5233   4.728   5.800   6.201 -0.3341  0.4811  0.4944
   13CHTO  H149 5234   4.692   5.879   6.268  0.1109  1.6621 -0.6209
   13CHTO   C88 5235   4.655   5.674   6.248 -0.2634 -0.0099  0.4733
   13CHTO   O58 5236   4.717   5.551   6.213  0.4949  0.2257 -0.5362
   13CHTO  H136 5237   4.807   5.555   6.238  0.6210  0.5814 -1.0276
   13CHTO   O51 5238   5.090   5.857   6.181 -0.4221  0.1967  0.0760
   13CHTO   C78 5239   5.186   5.830   6.284  0.2349  0.1074 -0.2282
   13CHTO  H150 5240   5.135   5.780   6.370  2.2137 -2.5009 -0.5192
   13CHTO   C80 5241   5.251   5.962   6.338 -0.6473  0.1451  0.5241
   13CHTO  H152 5242   5.284   6.029   6.256 -2.2457 -0.0373 -0.2968
   13CHTO   O55 5243   5.140   6.031   6.406 -0.0841  0.2709 -0.5540
   13CHTO  H134 5244   5.104   5.970   6.467  0.0369  1.7171  0.9934
   13CHTO   C84 5245   5.373   5.932   6.435 -0.4609 -0.2464 -0.4532
   13CHTO  H156 5246   5.336   5.872   6.518  3.8648  0.9056  2.5196
   13CHTO   N15 5247   5.439   6.044   6.493 -0.0746 -0.6968 -0.5614
   13CHTO  H143 5248   5.458   6.120   6.420  1.3474 -0.5588 -0.0631
   13CHTO  H144 5249   5.374   6.083   6.569 -1.2933 -1.0920 -1.3806
   13CHTO   C87 5250   5.471   5.838   6.357  0.5722 -0.1317  0.0218
   13CHTO  H159 5251   5.493   5.894   6.267  1.1223  1.3932  1.0892
   13CHTO   O53 5252   5.386   5.704   6.331  0.3316 -0.2398  0.3061
   13CHTO   C82 5253   5.296   5.733   6.226  0.3050  0.2262  0.2734
   13CHTO  H154 5254   5.345   5.785   6.143  0.0748  0.9359  0.5740
   13CHTO   C89 5255   5.235   5.599   6.177  0.2485 -0.4175  0.5233
   13CHTO   O59 5256   5.297   5.536   6.068 -0.2362 -0.1743 -0.2903
   13CHTO  H137 5257   5.352   5.463   6.092 -0.3924  0.0709  0.8462
   13CHTO   O45 5258   5.609   5.788   6.450 -0.3101  0.6787  1.3311
   13CHTO   C67 5259   5.733   5.784   6.381 -0.1563  0.0595 -0.1792
   13CHTO  H124 5260   5.732   5.847   6.292 -0.8910  1.4630  0.8027
   13CHTO   C65 5261   5.842   5.831   6.484  0.4931 -0.1581  0.3556
   13CHTO  H122 5262   5.804   5.809   6.584 -0.5745  2.0950  0.4837
   13CHTO   O44 5263   5.826   5.975   6.467 -0.1347 -0.4152 -0.4227
   13CHTO  H102 5264   5.871   6.010   6.541 -1.9496  0.3864  0.3231
   13CHTO   C63 5265   5.988   5.765   6.479  0.0170  0.6260 -0.0752
   13CHTO  H120 5266   5.995   5.687   6.555  1.2287  0.0224 -0.7937
   13CHTO   N11 5267   6.104   5.841   6.526  0.0867  0.6164  0.0090
   13CHTO  H108 5268   6.099   5.856   6.632  2.1351 -0.2392  0.2607
   13CHTO  H109 5269   6.114   5.927   6.464  0.0801 -0.8194 -2.0445
   13CHTO   C61 5270   6.017   5.710   6.339 -0.2725 -0.2353 -0.1980
   13CHTO  H118 5271   6.109   5.651   6.347  1.3264  1.8590 -2.2948
   13CHTO   O40 5272   5.908   5.617   6.299  0.4053 -0.1417 -0.1090
   13CHTO   C68 5273   5.767   5.636   6.327 -0.3983  0.3242 -0.0591
   13CHTO  H125 5274   5.725   5.584   6.415  2.8231 -0.1096  1.2794
   13CHTO   C72 5275   5.680   5.587   6.205 -0.2934  0.0171 -0.1393
   13CHTO   O48 5276   5.676   5.445   6.207 -0.0464  0.1052  0.3926
   13CHTO  H105 5277   5.617   5.403   6.267 -0.2803 -1.1657 -0.7129
   13CHTO   O38 5278   6.038   5.809   6.234  0.4824 -0.2518  0.1252
   13CHTO   C55 5279   6.119   5.759   6.126  0.5888 -0.6744  0.2471
   13CHTO  H112 5280   6.091   5.652   6.121 -1.2662 -0.0975 -2.1228
   13CHTO   C56 5281   6.275   5.783   6.138 -0.0600  0.0347  0.3843
   13CHTO  H113 5282   6.300   5.886   6.168  1.6298 -0.5032  0.8522
   13CHTO   O42 5283   6.317   5.693   6.239  0.1768  0.3361 -0.0090
   13CHTO  H100 5284   6.384   5.731   6.293  3.8373 -1.4838 -3.1139
   13CHTO   C57 5285   6.357   5.760   6.006  0.5189 -0.1169 -0.1972
   13CHTO  H114 5286   6.356   5.655   5.978  2.5909 -0.1896 -0.0655
   13CHTO   N10 5287   6.498   5.789   6.023 -0.5034 -0.0489 -0.4775
   13CHTO  H106 5288   6.561   5.708   6.059 -0.0197  1.1605  1.4397
   13CHTO  H107 5289   6.516   5.876   6.084 -2.3972 -0.2531  0.3983
   13CHTO   C58 5290   6.288   5.839   5.894  0.3843 -0.2362  0.8337
   13CHTO  H115 5291   6.299   5.947   5.917  0.6776  0.1840 -1.1223
   13CHTO   O37 5292   6.149   5.801   5.890 -0.4562 -0.0353  0.1119
   13CHTO   C59 5293   6.068   5.836   5.998 -0.8963  0.0703  0.0001
   13CHTO  H116 5294   6.060   5.942   6.022 -0.7315  0.3418 -1.1379
   13CHTO   C70 5295   5.929   5.777   5.971  0.7321 -0.0664 -0.7849
   13CHTO   O46 5296   5.872   5.807   5.842  0.5405 -0.6718  0.1804
   13CHTO  H103 5297   5.845   5.897   5.842  1.9536 -0.2439 -0.7334
   13CHTO   O39 5298   6.373   5.810   5.745 -0.1541  0.3789  0.0881
   13CHTO   C60 5299   6.463   5.904   5.713  0.3285 -0.6720  0.4093
   13CHTO  H117 5300   6.479   5.977   5.792  0.6219  2.6870 -2.6589
   13CHTO   C62 5301   6.600   5.847   5.673  0.6195 -0.1825  0.1983
   13CHTO  H119 5302   6.630   5.774   5.751 -0.7644 -0.8233  0.1456
   13CHTO   O43 5303   6.584   5.763   5.555 -0.3259  0.1037  0.3933
   13CHTO  H101 5304   6.660   5.708   5.548 -0.7342 -0.2846 -1.1771
   13CHTO   C66 5305   6.713   5.954   5.664  0.2053 -0.4045  0.2243
   13CHTO  H123 5306   6.706   6.014   5.755 -1.9919 -0.7058  0.2844
   13CHTO   N12 5307   6.853   5.900   5.652  0.6552 -0.1203 -0.1460
   13CHTO  H110 5308   6.894   5.924   5.749  0.7266 -2.4186  0.4429
   13CHTO  H111 5309   6.903   5.937   5.564 -0.1853  1.9475  0.2288
   13CHTO   C69 5310   6.677   6.046   5.541  0.1236 -0.5503 -0.9152
   13CHTO  H126 5311   6.687   5.977   5.454  1.1007 -2.2484  0.5054
   13CHTO   O41 5312   6.520   6.093   5.552  0.2584 -0.3054 -0.1067
   13CHTO   C64 5313   6.413   5.988   5.591 -0.7597 -0.0296  0.2320
   13CHTO  H121 5314   6.387   5.935   5.498 -2.3558  1.7653 -0.3873
   13CHTO   C71 5315   6.282   6.064   5.621 -0.1626 -0.4256  0.0567
   13CHTO   O47 5316   6.220   6.106   5.502 -0.0666  0.3172 -0.1054
   13CHTO  H104 5317   6.187   6.032   5.453 -0.3182  0.5381 -0.2724
   13CHTO   O34 5318   6.774   6.175   5.525 -0.5651 -0.4648 -0.4895
   13CHTO   C49 5319   6.795   6.314   5.522  0.3213 -0.7331  0.0806
   13CHTO   H91 5320   6.808   6.339   5.416 -1.1053 -0.3710 -0.0200
   13CHTO   C47 5321   6.918   6.348   5.607  0.2216  0.5484  0.7845
   13CHTO   H89 5322   6.920   6.458   5.595 -0.5583  0.1102 -4.2275
   13CHTO   O33 5323   7.039   6.297   5.545  0.2821  0.5154 -0.3271
   13CHTO   H70 5324   7.113   6.321   5.597  0.8365 -0.4144 -0.6781
   13CHTO   C45 5325   6.901   6.307   5.764  0.1156  0.0704  0.4358
   13CHTO   H87 5326   6.922   6.199   5.758 -0.1451  0.1399 -3.0594
   13CHTO    N8 5327   7.005   6.381   5.842  0.0857 -0.4038  0.5838
   13CHTO   H75 5328   7.069   6.308   5.889 -1.8357 -2.4870  0.0473
   13CHTO   H76 5329   6.968   6.446   5.920  2.1780  0.7498  0.6488
   13CHTO   C43 5330   6.746   6.316   5.802  0.3279 -0.2690  0.6241
   13CHTO   H85 5331   6.712   6.220   5.764 -2.5451  1.0434 -0.2732
   13CHTO   O29 5332   6.684   6.424   5.734 -0.2943  0.5502  0.5690
   13CHTO   C50 5333   6.675   6.394   5.586  0.6577  0.6011 -0.5491
   13CHTO   H92 5334   6.588   6.328   5.572  0.3543  0.7899  0.3928
   13CHTO   C54 5335   6.634   6.519   5.512  0.2817 -0.5215 -0.1682
   13CHTO   O36 5336   6.721   6.629   5.533 -0.4183  0.3139 -0.3447
   13CHTO   H72 5337   6.675   6.702   5.569  0.1615 -0.1177  1.2894
   13CHTO   O27 5338   6.725   6.311   5.941 -0.3503  0.9703  0.0868
   13CHTO   C37 5339   6.624   6.337   6.041  0.2840  0.0437 -0.4078
   13CHTO   H79 5340   6.538   6.397   6.008 -1.3270 -1.6926  0.5442
   13CHTO   C38 5341   6.564   6.206   6.099 -0.2638  0.6652  0.3996
   13CHTO   H80 5342   6.647   6.150   6.143  0.7557  2.1271  0.3771
   13CHTO   O31 5343   6.492   6.133   5.994 -0.1326 -0.3433 -0.2204
   13CHTO   H68 5344   6.405   6.105   6.015 -0.0872 -0.4242 -0.1392
   13CHTO   C39 5345   6.462   6.227   6.216  0.1002  0.6550  0.1387
   13CHTO   H81 5346   6.368   6.264   6.176  1.4683  2.6780 -1.2666
   13CHTO    N7 5347   6.423   6.098   6.285  0.0975 -0.2245  0.3683
   13CHTO   H73 5348   6.318   6.101   6.312 -0.4705 -3.6811 -1.1516
   13CHTO   H74 5349   6.478   6.077   6.376 -0.4127 -0.0331  0.7253
   13CHTO   C40 5350   6.520   6.327   6.327  0.0926 -0.2463  0.2474
   13CHTO   H82 5351   6.591   6.278   6.394  0.6942 -0.4788 -0.5606
   13CHTO   O26 5352   6.584   6.436   6.256 -0.2786  0.1676 -0.3788
   13CHTO   C41 5353   6.686   6.420   6.157  0.8074  0.0426 -0.3688
   13CHTO   H83 5354   6.778   6.368   6.189  0.8249 -0.7660 -1.6827
   13CHTO   C52 5355   6.712   6.568   6.125 -0.0175 -0.0904  0.0215
   13CHTO   O35 5356   6.751   6.585   5.989  0.1716 -0.3994 -0.0231
   13CHTO   H71 5357   6.729   6.674   5.968 -1.2454 -0.3403  1.5608
   13CHTO   O28 5358   6.426   6.390   6.415  0.7747 -0.4650  0.9898
   13CHTO   C42 5359   6.465   6.461   6.540  1.0598  0.2547 -0.4242
   13CHTO   H84 5360   6.372   6.512   6.566  1.0183  0.0661 -0.2024
   13CHTO   C44 5361   6.576   6.572   6.528  0.1775 -0.2079 -0.2635
   13CHTO   H86 5362   6.669   6.525   6.498  0.0786  0.4117 -1.5492
   13CHTO   O32 5363   6.536   6.658   6.418 -0.1278 -0.3792  0.6014
   13CHTO   H69 5364   6.455   6.701   6.438 -0.1972 -0.4889  0.5608
   13CHTO   C48 5365   6.592   6.657   6.658 -0.1121  1.1494  0.0804
   13CHTO   H90 5366   6.501   6.716   6.664 -0.2323  0.8474  1.2097
   13CHTO    N9 5367   6.700   6.757   6.647 -0.5199 -0.3748 -0.1192
   13CHTO   H77 5368   6.664   6.841   6.589 -1.8628 -0.6393  0.3294
   13CHTO   H78 5369   6.783   6.714   6.593 -1.7884 -2.2917 -0.5588
   13CHTO   C51 5370   6.613   6.561   6.775  0.0707  0.0187  0.5591
   13CHTO   H93 5371   6.713   6.519   6.767 -0.1684 -0.2779 -0.9943
   13CHTO   O30 5372   6.514   6.459   6.793 -0.0188 -0.8228  0.4383
   13CHTO   C46 5373   6.504   6.375   6.660  0.3112  1.3327  0.3372
   13CHTO   H88 5374   6.599   6.327   6.637  0.8494  1.8389  1.4844
   13CHTO   C53 5375   6.397   6.262   6.682 -0.1323  0.2294  0.6236
   13CHTO   O72 5376   6.439   6.177   6.791  0.3860  0.4369 -0.4531
   13CHTO  H199 5377   6.364   6.148   6.839  1.8759  0.1553  1.8016
   13CHTO   O22 5378   6.611   6.651   6.893 -0.0121  0.1275  0.0901
   13CHTO   C31 5379   6.529   6.634   7.027 -0.6421 -0.5834 -0.1530
   13CHTO   H59 5380   6.434   6.588   6.994  0.5133 -1.6661 -2.0666
   13CHTO   C29 5381   6.587   6.535   7.130  0.1325 -0.4512 -0.3883
   13CHTO   H57 5382   6.691   6.568   7.142 -0.1038 -0.0585  0.5372
   13CHTO   O21 5383   6.592   6.403   7.074  0.1935  0.3753  0.2557
   13CHTO   H37 5384   6.631   6.404   6.989 -0.6347  0.0281 -0.1427
   13CHTO   C27 5385   6.512   6.533   7.269 -0.2191 -0.8053  0.1553
   13CHTO   H55 5386   6.419   6.478   7.251 -1.6263  1.3963  0.4679
   13CHTO    N5 5387   6.587   6.459   7.380  0.4805 -0.2411  0.2139
   13CHTO   H43 5388   6.617   6.363   7.341  0.2368 -0.6428  0.9986
   13CHTO   H44 5389   6.678   6.503   7.418  0.4690 -1.3673  1.6119
   13CHTO   C25 5390   6.466   6.678   7.319  1.1368 -0.5538 -0.5682
   13CHTO   H53 5391   6.558   6.731   7.349  1.2092 -0.2072 -1.4026
   13CHTO   O17 5392   6.418   6.752   7.206  0.5688  0.6070  0.0371
   13CHTO   C32 5393   6.499   6.772   7.093  0.3806 -0.0622  0.7219
   13CHTO   H60 5394   6.596   6.813   7.124  0.3739  0.7399 -0.2880
   13CHTO   C36 5395   6.429   6.860   6.998  0.7024 -0.3165 -0.2347
   13CHTO   O25 5396   6.521   6.926   6.907 -0.5628  0.2639 -0.4926
   13CHTO   H40 5397   6.574   6.987   6.954 -0.3064 -0.5317  0.2560
   13CHTO   O15 5398   6.360   6.682   7.440  0.0066 -0.1797  0.2223
   13CHTO   C19 5399   6.268   6.790   7.460  0.0499  0.6812 -0.5364
   13CHTO   H47 5400   6.229   6.761   7.559  0.5109  0.8970 -0.2890
   13CHTO   C20 5401   6.322   6.938   7.456 -0.2486 -0.7959 -0.4770
   13CHTO   H48 5402   6.359   6.959   7.355 -1.0489  0.2976 -0.5512
   13CHTO   O19 5403   6.435   6.927   7.551 -0.2501  0.1174 -0.1298
   13CHTO   H35 5404   6.488   7.005   7.548  2.2744 -1.6051 -2.1154
   13CHTO   C21 5405   6.210   7.045   7.491 -0.1432  0.6536  0.5386
   13CHTO   H49 5406   6.169   7.032   7.592 -1.7241  1.2946 -0.0125
   13CHTO    N4 5407   6.259   7.182   7.475  0.7199 -0.2100 -0.3791
   13CHTO   H41 5408   6.230   7.227   7.381  0.2126  2.0096  0.8123
   13CHTO   H42 5409   6.366   7.171   7.477  0.5484 -2.3113 -1.4283
   13CHTO   C22 5410   6.089   7.017   7.394  0.2130 -0.1138 -0.1449
   13CHTO   H50 5411   6.129   7.037   7.295 -0.9184  0.7303 -0.4292
   13CHTO   O14 5412   6.042   6.880   7.400 -0.0671  0.1395 -0.1137
   13CHTO   C23 5413   6.144   6.788   7.361  0.3179  0.8163  0.3401
   13CHTO   H51 5414   6.170   6.810   7.256 -0.2403  0.7564  0.1901
   13CHTO   C34 5415   6.084   6.650   7.339 -0.3840 -0.4254 -0.7558
   13CHTO   O23 5416   5.997   6.606   7.453 -0.0599  0.5868 -0.0581
   13CHTO   H38 5417   5.921   6.562   7.418 -0.9362  1.7987  0.2945
   13CHTO   O16 5418   5.977   7.104   7.436 -0.0589  0.1327  0.0486
   13CHTO   C24 5419   5.890   7.142   7.306 -0.6152 -0.7075 -0.8370
   13CHTO   H52 5420   5.903   7.070   7.225 -0.2088 -1.2613 -0.2820
   13CHTO   C26 5421   5.922   7.292   7.271  0.1101 -0.1761  0.2592
   13CHTO   H54 5422   5.919   7.348   7.367  0.2313  1.4097 -0.6404
   13CHTO   O20 5423   6.056   7.287   7.218 -0.2072  0.1226 -0.8779
   13CHTO   H36 5424   6.089   7.372   7.200 -2.1171  0.2987 -3.8289
   13CHTO   C30 5425   5.817   7.352   7.167  0.3254 -0.2614 -0.1415
   13CHTO   H58 5426   5.845   7.327   7.064  0.1933 -0.3986 -0.1428
   13CHTO    N6 5427   5.831   7.496   7.176 -0.4586 -0.2034 -0.1210
   13CHTO   H45 5428   5.835   7.523   7.280  2.6285  0.5331 -0.3777
   13CHTO   H46 5429   5.757   7.558   7.126 -2.4808 -1.1770  1.5709
   13CHTO   C33 5430   5.673   7.307   7.198  0.2280  0.3864  0.1822
   13CHTO   H61 5431   5.636   7.357   7.289 -1.8438  0.7915 -0.8530
   13CHTO   O18 5432   5.676   7.166   7.217  0.0661  0.3202 -0.0377
   13CHTO   C28 5433   5.744   7.133   7.341 -0.3603  0.4565 -0.4133
   13CHTO   H56 5434   5.722   7.194   7.429  0.6181  0.2828 -0.0377
   13CHTO   C35 5435   5.701   6.989   7.384 -0.5698  0.3138  0.1617
   13CHTO   O24 5436   5.561   6.979   7.391 -0.1848 -0.4292  0.5596
   13CHTO   H39 5437   5.536   6.888   7.397  0.2675 -0.4507  2.5230
   13CHTO    O9 5438   5.582   7.344   7.093  0.3311  0.5280  1.0980
   13CHTO   C13 5439   5.435   7.423   7.140 -0.2620 -0.0095  0.6425
   13CHTO   H26 5440   5.466   7.526   7.166 -2.4442  0.7053  0.5280
   13CHTO   C11 5441   5.372   7.348   7.259 -0.3507 -0.3665 -0.3637
   13CHTO   H24 5442   5.434   7.374   7.346 -1.4253  0.1046  0.2727
   13CHTO    O8 5443   5.375   7.205   7.242  0.7454  0.6122  0.4925
   13CHTO    H3 5444   5.461   7.175   7.263 -0.1257 -0.7183  2.2563
   13CHTO    C9 5445   5.235   7.411   7.280 -0.2289  0.6076  0.3768
   13CHTO   H22 5446   5.256   7.518   7.296 -0.8875  0.5773  1.5207
   13CHTO    N2 5447   5.155   7.368   7.403 -0.1912 -0.4293  0.2401
   13CHTO   H10 5448   5.189   7.426   7.487 -0.0506 -0.2312  0.0471
   13CHTO   H11 5449   5.049   7.384   7.389  0.3150  0.8044 -2.6690
   13CHTO    C7 5450   5.143   7.384   7.151  0.0503  0.1337 -0.0839
   13CHTO   H20 5451   5.108   7.488   7.132  0.4863  0.7289  2.2336
   13CHTO    O4 5452   5.218   7.342   7.035  0.1461  0.1033  0.2425
   13CHTO   C14 5453   5.336   7.420   7.017  0.3257 -0.0039  0.7170
   13CHTO   H27 5454   5.307   7.525   7.001 -1.5746 -0.4934  0.8172
   13CHTO   C18 5455   5.398   7.371   6.873  0.1074  0.4659  0.3297
   13CHTO   O13 5456   5.515   7.445   6.830 -0.0203 -0.7614  0.0930
   13CHTO    H7 5457   5.500   7.519   6.774 -0.0587 -1.0749 -0.3122
   13CHTO    O2 5458   5.004   7.282   7.168  0.2486 -0.0974  0.1567
   13CHTO    C1 5459   4.869   7.335   7.140  0.3178  0.0848 -0.4946
   13CHTO   H14 5460   4.868   7.410   7.058 -0.3852  3.1477  2.2074
   13CHTO    C2 5461   4.796   7.399   7.266 -0.3724  0.1066  0.1792
   13CHTO   H15 5462   4.817   7.328   7.348  1.5584  1.0296  0.5005
   13CHTO    O6 5463   4.861   7.526   7.298 -0.4846  0.3861 -0.3340
   13CHTO    H1 5464   4.845   7.542   7.389 -1.6898 -2.6460  0.0381
   13CHTO    C3 5465   4.636   7.423   7.242 -0.0656  0.3867  0.0658
   13CHTO   H16 5466   4.622   7.507   7.173 -1.2065  1.6430  1.7849
   13CHTO    N1 5467   4.564   7.455   7.368  0.1532 -0.1782 -0.1214
   13CHTO    H8 5468   4.465   7.416   7.349  0.2460  0.3298 -1.6925
   13CHTO    H9 5469   4.608   7.396   7.448  0.3769 -0.4878 -0.4713
   13CHTO    C4 5470   4.579   7.301   7.163  0.1346 -0.1374  1.0699
   13CHTO   H17 5471   4.574   7.220   7.236 -0.5275 -1.2226 -0.1609
   13CHTO    O1 5472   4.661   7.263   7.052 -0.1518 -0.3375 -0.0923
   13CHTO    C5 5473   4.785   7.213   7.097 -0.0135  0.0768 -0.2985
   13CHTO   H18 5474   4.772   7.139   7.176  1.7482 -1.2319 -1.1835
   13CHTO   C16 5475   4.858   7.139   6.984  0.7904 -0.2579 -0.5970
   13CHTO   O11 5476   4.813   7.003   6.967  0.1718  0.1788 -0.8581
   13CHTO    H5 5477   4.872   6.932   6.987 -0.5501 -0.3972 -0.7423
   13CHTO    O3 5478   4.441   7.331   7.110  0.2285  0.2422 -0.0242
   13CHTO    C6 5479   4.363   7.205   7.103 -0.3792  0.0593 -0.4401
   13CHTO   H19 5480   4.436   7.125   7.091 -1.1445 -0.7237  0.0369
   13CHTO    C8 5481   4.271   7.171   7.226 -0.0334 -0.5510 -0.2775
   13CHTO   H21 5482   4.204   7.255   7.245 -2.3819 -1.6827 -3.2265
   13CHTO    O7 5483   4.355   7.152   7.342 -0.2349  0.6113  0.0728
   13CHTO    H2 5484   4.304   7.142   7.419 -1.0243 -3.3765 -0.8706
   13CHTO   C12 5485   4.183   7.046   7.195 -0.4367  0.3346  0.2470
   13CHTO   H25 5486   4.251   6.958   7.189 -2.2132 -0.9182 -2.3123
   13CHTO    N3 5487   4.090   7.002   7.303  0.6434  0.0531 -0.6928
   13CHTO   H12 5488   4.157   6.975   7.384  0.9714  2.4968 -0.1271
   13CHTO   H13 5489   4.028   7.083   7.336  0.4237 -0.3802 -0.0222
   13CHTO   C15 5490   4.115   7.065   7.059  0.7340  0.3788  0.4814
   13CHTO   H28 5491   4.045   7.149   7.054  0.4706  0.0709 -1.4057
   13CHTO   O10 5492   4.046   6.936   7.001  0.4684 -0.3398 -0.2633
   13CHTO    H4 5493   3.954   6.940   6.984  0.4502 -0.3406 -0.1716
   13CHTO    O5 5494   4.204   7.088   6.953 -0.0664  0.2106  0.0631
   13CHTO   C10 5495   4.280   7.210   6.978  0.0165 -0.0572  0.1335
   13CHTO   H23 5496   4.211   7.294   6.983  1.1695  0.8526  1.1021
   13CHTO   C17 5497   4.371   7.233   6.854 -0.3342  0.9821 -0.2510
   13CHTO   O12 5498   4.298   7.282   6.748 -0.0018  0.6981 -0.2930
   13CHTO    H6 5499   4.272   7.212   6.690 -2.6483  2.0914 -0.8972
   14CHTO  H203 5500   5.099   6.069   5.754  1.2520 -0.4750  2.3007
   14CHTO   O82 5501   5.152   6.142   5.730 -0.7433  0.2935 -0.1042
   14CHTO  C123 5502   5.272   6.091   5.672 -0.6878  0.2463  0.4835
   14CHTO  H227 5503   5.330   6.177   5.636 -1.1385 -0.2116 -1.3958
   14CHTO   O77 5504   5.332   6.017   5.783  0.3293 -0.7180  0.5337
   14CHTO  C118 5505   5.453   5.951   5.754 -0.1750  0.7857  0.0282
   14CHTO  H222 5506   5.536   6.014   5.719 -0.6133  0.9644 -0.7029
   14CHTO  C125 5507   5.491   5.891   5.891  0.3027 -0.3747  0.5476
   14CHTO   O84 5508   5.618   5.944   5.945  0.3613 -0.7103 -0.2762
   14CHTO  H205 5509   5.635   5.903   6.027  0.3140 -0.0507  0.0612
   14CHTO  C114 5510   5.431   5.847   5.640 -0.1391 -0.2619 -0.0735
   14CHTO  H218 5511   5.346   5.785   5.669  0.8385 -1.3379  0.5626
   14CHTO  C116 5512   5.380   5.913   5.511  0.1290  0.4282 -0.2375
   14CHTO  H220 5513   5.458   5.985   5.476  1.0291 -0.5165 -0.1954
   14CHTO   O79 5514   5.360   5.812   5.408 -0.3909 -0.3017  0.2115
   14CHTO  H201 5515   5.438   5.785   5.362 -0.4184  0.2400 -0.1618
   14CHTO  C120 5516   5.250   5.992   5.545  0.4299  0.6663  0.3608
   14CHTO  H224 5517   5.176   5.914   5.575  0.8531  0.2464  0.3117
   14CHTO   N21 5518   5.207   6.078   5.425 -0.2810 -0.0871  0.2655
   14CHTO  H211 5519   5.165   6.171   5.462  0.5852  0.1768  0.6078
   14CHTO  H212 5520   5.294   6.100   5.364  0.1467  0.1081  0.9354
   14CHTO   O75 5521   5.552   5.773   5.618  0.0094 -0.2791  0.2708
   14CHTO  C112 5522   5.531   5.603   5.610  0.0354  0.3736  0.4402
   14CHTO  H216 5523   5.624   5.564   5.565 -1.4138 -1.6442 -0.8973
   14CHTO   O73 5524   5.412   5.572   5.527  0.4292  0.3759  0.1036
   14CHTO  C113 5525   5.367   5.437   5.520  0.0529  0.0226  1.2677
   14CHTO  H217 5526   5.459   5.392   5.475 -0.7194 -0.7679  0.4552
   14CHTO  C124 5527   5.266   5.438   5.412 -0.4574  0.8637  0.3170
   14CHTO   O83 5528   5.309   5.491   5.288  0.3354  0.0869 -0.3561
   14CHTO  H204 5529   5.231   5.510   5.240  0.3899 -1.5648 -1.1271
   14CHTO  C109 5530   5.337   5.379   5.652 -0.9077 -0.9890 -0.9345
   14CHTO  H213 5531   5.258   5.442   5.696  1.3622  1.0185  0.3554
   14CHTO  C110 5532   5.465   5.388   5.741  0.4264 -0.3510  0.4083
   14CHTO  H214 5533   5.553   5.332   5.711  1.6415  0.8941  1.5904
   14CHTO   O78 5534   5.449   5.336   5.875  0.5056 -0.3843 -0.1539
   14CHTO  H200 5535   5.533   5.311   5.908  0.0991  0.3908  1.4906
   14CHTO  C111 5536   5.509   5.538   5.749 -0.0691 -0.0982  0.1165
   14CHTO  H215 5537   5.426   5.598   5.790  0.1060 -0.3333  0.8163
   14CHTO   N19 5538   5.632   5.572   5.829 -0.4133  0.1454  0.0056
   14CHTO  H207 5539   5.656   5.677   5.822 -1.1497  0.2646 -0.7880
   14CHTO  H208 5540   5.712   5.505   5.803  1.0638  1.5455  0.8350
   14CHTO   O74 5541   5.292   5.242   5.642 -0.3542 -0.5629  0.0243
   14CHTO  C115 5542   5.119   5.220   5.624  0.1360 -0.2448  0.5222
   14CHTO  H219 5543   5.076   5.319   5.606 -0.2635 -0.2290  1.5509
   14CHTO   O76 5544   5.083   5.127   5.494  0.5984 -0.0417 -0.3448
   14CHTO  C122 5545   4.949   5.104   5.467 -0.5935  1.1039 -0.2125
   14CHTO  H226 5546   4.947   5.033   5.385 -1.8552  1.6759 -0.6808
   14CHTO  C126 5547   4.879   5.233   5.405 -0.1247  0.7004  0.4274
   14CHTO   O85 5548   4.748   5.204   5.354  0.1234 -0.1845 -0.2229
   14CHTO  H206 5549   4.753   5.141   5.285  0.4428  0.8824 -1.1828
   14CHTO  C121 5550   4.880   5.048   5.597 -0.1777  0.6494 -0.0215
   14CHTO  H225 5551   4.773   5.032   5.573  0.1741 -2.2406  0.1336
   14CHTO   O81 5552   4.918   4.916   5.622 -0.1151 -0.7605 -0.4870
   14CHTO  H202 5553   4.864   4.872   5.685 -0.4203 -0.2338 -0.3790
   14CHTO  C119 5554   4.889   5.136   5.721  0.2906 -0.0491  0.4225
   14CHTO  H223 5555   4.856   5.235   5.689  1.4523 -0.0666 -0.8575
   14CHTO  C117 5556   5.048   5.155   5.749  0.6080 -0.3284 -0.1664
   14CHTO  H221 5557   5.110   5.069   5.773  0.1072 -0.9761 -1.1557
   14CHTO   N20 5558   5.072   5.251   5.860 -0.1310  0.9196 -0.3585
   14CHTO  H209 5559   5.028   5.346   5.833 -0.4909  0.8825  0.0706
   14CHTO  H210 5560   5.017   5.226   5.950  1.8815  2.0688  1.2522
   14CHTO   O80 5561   4.790   5.116   5.836 -0.3260  0.4540  0.1719
   14CHTO  C103 5562   4.654   5.208   5.846 -0.1697  0.0309 -0.2933
   14CHTO  H190 5563   4.691   5.310   5.838 -1.6763  0.5419 -1.0150
   14CHTO  C101 5564   4.532   5.179   5.751  0.2255 -0.0590  0.3938
   14CHTO  H188 5565   4.526   5.071   5.752  0.2635 -0.0557  0.9438
   14CHTO   O68 5566   4.571   5.226   5.602  1.0901 -0.2365  0.7618
   14CHTO  H168 5567   4.525   5.176   5.538  0.3592  1.7383 -0.2830
   14CHTO   C99 5568   4.397   5.249   5.792  0.0361 -0.3879 -0.9431
   14CHTO  H186 5569   4.411   5.357   5.772 -2.2754 -0.2357 -1.9981
   14CHTO   N17 5570   4.279   5.208   5.712 -0.0629  0.5715  0.5895
   14CHTO  H174 5571   4.197   5.177   5.775 -0.1621 -0.5764 -0.0819
   14CHTO  H175 5572   4.243   5.296   5.660 -0.9690  0.8715  1.7221
   14CHTO   C97 5573   4.370   5.247   5.945  0.1863  0.8030  0.6414
   14CHTO  H184 5574   4.333   5.149   5.980 -1.7581  1.2032 -0.2584
   14CHTO   O64 5575   4.492   5.280   6.012  0.3881  0.3390 -0.4612
   14CHTO  C104 5576   4.608   5.191   5.988 -0.0489 -0.6843 -0.2951
   14CHTO  H191 5577   4.592   5.085   6.005  1.2095 -0.7162  0.7809
   14CHTO  C108 5578   4.712   5.240   6.086  0.3986  0.3677 -0.7043
   14CHTO   O71 5579   4.676   5.233   6.226  0.0899  0.0759 -0.2979
   14CHTO  H171 5580   4.595   5.275   6.249 -0.2095 -0.7387  0.1340
   14CHTO   O62 5581   4.271   5.349   5.978  0.2646 -0.7438  0.0991
   14CHTO   C91 5582   4.224   5.357   6.118  0.3672  0.3433 -0.0649
   14CHTO  H178 5583   4.237   5.261   6.170  3.0253  1.4095  1.3358
   14CHTO   C92 5584   4.072   5.393   6.124  0.5225 -0.3556 -0.1112
   14CHTO  H179 5585   4.019   5.315   6.068  0.2780 -0.7007  0.5908
   14CHTO   O66 5586   4.030   5.380   6.264  0.3160 -0.7332 -0.3799
   14CHTO  H166 5587   3.944   5.416   6.275  1.8827  2.7703  1.5435
   14CHTO   C93 5588   4.035   5.534   6.074  0.4773  0.0555  0.6252
   14CHTO  H180 5589   3.953   5.575   6.135  0.1068  0.7583 -0.3259
   14CHTO   N16 5590   3.998   5.531   5.931 -0.9614 -0.4354 -0.2006
   14CHTO  H172 5591   3.908   5.581   5.898 -1.7932 -1.2067  0.8487
   14CHTO  H173 5592   4.084   5.553   5.869 -0.2265 -1.6511  0.3739
   14CHTO   C94 5593   4.161   5.633   6.105 -0.7812 -0.2879 -0.4693
   14CHTO  H181 5594   4.231   5.634   6.022 -2.1284 -2.1289 -1.6517
   14CHTO   O61 5595   4.231   5.592   6.226 -0.0002  0.1113  0.6363
   14CHTO   C95 5596   4.305   5.470   6.209  0.6806 -0.5975  0.4229
   14CHTO  H182 5597   4.395   5.496   6.154  2.6777  1.3169  4.4056
   14CHTO  C106 5598   4.342   5.409   6.349  0.2239 -0.1926 -0.6003
   14CHTO   O69 5599   4.410   5.508   6.428 -0.0058 -0.2560  0.2531
   14CHTO  H169 5600   4.503   5.495   6.428  0.0622  0.2365  0.9155
   14CHTO   O63 5601   4.106   5.792   6.139  0.5179  0.6198 -0.5295
   14CHTO   C96 5602   4.148   5.907   6.054 -0.5108  0.6145  0.1979
   14CHTO  H183 5603   4.093   5.996   6.085 -0.8828  0.8039 -0.9874
   14CHTO   C98 5604   4.126   5.872   5.905  0.3194  0.2276  0.2259
   14CHTO  H185 5605   4.172   5.778   5.871  0.4392  0.9002 -1.5848
   14CHTO   O67 5606   3.986   5.854   5.889 -0.2356 -0.3018  0.1941
   14CHTO  H167 5607   3.950   5.894   5.812  0.6826 -0.1172 -0.1508
   14CHTO  C102 5608   4.176   5.993   5.808  0.2269  0.0901 -0.8062
   14CHTO  H189 5609   4.112   6.080   5.827  0.3671  0.0965 -0.3612
   14CHTO   N18 5610   4.157   5.967   5.661 -0.8442 -0.5178 -0.2727
   14CHTO  H176 5611   4.218   6.033   5.602  0.5439 -0.7284  0.8994
   14CHTO  H177 5612   4.055   5.959   5.627  0.0100  0.6243 -3.2917
   14CHTO  C105 5613   4.323   6.021   5.842 -0.3631 -0.0506 -0.5013
   14CHTO  H192 5614   4.385   5.935   5.816  0.7337  0.8722 -0.9956
   14CHTO   O65 5615   4.346   6.030   5.988  0.0578  0.2680  0.9963
   14CHTO  C100 5616   4.290   5.944   6.089 -0.3913  1.2015  0.8323
   14CHTO  H187 5617   4.357   5.857   6.083  2.5328  3.4514 -0.5253
   14CHTO  C107 5618   4.303   6.005   6.228  0.1874  0.3467  0.1865
   14CHTO   O70 5619   4.342   5.919   6.328 -0.3536  0.0542  0.3827
   14CHTO  H170 5620   4.397   5.969   6.384  0.7182 -0.2844 -0.3492
   14CHTO   O57 5621   4.369   6.167   5.766 -0.4576 -0.1053  0.0896
   14CHTO   C85 5622   4.485   6.170   5.679 -1.1009 -0.5458 -0.0656
   14CHTO  H157 5623   4.509   6.065   5.650  0.4817 -0.2315  0.0988
   14CHTO   C83 5624   4.614   6.235   5.749  0.3993  0.0877 -0.4849
   14CHTO  H155 5625   4.651   6.176   5.833  1.4647  0.9816 -0.3122
   14CHTO   O56 5626   4.569   6.363   5.795  0.0395 -0.2737  0.3279
   14CHTO  H135 5627   4.624   6.401   5.861  0.5970  1.0838 -0.8890
   14CHTO   C81 5628   4.736   6.246   5.652  0.8956 -0.0134  0.7678
   14CHTO  H153 5629   4.767   6.149   5.613 -1.5667  0.7951 -3.5605
   14CHTO   N14 5630   4.864   6.304   5.711 -0.3031  0.2256  0.3061
   14CHTO  H141 5631   4.889   6.388   5.650  0.2759 -1.8028 -2.3997
   14CHTO  H142 5632   4.851   6.328   5.814  0.6135 -2.8878  1.2181
   14CHTO   C79 5633   4.700   6.332   5.524 -0.0581  0.0277 -0.0283
   14CHTO  H151 5634   4.782   6.324   5.453  0.8228  0.7341  0.8858
   14CHTO   O52 5635   4.585   6.268   5.465 -0.1265 -0.1338  0.3744
   14CHTO   C86 5636   4.463   6.258   5.551 -0.5640 -0.2192 -0.0246
   14CHTO  H158 5637   4.446   6.363   5.584  1.2838 -0.7374  2.7061
   14CHTO   C90 5638   4.343   6.211   5.463 -0.0502  0.4010 -0.1438
   14CHTO   O60 5639   4.305   6.325   5.376 -0.5468 -0.1812 -0.3175
   14CHTO  H138 5640   4.213   6.327   5.364 -0.5329 -0.3067 -0.4326
   14CHTO   O50 5641   4.670   6.466   5.555 -0.5709  0.9141 -0.0452
   14CHTO   C73 5642   4.666   6.597   5.491 -0.0350 -0.0569  0.7665
   14CHTO  H145 5643   4.634   6.680   5.556  2.4115  0.6845  1.0821
   14CHTO   C74 5644   4.562   6.590   5.375 -0.0989 -0.1705  1.0074
   14CHTO  H146 5645   4.467   6.557   5.421 -0.9917  1.1768  0.1536
   14CHTO   O54 5646   4.539   6.726   5.344  0.3364 -0.3734 -0.0808
   14CHTO  H133 5647   4.523   6.779   5.419  1.8661  0.7624 -0.5317
   14CHTO   C75 5648   4.608   6.504   5.252 -0.4704  0.4143  0.0056
   14CHTO  H147 5649   4.639   6.405   5.288  1.4018  1.1780  0.5783
   14CHTO   N13 5650   4.499   6.497   5.153 -0.2082 -0.1336  0.2701
   14CHTO  H139 5651   4.424   6.433   5.197 -0.9761 -0.1148 -0.9921
   14CHTO  H140 5652   4.539   6.448   5.064  2.0113  1.2545  0.4695
   14CHTO   C76 5653   4.746   6.570   5.191  0.5151 -0.8026  0.3222
   14CHTO  H148 5654   4.734   6.676   5.169  3.3623 -0.4438  0.3162
   14CHTO   O49 5655   4.831   6.556   5.314  0.1852 -0.2480 -0.2166
   14CHTO   C77 5656   4.801   6.640   5.428  0.6185 -0.5102 -0.5641
   14CHTO  H149 5657   4.805   6.746   5.405  2.4747 -0.7672 -1.5494
   14CHTO   C88 5658   4.917   6.624   5.521 -0.6652 -0.1465  0.5906
   14CHTO   O58 5659   5.023   6.698   5.486 -0.5029 -0.0908  0.2008
   14CHTO  H136 5660   5.046   6.765   5.547  0.3517 -0.0091 -0.1941
   14CHTO   O51 5661   4.812   6.468   5.085  0.1615 -0.2418 -0.1996
   14CHTO   C78 5662   4.863   6.519   5.003 -0.8141  0.9838  0.2924
   14CHTO  H150 5663   4.916   6.608   5.041 -0.5933 -0.2092  2.8577
   14CHTO   C80 5664   4.767   6.554   4.887 -0.2867  0.5393  0.1824
   14CHTO  H152 5665   4.693   6.473   4.871 -0.1352  0.4395 -0.0155
   14CHTO   O55 5666   4.690   6.670   4.923 -0.0002 -0.2843 -0.3357
   14CHTO  H134 5667   4.668   6.671   5.014 -2.0127  0.0752 -0.7855
   14CHTO   C84 5668   4.834   6.581   4.741  0.1563  1.1009  0.0021
   14CHTO  H156 5669   4.883   6.678   4.743  3.4097 -0.4526 -0.2948
   14CHTO   N15 5670   4.735   6.592   4.630  0.9209  0.0279  0.3212
   14CHTO  H143 5671   4.703   6.506   4.575 -0.8799  0.8118  0.1002
   14CHTO  H144 5672   4.649   6.642   4.670  1.4127  0.5523  0.7084
   14CHTO   C87 5673   4.944   6.481   4.710 -0.1009  0.3247 -0.2727
   14CHTO  H159 5674   4.902   6.384   4.683  1.5431 -0.6782  0.6589
   14CHTO   O53 5675   5.037   6.470   4.831  0.0552 -0.2624  0.1948
   14CHTO   C82 5676   4.967   6.419   4.949 -0.0541  0.1207 -0.2818
   14CHTO  H154 5677   4.928   6.321   4.924 -0.6982  0.6722 -1.5021
   14CHTO   C89 5678   5.083   6.392   5.050 -0.3895  0.6189 -0.0895
   14CHTO   O59 5679   5.046   6.299   5.154  0.6058 -0.5310  0.0292
   14CHTO  H137 5680   5.072   6.322   5.241 -0.5130 -1.4425  0.6121
   14CHTO   O45 5681   5.032   6.528   4.599  0.1441  0.2150  0.2368
   14CHTO   C67 5682   5.093   6.431   4.504  0.3333 -0.6009  0.1539
   14CHTO  H124 5683   5.112   6.331   4.543 -0.2582 -1.1986 -1.0458
   14CHTO   C65 5684   5.011   6.419   4.369  0.2164 -0.5838  0.0483
   14CHTO  H122 5685   4.917   6.459   4.408  0.3165  0.1710 -0.4788
   14CHTO   O44 5686   5.001   6.272   4.341 -0.0972 -0.3101 -0.0338
   14CHTO  H102 5687   4.957   6.252   4.261 -0.4793 -2.1836  0.6094
   14CHTO   C63 5688   5.065   6.514   4.255 -0.3915 -0.9752 -0.1403
   14CHTO  H120 5689   5.068   6.617   4.293 -3.7450 -1.9217  3.0615
   14CHTO   N11 5690   4.964   6.531   4.150 -0.2837  0.1264  0.3839
   14CHTO  H108 5691   4.976   6.459   4.072  2.1930 -0.9270  1.6753
   14CHTO  H109 5692   4.869   6.532   4.200 -2.7657 -0.1413 -4.0884
   14CHTO   C61 5693   5.217   6.472   4.222 -0.2765 -0.4552 -0.0088
   14CHTO  H118 5694   5.260   6.561   4.173 -3.1705  0.3401 -1.2300
   14CHTO   O40 5695   5.296   6.453   4.339  0.4765  0.4018  0.0355
   14CHTO   C68 5696   5.240   6.496   4.470  0.1585 -0.5088  0.9059
   14CHTO  H125 5697   5.235   6.606   4.461  2.9904 -0.4036  0.2361
   14CHTO   C72 5698   5.333   6.466   4.589  0.5144  0.0962 -0.7020
   14CHTO   O48 5699   5.287   6.498   4.717 -0.4129  0.4047  0.0834
   14CHTO  H105 5700   5.312   6.423   4.766  0.7339  0.7828  0.0961
   14CHTO   O38 5701   5.233   6.345   4.151  0.2597 -0.2362  0.2165
   14CHTO   C55 5702   5.247   6.351   4.007  1.0571 -0.7452 -0.7168
   14CHTO  H112 5703   5.214   6.450   3.973 -1.5948 -1.3258  0.0603
   14CHTO   C56 5704   5.163   6.240   3.930  0.3253  0.5895  0.5593
   14CHTO  H113 5705   5.169   6.152   3.996 -0.3141 -2.5603 -3.4028
   14CHTO   O42 5706   5.027   6.279   3.936  0.8474  0.2587  0.2017
   14CHTO  H100 5707   4.975   6.201   3.947 -0.1891  1.1472  1.8667
   14CHTO   C57 5708   5.201   6.209   3.779 -0.2013 -0.1544  0.3819
   14CHTO  H114 5709   5.159   6.275   3.704 -0.2019 -0.1761  0.3628
   14CHTO   N10 5710   5.146   6.076   3.738 -0.2523  0.0201  0.4451
   14CHTO  H106 5711   5.105   6.082   3.638  2.2419  1.1181 -0.5602
   14CHTO  H107 5712   5.226   6.003   3.733  0.4479  0.6910  1.5267
   14CHTO   C58 5713   5.360   6.210   3.767 -0.4237  0.3054 -0.1388
   14CHTO  H115 5714   5.404   6.121   3.817  0.7702  0.8206 -0.2505
   14CHTO   O37 5715   5.413   6.331   3.827  0.1244 -0.5864 -0.1071
   14CHTO   C59 5716   5.391   6.341   3.967  0.0936 -0.1762  0.0050
   14CHTO  H116 5717   5.435   6.260   4.025 -0.0331 -1.0513 -1.1026
   14CHTO   C70 5718   5.461   6.468   4.014  0.4004  0.0347  0.3545
   14CHTO   O46 5719   5.601   6.441   3.992  0.1091  0.0142 -0.4318
   14CHTO  H103 5720   5.625   6.372   4.052  0.4389  1.1299  0.7324
   14CHTO   O39 5721   5.390   6.197   3.599 -0.8875 -0.3106 -0.0836
   14CHTO   C60 5722   5.527   6.174   3.561 -0.0225  0.2758  0.3954
   14CHTO  H117 5723   5.524   6.140   3.458 -0.2750 -1.4622  0.9623
   14CHTO   C62 5724   5.618   6.303   3.563 -0.6823  0.1350  0.4991
   14CHTO  H119 5725   5.552   6.368   3.502  0.9173 -1.2478 -2.8294
   14CHTO   O43 5726   5.649   6.352   3.691 -0.8689 -0.4442 -0.8201
   14CHTO  H101 5727   5.740   6.364   3.708 -1.5344  1.3235  1.7690
   14CHTO   C66 5728   5.746   6.273   3.469  0.6480 -0.0733  0.0070
   14CHTO  H123 5729   5.712   6.234   3.373 -3.5253 -0.7405  1.6614
   14CHTO   N12 5730   5.807   6.406   3.435  0.4682 -0.2350 -0.4674
   14CHTO  H110 5731   5.733   6.478   3.404 -0.0247 -1.2903 -1.7790
   14CHTO  H111 5732   5.870   6.444   3.514 -0.7725  0.1964  0.3232
   14CHTO   C69 5733   5.840   6.166   3.531  0.3014  0.6117  0.9865
   14CHTO  H126 5734   5.893   6.211   3.618  0.3227  0.5606  1.0001
   14CHTO   O41 5735   5.770   6.050   3.569 -0.2953 -0.7611  0.8002
   14CHTO   C64 5736   5.606   6.060   3.634  0.2726 -0.2921  0.1641
   14CHTO  H121 5737   5.614   6.074   3.743  0.8895 -1.2552  0.2529
   14CHTO   C71 5738   5.539   5.921   3.622  0.2110  0.2575 -0.0694
   14CHTO   O47 5739   5.426   5.888   3.710  0.1012 -0.4146  0.5036
   14CHTO  H104 5740   5.366   5.829   3.669 -2.2515  2.1004  0.1806
   14CHTO   O34 5741   5.949   6.139   3.431 -0.0904  0.3881 -0.1649
   14CHTO   C49 5742   6.036   6.028   3.394 -0.8904 -0.2534 -0.3989
   14CHTO   H91 5743   6.111   6.009   3.470  0.3828 -1.6450 -1.9806
   14CHTO   C47 5744   6.107   6.074   3.267  0.8417  0.0393 -0.5714
   14CHTO   H89 5745   6.173   5.986   3.247 -0.3211 -0.3366 -2.9738
   14CHTO   O33 5746   6.189   6.193   3.289 -0.1014 -0.0044  0.5010
   14CHTO   H70 5747   6.250   6.203   3.219 -1.0342  2.4983  0.0215
   14CHTO   C45 5748   6.000   6.104   3.150  0.8589 -0.1136  0.7876
   14CHTO   H87 5749   5.972   6.210   3.157  0.7997  0.0567 -1.5243
   14CHTO    N8 5750   6.059   6.085   3.015  0.1759  0.5905  0.2948
   14CHTO   H75 5751   6.097   5.985   2.999 -0.2460  0.5071 -0.1966
   14CHTO   H76 5752   5.993   6.110   2.933 -2.2065  0.5626  2.1419
   14CHTO   C43 5753   5.857   6.022   3.173  0.1852 -0.3397  0.2098
   14CHTO   H85 5754   5.804   6.090   3.240 -2.7466 -0.2904 -2.0796
   14CHTO   O29 5755   5.878   5.892   3.232  0.0115 -0.0637 -0.0938
   14CHTO   C50 5756   5.954   5.896   3.358 -0.2248  0.1174 -0.4679
   14CHTO   H92 5757   5.872   5.882   3.429 -1.3080  1.6470 -1.3743
   14CHTO   C54 5758   6.036   5.763   3.377 -0.3211  0.3287  1.0147
   14CHTO   O36 5759   6.106   5.766   3.503 -0.3630  0.4311 -0.2532
   14CHTO   H72 5760   6.189   5.798   3.473 -0.7679  0.1665 -1.6672
   14CHTO   O27 5761   5.767   6.023   3.055 -0.1505  0.3656  0.7138
   14CHTO   C37 5762   5.626   6.051   3.051  0.6707 -0.3516 -0.3490
   14CHTO   H79 5763   5.587   6.003   2.960  0.8351 -0.0113 -0.6013
   14CHTO   C38 5764   5.538   5.987   3.161  0.0052  0.6674  0.7874
   14CHTO   H80 5765   5.577   6.027   3.256  2.3398 -0.2242  0.2438
   14CHTO   O31 5766   5.561   5.847   3.155 -0.1949  0.2534 -0.8762
   14CHTO   H68 5767   5.541   5.809   3.239 -1.0417  2.3780 -0.0842
   14CHTO   C39 5768   5.388   6.027   3.157  0.1259 -0.0564 -0.0647
   14CHTO   H81 5769   5.351   5.985   3.063  0.3931  1.9179 -1.0996
   14CHTO    N7 5770   5.300   5.976   3.259  0.1685  0.0306 -0.2833
   14CHTO   H73 5771   5.299   5.868   3.259 -0.9439  0.0356  0.2175
   14CHTO   H74 5772   5.341   5.996   3.357 -2.0347 -0.6127  0.8216
   14CHTO   C40 5773   5.385   6.185   3.155  0.3913  0.6135 -0.5973
   14CHTO   H82 5774   5.429   6.223   3.247 -1.8996  1.8676  0.0320
   14CHTO   O26 5775   5.456   6.230   3.041  0.0133  0.3775 -0.1473
   14CHTO   C41 5776   5.599   6.204   3.044 -0.3752 -0.2390  0.4910
   14CHTO   H83 5777   5.638   6.248   3.136  1.0714 -2.4166  0.9602
   14CHTO   C52 5778   5.666   6.277   2.928 -0.6548 -0.3485 -0.0530
   14CHTO   O35 5779   5.652   6.418   2.930 -0.2596 -0.1500  0.0600
   14CHTO   H71 5780   5.566   6.450   2.950  1.1214  2.0081  2.8900
   14CHTO   O28 5781   5.251   6.232   3.138 -0.7635 -0.0449 -0.2011
   14CHTO   C42 5782   5.226   6.366   3.192 -0.8815 -0.0641  0.1507
   14CHTO   H84 5783   5.126   6.391   3.157 -1.4060  0.1223  1.7517
   14CHTO   C44 5784   5.319   6.483   3.139 -0.3643  0.0420  0.2426
   14CHTO   H86 5785   5.422   6.448   3.138 -0.2924  0.2245  0.9784
   14CHTO   O32 5786   5.301   6.500   2.994  0.0814  0.0272 -0.0779
   14CHTO   H69 5787   5.349   6.574   2.962 -1.8537  0.9767 -0.8614
   14CHTO   C48 5788   5.299   6.612   3.222 -0.3572  0.5196  0.0038
   14CHTO   H90 5789   5.201   6.654   3.197 -0.6001  1.3589  2.2997
   14CHTO    N9 5790   5.399   6.723   3.193 -0.2655  0.1185  0.0506
   14CHTO   H77 5791   5.489   6.707   3.135  2.2594  0.1346  3.7843
   14CHTO   H78 5792   5.370   6.825   3.214  2.8061  0.8864  0.8289
   14CHTO   C51 5793   5.297   6.583   3.375 -0.3801 -0.5471 -0.6178
   14CHTO   H93 5794   5.392   6.557   3.421 -0.0518  4.1762  1.7051
   14CHTO   O30 5795   5.195   6.485   3.401  0.5309 -0.0298  0.5940
   14CHTO   C46 5796   5.210   6.365   3.348  0.0832  0.5378 -0.4913
   14CHTO   H88 5797   5.303   6.331   3.395 -1.3001 -0.3958  1.6514
   14CHTO   C53 5798   5.098   6.272   3.395  0.2652  0.1328  0.1582
   14CHTO   O72 5799   4.968   6.321   3.351  0.0248 -0.2687 -0.5642
   14CHTO  H199 5800   4.959   6.410   3.379  0.7018  0.5908 -2.9674
   14CHTO   O22 5801   5.250   6.693   3.455 -0.1220 -0.0915  0.3937
   14CHTO   C31 5802   5.310   6.725   3.591  0.3539  0.3476 -0.0445
   14CHTO   H59 5803   5.381   6.644   3.614  0.4421  0.6442  0.7388
   14CHTO   C29 5804   5.392   6.863   3.582 -0.3496 -0.2886 -0.1752
   14CHTO   H57 5805   5.324   6.934   3.533 -2.7242  0.0420  3.4427
   14CHTO   O21 5806   5.485   6.831   3.475 -0.1845 -0.0016  0.0662
   14CHTO   H37 5807   5.557   6.889   3.491 -0.3858  0.6177 -1.1789
   14CHTO   C27 5808   5.447   6.914   3.723 -0.0855 -0.0221 -0.4191
   14CHTO   H55 5809   5.523   6.843   3.757 -0.1840 -0.3796 -0.9398
   14CHTO    N5 5810   5.510   7.051   3.712 -0.3318  0.6265  0.4142
   14CHTO   H43 5811   5.436   7.126   3.736 -0.1964  0.7391  0.4840
   14CHTO   H44 5812   5.579   7.066   3.794  1.0565  3.0339 -1.1148
   14CHTO   C25 5813   5.328   6.901   3.835 -0.1249 -0.0952 -0.1542
   14CHTO   H53 5814   5.258   6.981   3.807  0.3726  0.1148 -0.7955
   14CHTO   O17 5815   5.274   6.765   3.829 -0.4650 -0.5399  0.2791
   14CHTO   C32 5816   5.211   6.733   3.702  0.2584  0.0154 -0.3004
   14CHTO   H60 5817   5.139   6.807   3.666  1.5230  0.7729 -1.2941
   14CHTO   C36 5818   5.137   6.597   3.715  1.2528 -0.1467 -0.6821
   14CHTO   O25 5819   5.000   6.613   3.764  0.1872  0.0632  0.4713
   14CHTO   H40 5820   4.951   6.544   3.724  1.1838 -0.6853  0.5248
   14CHTO   O15 5821   5.374   6.922   3.981  0.0917 -0.1991 -0.0761
   14CHTO   C19 5822   5.347   6.857   4.113  0.7173  0.4142  0.1140
   14CHTO   H47 5823   5.317   6.753   4.090  1.3678  0.4681 -1.0237
   14CHTO   C20 5824   5.469   6.865   4.209  0.3403 -0.1117 -0.7725
   14CHTO   H48 5825   5.504   6.967   4.225  1.4901 -0.3841 -1.5025
   14CHTO   O19 5826   5.583   6.801   4.153  1.3121  0.0259 -0.0245
   14CHTO   H35 5827   5.603   6.724   4.203 -0.2418  0.1889  0.8954
   14CHTO   C21 5828   5.430   6.817   4.356  0.4985  0.3059 -0.3146
   14CHTO   H49 5829   5.375   6.724   4.350  1.6187 -0.5859  2.4137
   14CHTO    N4 5830   5.533   6.810   4.455 -0.1397 -0.6862 -0.4388
   14CHTO   H41 5831   5.625   6.836   4.406 -0.6952 -0.3764 -1.3169
   14CHTO   H42 5832   5.540   6.708   4.492 -1.7175 -0.5659  0.2303
   14CHTO   C22 5833   5.302   6.898   4.396 -0.4170  0.6556 -1.0852
   14CHTO   H50 5834   5.327   7.004   4.403 -2.0581  1.0032 -0.1057
   14CHTO   O14 5835   5.198   6.871   4.304 -1.0427 -0.0699 -0.6630
   14CHTO   C23 5836   5.222   6.922   4.176 -0.4326 -0.4884  0.6013
   14CHTO   H51 5837   5.234   7.031   4.188 -1.2441 -0.3978  0.6557
   14CHTO   C34 5838   5.097   6.881   4.094  0.3388  0.1820  0.1427
   14CHTO   O23 5839   4.981   6.926   4.167  0.0554 -0.3380  0.2303
   14CHTO   H38 5840   4.904   6.878   4.144  0.1456 -0.1295 -0.5209
   14CHTO   O16 5841   5.254   6.850   4.524 -0.3865  0.2879  0.0421
   14CHTO   C24 5842   5.185   6.960   4.608  0.0339 -0.0249  0.2497
   14CHTO   H52 5843   5.172   7.053   4.553 -1.3015 -0.5224 -0.3048
   14CHTO   C26 5844   5.276   6.977   4.732  0.2375  0.5257  0.2156
   14CHTO   H54 5845   5.323   6.878   4.749  0.5988  0.3581 -1.7157
   14CHTO   O20 5846   5.399   7.040   4.700  0.6070  0.0648  0.6533
   14CHTO   H36 5847   5.416   7.038   4.608 -0.0762  0.2012  0.5247
   14CHTO   C30 5848   5.212   7.037   4.864  0.2249  0.0940 -0.1155
   14CHTO   H58 5849   5.189   7.144   4.849  4.0085  0.9266 -0.5083
   14CHTO    N6 5850   5.294   7.012   4.979  0.3790 -0.1161  0.1490
   14CHTO   H45 5851   5.337   6.913   4.990 -0.9097 -0.5428  1.5445
   14CHTO   H46 5852   5.376   7.082   4.987  0.4373 -0.0415 -1.0252
   14CHTO   C33 5853   5.065   6.979   4.886  0.7957  0.1371 -0.4838
   14CHTO   H61 5854   5.077   6.876   4.923 -1.4100  0.9235  2.5749
   14CHTO   O18 5855   4.992   6.994   4.758 -0.6303  0.3078 -0.0730
   14CHTO   C28 5856   5.049   6.907   4.655  0.2164  0.1938  0.2022
   14CHTO   H56 5857   5.065   6.804   4.686  0.5937 -0.1167 -1.0022
   14CHTO   C35 5858   4.947   6.908   4.544 -0.2932  0.1181 -0.7682
   14CHTO   O24 5859   4.958   6.798   4.454  0.0913  0.0548 -0.0496
   14CHTO   H39 5860   5.005   6.721   4.481  1.2914  0.2511 -1.5125
   14CHTO    O9 5861   4.999   7.044   4.999  0.2287 -0.0277  0.4649
   14CHTO   C13 5862   4.858   6.971   5.039 -0.8695  0.3040  0.5050
   14CHTO   H26 5863   4.863   6.861   5.026  0.7232  0.3639  0.5309
   14CHTO   C11 5864   4.740   7.039   4.958 -0.1160  0.4694 -0.3499
   14CHTO   H24 5865   4.738   6.992   4.859 -1.4654  2.4000 -1.2603
   14CHTO    O8 5866   4.757   7.180   4.939 -0.5288 -0.3532 -0.1575
   14CHTO    H3 5867   4.821   7.202   4.874 -1.3801 -0.4962 -1.0601
   14CHTO    C9 5868   4.602   7.012   5.029 -1.6833  0.2587  0.0848
   14CHTO   H22 5869   4.586   6.903   5.024 -2.7439  0.4781 -2.4800
   14CHTO    N2 5870   4.490   7.061   4.951  0.6311  0.5368  0.1746
   14CHTO   H10 5871   4.493   7.168   4.936  1.4490  0.8174  2.0982
   14CHTO   H11 5872   4.496   7.020   4.851  1.3526  3.2005 -0.9276
   14CHTO    C7 5873   4.605   7.050   5.180  0.2031 -0.2700 -0.5159
   14CHTO   H20 5874   4.589   6.953   5.232  2.9927  1.8536  4.6308
   14CHTO    O4 5875   4.733   7.087   5.221  0.1501  0.1998  0.6276
   14CHTO   C14 5876   4.833   6.992   5.191  0.0268  0.2651 -0.1135
   14CHTO   H27 5877   4.794   6.895   5.229  1.3394 -0.7491 -1.3009
   14CHTO   C18 5878   4.961   7.020   5.263 -0.0849  0.0114  0.2797
   14CHTO   O13 5879   4.946   7.016   5.405 -0.1427 -0.5391 -0.6646
   14CHTO    H7 5880   4.947   6.932   5.446 -0.9898 -0.5972 -0.7550
   14CHTO    O2 5881   4.504   7.185   5.242  0.1181  0.6348  0.2021
   14CHTO    C1 5882   4.473   7.157   5.383 -0.2748  0.8728 -0.7596
   14CHTO   H14 5883   4.534   7.073   5.422 -0.2727  1.6730  1.0101
   14CHTO    C2 5884   4.321   7.119   5.413  0.2226  0.1195 -0.2020
   14CHTO   H15 5885   4.258   7.207   5.392 -0.2589 -0.6841 -2.1622
   14CHTO    O6 5886   4.281   7.005   5.333  0.0048 -0.6588 -0.0592
   14CHTO    H1 5887   4.342   6.935   5.344 -1.3781 -2.2052 -1.8052
   14CHTO    C3 5888   4.302   7.089   5.569  0.5593 -0.4337 -0.4728
   14CHTO   H16 5889   4.350   6.993   5.592 -0.5977 -0.6511  1.1598
   14CHTO    N1 5890   4.152   7.075   5.605  0.3952 -0.2235 -0.3039
   14CHTO    H8 5891   4.109   7.170   5.576  0.4986  0.2914  1.1420
   14CHTO    H9 5892   4.155   7.067   5.713  3.3413 -3.7954 -0.5754
   14CHTO    C4 5893   4.375   7.205   5.651 -0.0691  0.0715 -0.2554
   14CHTO   H17 5894   4.309   7.292   5.645 -1.7429 -1.1353  0.2118
   14CHTO    O1 5895   4.510   7.229   5.606  0.0631  0.1254  0.0249
   14CHTO    C5 5896   4.518   7.277   5.473  0.6314  0.1497 -0.1548
   14CHTO   H18 5897   4.457   7.365   5.452  0.6204 -0.2050 -1.7377
   14CHTO   C16 5898   4.666   7.309   5.437 -0.3235  0.2239  0.1880
   14CHTO   O11 5899   4.711   7.434   5.490  0.1117  0.2468 -0.0065
   14CHTO    H5 5900   4.652   7.504   5.471 -1.0739 -0.0351  2.3529
   14CHTO    O3 5901   4.403   7.158   5.784  0.1127  0.3068  0.2649
   14CHTO    C6 5902   4.399   7.258   5.889 -0.3055 -0.5597 -0.1788
   14CHTO   H19 5903   4.406   7.361   5.855 -0.1911 -0.7213 -0.6564
   14CHTO    C8 5904   4.269   7.238   5.971  0.7301 -0.0355 -0.2343
   14CHTO   H21 5905   4.265   7.139   6.016  0.7724  0.9091  1.9342
   14CHTO    O7 5906   4.159   7.258   5.879  0.1646 -0.2370 -0.2017
   14CHTO    H2 5907   4.150   7.185   5.821  0.4054 -0.5848  0.1895
   14CHTO   C12 5908   4.270   7.347   6.090  0.0296 -0.3510 -0.2209
   14CHTO   H25 5909   4.256   7.440   6.031 -1.2931  0.3716  1.2038
   14CHTO    N3 5910   4.148   7.325   6.173  0.1999  0.0200 -0.5096
   14CHTO   H12 5911   4.165   7.260   6.258 -1.4114  0.2447  0.0107
   14CHTO   H13 5912   4.105   7.423   6.190 -0.2132 -0.0720 -1.0089
   14CHTO   C15 5913   4.402   7.349   6.173  0.3739  0.0990 -0.3350
   14CHTO   H28 5914   4.415   7.266   6.242  0.3673 -1.1399 -1.7987
   14CHTO   O10 5915   4.427   7.470   6.247 -0.4177  0.2285 -1.0946
   14CHTO    H4 5916   4.457   7.444   6.332  0.5137  0.6086 -1.3000
   14CHTO    O5 5917   4.510   7.352   6.085 -0.7002 -0.0163  0.1704
   14CHTO   C10 5918   4.518   7.240   5.997 -0.1885  0.4416  0.9124
   14CHTO   H23 5919   4.501   7.152   6.060  0.3619 -0.6874 -0.4708
   14CHTO   C17 5920   4.656   7.236   5.931  0.5896  0.2078  0.8395
   14CHTO   O12 5921   4.757   7.193   6.017 -0.0289  0.1811 -0.2479
   14CHTO    H6 5922   4.757   7.099   6.028  0.5260  0.1009 -0.8688
   15CHTO  H203 5923   5.474   5.825   4.752 -0.7785  0.6786 -0.2456
   15CHTO   O82 5924   5.458   5.797   4.664  0.1250  0.3763 -0.3271
   15CHTO  C123 5925   5.362   5.693   4.672  0.9402  0.4627  0.4572
   15CHTO  H227 5926   5.269   5.737   4.712  1.2114 -2.3689  4.4928
   15CHTO   O77 5927   5.339   5.639   4.540  0.5937  0.3551  0.0566
   15CHTO  C118 5928   5.249   5.523   4.533 -0.1671  0.0560  0.1352
   15CHTO  H222 5929   5.148   5.529   4.576  0.8446 -1.5405  2.8197
   15CHTO  C125 5930   5.237   5.480   4.378 -0.8594 -0.2094  0.1258
   15CHTO   O84 5931   5.179   5.581   4.295 -0.6768 -0.1272  0.5127
   15CHTO  H205 5932   5.249   5.596   4.234  0.4847  1.8813  2.2482
   15CHTO  C114 5933   5.320   5.412   4.612 -0.2390 -0.2298  0.1564
   15CHTO  H218 5934   5.422   5.400   4.574 -0.3352  1.5923 -0.7392
   15CHTO  C116 5935   5.332   5.457   4.754  0.0391  0.2214 -0.2950
   15CHTO  H220 5936   5.230   5.479   4.791  1.0351 -0.2247  2.8988
   15CHTO   O79 5937   5.386   5.350   4.844 -0.4160 -0.8459 -0.1542
   15CHTO  H201 5938   5.468   5.317   4.813 -1.8927 -3.9914 -0.8751
   15CHTO  C120 5939   5.418   5.585   4.772 -0.2423 -0.3451  0.1445
   15CHTO  H224 5940   5.520   5.553   4.742  0.1125 -1.2175  2.2037
   15CHTO   N21 5941   5.421   5.633   4.920  0.9212  0.3945 -0.0636
   15CHTO  H211 5942   5.322   5.668   4.944  0.6625  0.2680 -0.9441
   15CHTO  H212 5943   5.499   5.706   4.935  1.9500 -1.0558  1.8899
   15CHTO   O75 5944   5.250   5.284   4.589  0.7925 -0.6966 -0.2611
   15CHTO  C112 5945   5.354   5.141   4.583 -0.1209  0.0757  0.0532
   15CHTO  H216 5946   5.443   5.167   4.642  0.1306 -1.8565  0.5587
   15CHTO   O73 5947   5.388   5.112   4.450  0.4740 -0.2846  0.3814
   15CHTO  C113 5948   5.465   4.990   4.429 -0.0248  0.8856 -0.1570
   15CHTO  H217 5949   5.565   4.987   4.477 -0.0479  1.4867 -0.0784
   15CHTO  C124 5950   5.485   4.967   4.283 -0.1918 -0.3355 -0.5745
   15CHTO   O83 5951   5.571   5.067   4.235  0.5882 -0.1688  0.1600
   15CHTO  H204 5952   5.658   5.039   4.257 -0.1234 -1.3490  1.5770
   15CHTO  C109 5953   5.408   4.858   4.503  0.3091 -0.3835  0.0884
   15CHTO  H213 5954   5.319   4.828   4.446  2.5202 -4.3979 -1.4239
   15CHTO  C110 5955   5.366   4.889   4.644 -0.4152  0.0261  0.2428
   15CHTO  H214 5956   5.450   4.901   4.712  0.8398 -1.0506 -1.0799
   15CHTO   O78 5957   5.293   4.780   4.700 -0.6130 -0.3987  0.2048
   15CHTO  H200 5958   5.202   4.795   4.718 -0.7609 -0.7746 -0.2096
   15CHTO  C111 5959   5.279   5.018   4.652  0.7468  0.0116 -0.1874
   15CHTO  H215 5960   5.191   4.996   4.590  0.0048 -2.1597  1.5581
   15CHTO   N19 5961   5.223   5.057   4.787  0.4987 -0.1309 -0.6379
   15CHTO  H207 5962   5.116   5.070   4.789  0.0501 -3.4249 -0.3692
   15CHTO  H208 5963   5.262   4.988   4.862 -2.6898 -0.3677  0.8739
   15CHTO   O74 5964   5.507   4.749   4.499 -0.2888  0.3616  0.1673
   15CHTO  C115 5965   5.446   4.599   4.491 -0.9211 -0.2682 -0.7204
   15CHTO  H219 5966   5.357   4.585   4.553 -0.5274  0.9973  0.1310
   15CHTO   O76 5967   5.397   4.559   4.331 -0.7866 -0.4741  0.1221
   15CHTO  C122 5968   5.523   4.539   4.259  0.3781 -0.2126 -0.0122
   15CHTO  H226 5969   5.590   4.619   4.288 -0.0931 -0.6849  2.5356
   15CHTO  C126 5970   5.498   4.546   4.103  0.5430  0.0983  0.3553
   15CHTO   O85 5971   5.415   4.656   4.060  0.1388  0.2099  0.1841
   15CHTO  H206 5972   5.389   4.645   3.970 -0.8986 -0.1636  0.5149
   15CHTO  C121 5973   5.576   4.391   4.299  0.0621 -0.4886 -0.1720
   15CHTO  H225 5974   5.526   4.318   4.233  2.0851 -1.9309 -0.1658
   15CHTO   O81 5975   5.716   4.384   4.276  0.2943  0.0791  0.2301
   15CHTO  H202 5976   5.764   4.438   4.216  1.2600 -1.2022 -0.1792
   15CHTO  C119 5977   5.536   4.360   4.450  0.8053  0.6565 -0.3481
   15CHTO  H223 5978   5.433   4.326   4.455  1.3801 -1.2484 -0.9565
   15CHTO  C117 5979   5.558   4.493   4.538  0.4164 -0.9240  0.5418
   15CHTO  H221 5980   5.651   4.546   4.523 -0.1673 -0.4641 -1.5554
   15CHTO   N20 5981   5.543   4.473   4.690 -0.4149 -0.1807  0.1153
   15CHTO  H209 5982   5.576   4.566   4.734 -0.3335 -0.2742  0.2520
   15CHTO  H210 5983   5.439   4.449   4.708 -0.0035 -1.6412  0.6070
   15CHTO   O80 5984   5.611   4.239   4.497 -0.1814 -0.1840 -0.0233
   15CHTO  C103 5985   5.543   4.107   4.537 -0.0324 -0.2868 -0.0379
   15CHTO  H190 5986   5.620   4.053   4.592 -1.3737 -1.8187  0.3727
   15CHTO  C101 5987   5.419   4.101   4.624  0.3545  0.1293  0.0934
   15CHTO  H188 5988   5.346   4.174   4.590  0.0532 -0.5507 -0.7425
   15CHTO   O68 5989   5.455   4.133   4.772  0.1245 -0.0970  0.4313
   15CHTO  H168 5990   5.375   4.117   4.818 -0.5758 -0.5067 -0.8975
   15CHTO   C99 5991   5.354   3.947   4.624  0.4300  0.0934  0.2692
   15CHTO  H186 5992   5.431   3.877   4.661 -0.5082 -1.6274 -0.9914
   15CHTO   N17 5993   5.231   3.924   4.705  0.2521 -0.6409  0.1140
   15CHTO  H174 5994   5.263   3.925   4.808 -0.3950  0.6988  0.3117
   15CHTO  H175 5995   5.171   4.012   4.687  3.5008  1.8368  1.0480
   15CHTO   C97 5996   5.327   3.908   4.475 -0.0076 -0.8805  0.4499
   15CHTO  H184 5997   5.261   3.989   4.441  1.1207  0.2706  0.9914
   15CHTO   O64 5998   5.455   3.906   4.406  0.0392 -0.3858 -0.8154
   15CHTO  C104 5999   5.525   4.030   4.395  0.0511  0.0406 -0.6416
   15CHTO  H191 6000   5.473   4.097   4.326 -0.3429 -0.3718 -0.7469
   15CHTO  C108 6001   5.660   3.996   4.333 -0.4674  0.0007 -0.3897
   15CHTO   O71 6002   5.718   3.898   4.424  0.0244 -0.0558  0.5040
   15CHTO  H171 6003   5.807   3.879   4.399  0.1618  0.3262  0.7128
   15CHTO   O62 6004   5.257   3.782   4.456  0.3197  0.3338 -0.0252
   15CHTO   C91 6005   5.135   3.792   4.378 -0.2066  0.1432  0.0569
   15CHTO  H178 6006   5.098   3.893   4.393  0.8085  0.1848  2.4553
   15CHTO   C92 6007   5.035   3.697   4.450  0.2904  0.2154 -0.9786
   15CHTO  H179 6008   5.050   3.680   4.558 -0.2138  2.0421 -0.6187
   15CHTO   O66 6009   4.909   3.749   4.429  0.2629 -0.1437 -0.4450
   15CHTO  H166 6010   4.872   3.793   4.503 -1.8725 -1.6629 -0.5547
   15CHTO   C93 6011   5.036   3.554   4.381 -0.1841  0.4067 -0.1200
   15CHTO  H180 6012   4.958   3.491   4.425 -0.6572 -0.0076 -1.5306
   15CHTO   N16 6013   5.147   3.466   4.421  0.2135 -0.0729 -0.0734
   15CHTO  H172 6014   5.236   3.520   4.450  1.1631 -1.9708  0.6229
   15CHTO  H173 6015   5.169   3.387   4.352 -0.8981 -0.9562  0.5531
   15CHTO   C94 6016   5.014   3.560   4.221  0.0422 -0.2540 -0.6986
   15CHTO  H181 6017   5.072   3.482   4.172  0.2923  0.6672 -1.8861
   15CHTO   O61 6018   5.047   3.688   4.162 -0.5351 -0.1373 -0.4687
   15CHTO   C95 6019   5.153   3.758   4.222  0.2624 -0.3736  0.0708
   15CHTO  H182 6020   5.244   3.700   4.208 -0.9643 -2.2006 -0.4476
   15CHTO  C106 6021   5.174   3.888   4.155  0.2083 -0.4858  0.4316
   15CHTO   O69 6022   5.295   3.950   4.190  0.6081  0.2257  0.0487
   15CHTO  H169 6023   5.298   4.035   4.150 -0.6322 -0.3111 -1.2181
   15CHTO   O63 6024   4.863   3.529   4.201  0.2061 -0.4612 -0.1485
   15CHTO   C96 6025   4.817   3.486   4.067  0.1894  0.0151  0.9395
   15CHTO  H183 6026   4.910   3.466   4.013 -0.5558  1.4994 -0.9387
   15CHTO   C98 6027   4.753   3.593   3.980  0.0440 -0.9969 -0.4730
   15CHTO  H185 6028   4.662   3.633   4.026  0.1174  0.9320 -1.9119
   15CHTO   O67 6029   4.844   3.707   3.966 -0.0655  0.7346 -0.0831
   15CHTO  H167 6030   4.819   3.777   4.023 -3.5283 -0.2027 -0.2943
   15CHTO  C102 6031   4.713   3.533   3.836  0.4744  0.6502 -0.1457
   15CHTO  H189 6032   4.809   3.511   3.787  0.4098 -0.6534  0.2849
   15CHTO   N18 6033   4.638   3.628   3.749 -0.1826  0.3014 -0.0082
   15CHTO  H176 6034   4.615   3.588   3.652 -0.6655  0.9526 -0.1682
   15CHTO  H177 6035   4.680   3.727   3.742  1.0525 -0.2644 -0.6991
   15CHTO  C105 6036   4.631   3.396   3.850  0.5693 -0.0959  0.2718
   15CHTO  H192 6037   4.529   3.423   3.874  0.5373 -0.8160  0.9676
   15CHTO   O65 6038   4.684   3.308   3.948  0.2395 -0.4470 -0.2128
   15CHTO  C100 6039   4.717   3.366   4.075 -0.0449  0.0448  0.7969
   15CHTO  H187 6040   4.626   3.406   4.122  1.1650  1.1990  2.1902
   15CHTO  C107 6041   4.771   3.250   4.165 -0.7228 -0.0764  0.1230
   15CHTO   O70 6042   4.665   3.158   4.199 -0.2484 -0.3732 -0.8209
   15CHTO  H170 6043   4.699   3.092   4.256  0.8929  0.4168 -0.5715
   15CHTO   O57 6044   4.629   3.329   3.701  0.3988  0.2617 -0.2947
   15CHTO   C85 6045   4.550   3.205   3.680  0.0536  0.0397  0.6481
   15CHTO  H157 6046   4.498   3.178   3.774  0.5280  0.2339  0.9681
   15CHTO   C83 6047   4.652   3.092   3.653  0.6566 -0.3301  0.5473
   15CHTO  H155 6048   4.715   3.081   3.741  1.2597 -0.5458  0.0886
   15CHTO   O56 6049   4.735   3.128   3.543  0.0855  0.5646  0.1718
   15CHTO  H135 6050   4.682   3.134   3.465  0.5828  0.8735 -0.1466
   15CHTO   C81 6051   4.563   2.959   3.636  1.0586  0.3726  0.1303
   15CHTO  H153 6052   4.497   2.947   3.722 -0.9052 -1.3092 -1.5833
   15CHTO   N14 6053   4.644   2.835   3.636  0.6557  0.5218 -0.1339
   15CHTO  H141 6054   4.581   2.749   3.629  2.0509 -0.3507 -2.4665
   15CHTO  H142 6055   4.692   2.827   3.732 -2.2954 -1.8433  1.2215
   15CHTO   C79 6056   4.466   2.970   3.510  0.5406 -0.1362 -0.2488
   15CHTO  H151 6057   4.393   2.890   3.520 -1.4193  1.4150 -1.7332
   15CHTO   O52 6058   4.377   3.093   3.520  0.2510 -0.1490 -0.1765
   15CHTO   C86 6059   4.447   3.220   3.556  0.4275 -0.6392 -0.0495
   15CHTO  H158 6060   4.493   3.246   3.459 -2.4644  0.3421 -1.2269
   15CHTO   C90 6061   4.339   3.330   3.589  0.1467  0.2412 -0.2047
   15CHTO   O60 6062   4.323   3.417   3.473 -0.9513 -0.1503  0.0790
   15CHTO  H138 6063   4.402   3.431   3.424 -1.7157  2.1142 -0.5909
   15CHTO   O50 6064   4.533   2.964   3.382  0.6406 -0.4944  0.0003
   15CHTO   C73 6065   4.470   2.931   3.257 -0.4640 -0.4601 -0.2914
   15CHTO  H145 6066   4.374   2.983   3.244 -0.1194  0.4461  0.7180
   15CHTO   C74 6067   4.445   2.778   3.248 -0.2946  0.5316  0.2567
   15CHTO  H146 6068   4.381   2.731   3.324  2.0564 -2.4514  0.5186
   15CHTO   O54 6069   4.371   2.757   3.131  0.7343 -0.0657 -0.4069
   15CHTO  H133 6070   4.417   2.775   3.051  0.9444 -2.6050 -0.8801
   15CHTO   C75 6071   4.583   2.697   3.236  0.0201 -0.4530  0.2958
   15CHTO  H147 6072   4.634   2.704   3.333 -0.2066 -1.2330  0.4774
   15CHTO   N13 6073   4.577   2.547   3.218 -0.1292  0.7621  0.5793
   15CHTO  H139 6074   4.519   2.520   3.131 -0.2666 -0.0908  0.9274
   15CHTO  H140 6075   4.532   2.496   3.302  2.9008 -1.5737  0.8456
   15CHTO   C76 6076   4.693   2.759   3.138  0.2555 -0.1108 -0.1636
   15CHTO  H148 6077   4.666   2.736   3.035 -1.8889  0.4543  0.2594
   15CHTO   O49 6078   4.699   2.900   3.140  0.1950 -0.3477 -0.0572
   15CHTO   C77 6079   4.577   2.982   3.145 -0.5273  0.0090 -0.0993
   15CHTO  H149 6080   4.532   2.972   3.047 -2.4987 -1.8288  0.9440
   15CHTO   C88 6081   4.607   3.131   3.162  0.1488  0.1079 -0.2395
   15CHTO   O58 6082   4.717   3.178   3.071  0.6866  0.1090  0.2533
   15CHTO  H136 6083   4.680   3.240   3.011  2.6257  2.2671  1.1748
   15CHTO   O51 6084   4.848   2.700   3.168 -0.5552  0.0384 -0.2070
   15CHTO   C78 6085   4.957   2.733   3.050  0.1910  0.0355 -0.0085
   15CHTO  H150 6086   4.900   2.790   2.974 -0.8394 -0.5722  0.2947
   15CHTO   C80 6087   5.005   2.597   2.987  0.6578  0.1055 -0.5622
   15CHTO  H152 6088   5.061   2.541   3.063 -1.5429 -0.7997  0.4316
   15CHTO   O55 6089   4.890   2.524   2.943  0.1654 -0.1735  0.8040
   15CHTO  H134 6090   4.914   2.442   2.904 -0.0016  0.0821  0.1613
   15CHTO   C84 6091   5.104   2.642   2.871  0.3383  0.1776  1.1320
   15CHTO  H156 6092   5.048   2.716   2.812  0.2745 -0.5432  0.2734
   15CHTO   N15 6093   5.147   2.521   2.786  0.2488 -0.1744 -0.6401
   15CHTO  H143 6094   5.236   2.484   2.833 -0.8458 -2.5282 -0.3494
   15CHTO  H144 6095   5.174   2.558   2.690 -2.1702  1.7833 -0.6227
   15CHTO   C87 6096   5.226   2.724   2.925  0.6013  0.9523 -0.2224
   15CHTO  H159 6097   5.273   2.655   2.995  0.4946  2.3784  1.2659
   15CHTO   O53 6098   5.163   2.850   2.989  0.1302  0.4057  0.5041
   15CHTO   C82 6099   5.074   2.821   3.095  0.2765  0.2520  0.3294
   15CHTO  H154 6100   5.128   2.766   3.172 -0.8031 -0.8507  0.3214
   15CHTO   C89 6101   5.014   2.951   3.161 -0.0303 -0.0326  0.2774
   15CHTO   O59 6102   4.956   2.929   3.290  0.1317  0.0352  0.1402
   15CHTO  H137 6103   4.997   2.988   3.349  0.5215  0.2428 -0.3337
   15CHTO   O45 6104   5.332   2.766   2.806  0.3771  0.8785 -0.0039
   15CHTO   C67 6105   5.457   2.825   2.847  0.7042  0.5114  0.1843
   15CHTO  H124 6106   5.432   2.879   2.938  3.4779  0.1385  1.2094
   15CHTO   C65 6107   5.573   2.723   2.881  0.2246 -0.1799  0.3700
   15CHTO  H122 6108   5.540   2.631   2.831 -1.8802  0.7623 -0.0311
   15CHTO   O44 6109   5.562   2.700   3.020  0.3911 -0.6521  0.7067
   15CHTO  H102 6110   5.476   2.706   3.056 -0.0922  0.7152 -0.6326
   15CHTO   C63 6111   5.711   2.754   2.813 -0.0851  0.1500 -0.1729
   15CHTO  H120 6112   5.702   2.734   2.706 -2.1731  0.6697 -0.1167
   15CHTO   N11 6113   5.816   2.656   2.855 -0.3588 -0.1838 -0.0777
   15CHTO  H108 6114   5.801   2.551   2.865 -1.8932  0.0934  0.6221
   15CHTO  H109 6115   5.898   2.660   2.786  0.4239  0.5050  0.8735
   15CHTO   C61 6116   5.733   2.907   2.813  0.8535  0.6463  0.5710
   15CHTO  H118 6117   5.831   2.926   2.766  0.6340  1.6465  0.5068
   15CHTO   O40 6118   5.626   2.987   2.740 -0.9692 -0.5920 -0.0534
   15CHTO   C68 6119   5.494   2.938   2.740 -0.3319 -0.0332 -0.5770
   15CHTO  H125 6120   5.479   2.908   2.634 -0.7012 -0.5745 -0.3734
   15CHTO   C72 6121   5.408   3.065   2.754 -0.3911 -0.1745 -0.1068
   15CHTO   O48 6122   5.271   3.043   2.767 -0.6727  0.2429 -0.1504
   15CHTO  H105 6123   5.241   3.029   2.679 -0.6178 -0.3556 -0.0716
   15CHTO   O38 6124   5.741   2.953   2.946  0.8467  0.1257  0.5104
   15CHTO   C55 6125   5.735   3.094   2.983  0.0893 -0.0190  0.0493
   15CHTO  H112 6126   5.661   3.146   2.920  2.6539  1.9245 -1.4047
   15CHTO   C56 6127   5.877   3.167   2.980 -0.2586 -0.6763  0.0930
   15CHTO  H113 6128   5.949   3.100   3.030 -2.0402 -1.1564  2.0794
   15CHTO   O42 6129   5.921   3.177   2.841  0.3582 -0.7471 -0.0809
   15CHTO  H100 6130   5.858   3.165   2.773 -0.1922  1.9705 -0.1199
   15CHTO   C57 6131   5.880   3.309   3.046  0.4917 -0.3127 -0.1039
   15CHTO  H114 6132   5.850   3.382   2.970 -0.7566 -0.7269 -0.0169
   15CHTO   N10 6133   6.016   3.359   3.078  0.9712  0.5205 -0.0283
   15CHTO  H106 6134   5.996   3.447   3.137 -0.4145  0.7602 -0.8414
   15CHTO  H107 6135   6.077   3.389   2.994  1.8165  0.7852  0.6700
   15CHTO   C58 6136   5.788   3.306   3.172  0.1599 -0.6062 -0.0102
   15CHTO  H115 6137   5.837   3.247   3.252  2.7943  2.1494  0.4909
   15CHTO   O37 6138   5.660   3.246   3.149 -0.2064  0.7698 -0.8798
   15CHTO   C59 6139   5.675   3.103   3.125 -0.0090 -0.1994  0.1360
   15CHTO  H116 6140   5.750   3.060   3.192  0.8173  0.2837 -0.4714
   15CHTO   C70 6141   5.537   3.031   3.132 -0.8602  0.3142  0.3130
   15CHTO   O46 6142   5.500   3.031   3.268 -0.1339  0.0391  0.1240
   15CHTO  H103 6143   5.449   3.107   3.286 -0.2593 -0.2002  0.7741
   15CHTO   O39 6144   5.769   3.459   3.240 -0.4184 -0.4877 -0.3899
   15CHTO   C60 6145   5.755   3.461   3.383 -0.1027 -0.5251  0.4149
   15CHTO  H117 6146   5.698   3.373   3.412 -0.6704 -0.5200 -0.6451
   15CHTO   C62 6147   5.888   3.441   3.452 -0.8040 -0.1895 -0.4242
   15CHTO  H119 6148   5.921   3.338   3.427 -0.1877  0.4935 -2.4950
   15CHTO   O43 6149   5.986   3.534   3.409  0.5457 -0.5740 -0.1318
   15CHTO  H101 6150   5.963   3.560   3.322  0.3440 -1.5784 -0.3781
   15CHTO   C66 6151   5.860   3.442   3.611  0.3219  0.3053  0.0095
   15CHTO  H123 6152   5.797   3.356   3.635 -0.1283  0.9064  1.0294
   15CHTO   N12 6153   5.980   3.425   3.703  0.2574 -0.4858 -0.4336
   15CHTO  H110 6154   5.986   3.493   3.787  1.0937  1.9193 -2.3992
   15CHTO  H111 6155   6.077   3.418   3.655  0.8761  2.2449  0.3068
   15CHTO   C69 6156   5.782   3.576   3.653 -0.6332 -0.2876  0.5788
   15CHTO  H126 6157   5.832   3.675   3.649  1.8318 -1.5356 -0.4741
   15CHTO   O41 6158   5.656   3.581   3.577  0.1819  0.3223 -0.1573
   15CHTO   C64 6159   5.679   3.595   3.435 -0.0978 -0.1524 -0.2249
   15CHTO  H121 6160   5.742   3.685   3.421 -0.5068  0.1643 -0.0412
   15CHTO   C71 6161   5.554   3.628   3.352 -1.0080 -0.0520 -0.3578
   15CHTO   O47 6162   5.451   3.537   3.392  0.0477  0.0071  0.6145
   15CHTO  H104 6163   5.407   3.507   3.314 -0.2598  0.3575  0.6538
   15CHTO   O34 6164   5.725   3.559   3.790  0.4165  0.5485 -0.0114
   15CHTO   C49 6165   5.706   3.683   3.900  0.4721 -0.0714 -1.1683
   15CHTO   H91 6166   5.795   3.744   3.915  0.5763 -0.4033 -0.4042
   15CHTO   C47 6167   5.672   3.606   4.035  0.1212  0.3692  0.3541
   15CHTO   H89 6168   5.669   3.683   4.115 -1.1218 -0.5000  1.1707
   15CHTO   O33 6169   5.771   3.506   4.071 -0.5607  0.0556 -0.3187
   15CHTO   H70 6170   5.785   3.444   4.002 -2.7317 -1.3411  0.4653
   15CHTO   C45 6171   5.528   3.526   4.019  0.4158 -0.3324 -0.6240
   15CHTO   H87 6172   5.547   3.424   3.984 -0.3982 -0.8308  0.3283
   15CHTO    N8 6173   5.466   3.520   4.155 -0.0094 -0.5661  0.6853
   15CHTO   H75 6174   5.480   3.419   4.188  0.4374 -0.3147  1.2765
   15CHTO   H76 6175   5.362   3.546   4.142  0.1102 -0.6068 -0.4067
   15CHTO   C43 6176   5.444   3.588   3.901  0.7015  0.2650  0.4569
   15CHTO   H85 6177   5.492   3.546   3.813  3.4792 -0.8280  2.4318
   15CHTO   O29 6178   5.451   3.725   3.905  0.1703  0.0862 -0.7359
   15CHTO   C50 6179   5.584   3.778   3.878 -0.6166  0.3256  0.3541
   15CHTO   H92 6180   5.579   3.811   3.773  0.2206  0.2951  0.3071
   15CHTO   C54 6181   5.603   3.905   3.967 -0.2127  0.2728  0.8726
   15CHTO   O36 6182   5.719   3.997   3.961 -0.1695 -0.4330 -0.1888
   15CHTO   H72 6183   5.712   4.060   4.030 -1.2839  0.3957 -1.0268
   15CHTO   O27 6184   5.303   3.547   3.898 -0.1711  0.1934 -0.5581
   15CHTO   C37 6185   5.241   3.472   3.790  0.2305 -0.0024 -0.8137
   15CHTO   H79 6186   5.312   3.445   3.711  1.1290 -1.5563  0.5033
   15CHTO   C38 6187   5.184   3.344   3.851  1.7554  0.2390  0.5258
   15CHTO   H80 6188   5.114   3.375   3.930  0.4775  0.4015 -0.6387
   15CHTO   O31 6189   5.292   3.267   3.908 -0.2048  0.5735 -0.6164
   15CHTO   H68 6190   5.317   3.299   3.993  0.6985 -3.6784  0.8520
   15CHTO   C39 6191   5.108   3.259   3.747  0.0573  0.1277  0.6126
   15CHTO   H81 6192   5.184   3.221   3.679  0.0275 -2.4416  1.9488
   15CHTO    N7 6193   5.032   3.145   3.807  0.1165 -0.0014  0.2206
   15CHTO   H73 6194   5.081   3.052   3.782  1.2263  0.8792 -0.9254
   15CHTO   H74 6195   4.935   3.138   3.760 -0.3280  1.4475  0.8888
   15CHTO   C40 6196   5.013   3.350   3.655  0.1197  0.3958  0.3188
   15CHTO   H82 6197   4.920   3.368   3.708  0.1934  1.3414  0.1286
   15CHTO   O26 6198   5.072   3.476   3.616  0.6502  0.4227  0.3445
   15CHTO   C41 6199   5.126   3.556   3.734  0.8442 -0.3140 -0.0257
   15CHTO   H83 6200   5.046   3.576   3.807 -0.1256 -1.2431 -0.8090
   15CHTO   C52 6201   5.169   3.689   3.668  0.4607  0.2937  0.7455
   15CHTO   O35 6202   5.160   3.807   3.765 -0.0121 -0.0696 -0.4701
   15CHTO   H71 6203   5.115   3.882   3.732  2.1158  0.7228 -1.7291
   15CHTO   O28 6204   4.966   3.277   3.538 -0.1547 -0.2846 -0.4166
   15CHTO   C42 6205   4.995   3.296   3.397  0.5217  0.1009 -0.2283
   15CHTO   H84 6206   4.939   3.223   3.339 -2.3617  2.2042 -0.1923
   15CHTO   C44 6207   5.145   3.286   3.355 -0.0557  0.2988  0.1568
   15CHTO   H86 6208   5.200   3.365   3.405  0.4260  0.2253 -0.2538
   15CHTO   O32 6209   5.208   3.171   3.399  0.0684  0.0429  0.0538
   15CHTO   H69 6210   5.172   3.092   3.364  2.3014 -0.6546 -0.7714
   15CHTO   C48 6211   5.155   3.313   3.199 -0.1893  0.0142 -0.2018
   15CHTO   H90 6212   5.116   3.235   3.133  2.7266 -1.3721 -0.3845
   15CHTO    N9 6213   5.292   3.332   3.149  0.2405 -0.1204 -0.2112
   15CHTO   H77 6214   5.358   3.361   3.229  0.2278  1.6284 -0.8276
   15CHTO   H78 6215   5.319   3.228   3.133 -1.5545 -0.6714  0.1698
   15CHTO   C51 6216   5.061   3.430   3.141  0.0409 -0.2159 -0.2177
   15CHTO   H93 6217   5.101   3.530   3.161  0.3992  0.5467 -4.4190
   15CHTO   O30 6218   4.927   3.413   3.199 -0.3698 -0.5383 -0.0059
   15CHTO   C46 6219   4.935   3.428   3.353  0.6315  0.3485  0.0747
   15CHTO   H88 6220   5.000   3.513   3.375 -1.0556  2.5498 -3.0489
   15CHTO   C53 6221   4.785   3.461   3.396  0.3616  0.8665 -0.4577
   15CHTO   O72 6222   4.732   3.578   3.334 -0.5933  0.6118  0.5300
   15CHTO  H199 6223   4.772   3.597   3.251  1.3646  1.3532  1.6167
   15CHTO   O22 6224   5.026   3.424   3.000 -0.2932 -0.1520  0.5397
   15CHTO   C31 6225   4.991   3.532   2.913 -0.2090 -0.5563 -0.4127
   15CHTO   H59 6226   4.992   3.491   2.810 -1.5961  0.8311 -1.0103
   15CHTO   C29 6227   4.848   3.582   2.934  0.1421 -0.1205 -0.5946
   15CHTO   H57 6228   4.832   3.608   3.040 -1.1212  1.0704 -1.0633
   15CHTO   O21 6229   4.760   3.474   2.918 -0.2217  0.2840  0.1235
   15CHTO   H37 6230   4.735   3.473   2.828  1.4423  1.5116 -0.3655
   15CHTO   C27 6231   4.811   3.714   2.844  0.2314  0.2783  0.0890
   15CHTO   H55 6232   4.809   3.678   2.740 -2.2717 -2.3370  0.9745
   15CHTO    N5 6233   4.681   3.772   2.872 -0.4689 -0.2487  0.9094
   15CHTO   H43 6234   4.680   3.825   2.966  0.6647  0.0126  0.7847
   15CHTO   H44 6235   4.648   3.841   2.796  0.5882 -1.2050 -0.4387
   15CHTO   C25 6236   4.926   3.824   2.870  0.0787  0.0927 -0.0857
   15CHTO   H53 6237   4.932   3.849   2.977 -1.7914 -0.2403  0.0999
   15CHTO   O17 6238   5.055   3.763   2.832  0.1699  0.7760 -0.0747
   15CHTO   C32 6239   5.097   3.652   2.915  0.8489 -0.6597 -0.0201
   15CHTO   H60 6240   5.111   3.685   3.018  2.0652  3.3961 -1.3980
   15CHTO   C36 6241   5.227   3.613   2.851 -0.1944 -0.4142  0.1986
   15CHTO   O25 6242   5.337   3.606   2.945  0.8232  0.6075  0.9458
   15CHTO   H40 6243   5.411   3.600   2.887  0.7567 -0.5056  0.9690
   15CHTO   O15 6244   4.900   3.960   2.794  0.3868 -0.2592 -0.4870
   15CHTO   C19 6245   4.952   4.102   2.822  0.2800 -0.7031  0.0762
   15CHTO   H47 6246   4.938   4.159   2.729  1.1710 -0.7720 -0.0974
   15CHTO   C20 6247   4.875   4.169   2.942  0.1618 -0.1220 -0.6477
   15CHTO   H48 6248   4.887   4.116   3.038 -0.8219  0.5603 -0.1339
   15CHTO   O19 6249   4.735   4.177   2.899  0.2692  0.1133 -0.5427
   15CHTO   H35 6250   4.732   4.223   2.817  0.1921  0.6178 -0.2567
   15CHTO   C21 6251   4.929   4.322   2.979 -0.7833  0.1792 -0.2912
   15CHTO   H49 6252   4.907   4.391   2.897  2.1927 -0.1503 -1.4086
   15CHTO    N4 6253   4.850   4.384   3.089  0.1735  0.1612 -0.6593
   15CHTO   H41 6254   4.883   4.485   3.110 -0.4651 -0.2190  2.5003
   15CHTO   H42 6255   4.868   4.321   3.175 -0.0072  1.5243  0.3910
   15CHTO   C22 6256   5.078   4.309   3.010 -0.2238 -0.4364  0.0479
   15CHTO   H50 6257   5.083   4.240   3.095 -0.6637 -1.6999 -0.9378
   15CHTO   O14 6258   5.143   4.252   2.893  0.4543  0.1324 -0.6915
   15CHTO   C23 6259   5.109   4.113   2.849 -0.5700 -1.2300  0.8453
   15CHTO   H51 6260   5.143   4.049   2.933 -3.1276 -0.3126  2.6692
   15CHTO   C34 6261   5.190   4.066   2.725  0.0768  0.4304  0.0854
   15CHTO   O23 6262   5.331   4.091   2.742 -0.4584 -0.1691  0.0433
   15CHTO   H38 6263   5.379   4.020   2.704 -1.1605 -0.3452 -0.5190
   15CHTO   O16 6264   5.120   4.444   3.035  0.6277  0.5605 -0.2052
   15CHTO   C24 6265   5.253   4.437   3.128 -0.4458  0.4050 -0.4784
   15CHTO   H52 6266   5.294   4.336   3.132 -0.5766  0.3202 -1.2370
   15CHTO   C26 6267   5.218   4.482   3.271 -0.1400  0.3886  0.5638
   15CHTO   H54 6268   5.175   4.584   3.270  0.5157  0.6631  0.1375
   15CHTO   O20 6269   5.114   4.396   3.329  0.2768 -0.3241  0.1727
   15CHTO   H36 6270   5.142   4.309   3.306  0.3432  0.4616 -2.9742
   15CHTO   C30 6271   5.352   4.477   3.356  0.5504 -0.5288  0.3371
   15CHTO   H58 6272   5.397   4.377   3.369 -0.0468 -0.7251  0.9583
   15CHTO    N6 6273   5.323   4.531   3.492  0.4920  0.0025 -0.3802
   15CHTO   H45 6274   5.282   4.630   3.481 -0.7622 -0.3100  1.3515
   15CHTO   H46 6275   5.253   4.473   3.549  1.0826  1.6105  2.0279
   15CHTO   C33 6276   5.473   4.553   3.291  0.4548 -0.9630 -0.5798
   15CHTO   H61 6277   5.457   4.662   3.290 -1.1464 -1.1853 -0.7281
   15CHTO   O18 6278   5.482   4.518   3.154 -0.1928  0.6565  0.9367
   15CHTO   C28 6279   5.359   4.532   3.079 -0.0453 -0.3170 -0.0315
   15CHTO   H56 6280   5.325   4.636   3.090 -0.0927 -0.4261  0.9436
   15CHTO   C35 6281   5.392   4.508   2.934 -0.0285 -0.2926 -0.4390
   15CHTO   O24 6282   5.441   4.374   2.921 -0.3292 -0.3836 -0.0288
   15CHTO   H39 6283   5.364   4.322   2.906 -1.9706  1.4195  1.9519
   15CHTO    O9 6284   5.590   4.520   3.360 -0.1916 -0.9895  0.3240
   15CHTO   C13 6285   5.728   4.588   3.307  0.0990  0.0316 -0.2092
   15CHTO   H26 6286   5.705   4.678   3.246  2.6176  1.7857  1.3388
   15CHTO   C11 6287   5.795   4.483   3.222  0.5619  0.9798  0.4795
   15CHTO   H24 6288   5.736   4.476   3.129  1.9373  1.7091 -0.4617
   15CHTO    O8 6289   5.790   4.354   3.285 -0.1585 -0.6764 -0.1927
   15CHTO    H3 6290   5.827   4.295   3.223 -0.4836 -0.3307 -0.7214
   15CHTO    C9 6291   5.941   4.526   3.192  0.1862  0.1119  0.0232
   15CHTO   H22 6292   5.929   4.627   3.151 -2.1022 -0.4354 -0.7243
   15CHTO    N2 6293   6.005   4.439   3.086  0.1769  0.2300 -0.1052
   15CHTO   H10 6294   5.938   4.432   3.001 -2.2441 -2.3182  1.9591
   15CHTO   H11 6295   6.021   4.340   3.125  1.5763  0.3399 -0.3618
   15CHTO    C7 6296   6.027   4.534   3.326  0.6307  0.1624 -0.5875
   15CHTO   H20 6297   6.111   4.603   3.301  2.9917 -2.4995 -0.3117
   15CHTO    O4 6298   5.957   4.588   3.443  0.0614 -0.1516  0.0255
   15CHTO   C14 6299   5.827   4.643   3.432 -0.0643 -0.0265  0.0148
   15CHTO   H27 6300   5.828   4.754   3.426  0.5043  0.0138  0.8586
   15CHTO   C18 6301   5.763   4.605   3.569  0.4783 -0.3070 -0.6249
   15CHTO   O13 6302   5.743   4.716   3.655 -0.3000  0.7201 -0.3551
   15CHTO    H7 6303   5.818   4.772   3.660 -0.3760  0.9457 -1.5853
   15CHTO    O2 6304   6.105   4.403   3.369  0.4628 -0.3745  0.1947
   15CHTO    C1 6305   6.240   4.428   3.410  0.1895 -0.3973 -0.3128
   15CHTO   H14 6306   6.260   4.535   3.432  1.3359 -0.6663  0.0034
   15CHTO    C2 6307   6.342   4.388   3.289 -0.3236 -0.6387 -0.1453
   15CHTO   H15 6308   6.319   4.288   3.248 -1.6550 -0.6101  0.5084
   15CHTO    O6 6309   6.334   4.484   3.183 -0.0151 -0.2976  0.1153
   15CHTO    H1 6310   6.319   4.440   3.101 -0.1630  1.6935 -0.9728
   15CHTO    C3 6311   6.491   4.392   3.361  0.2057 -1.1649  0.1933
   15CHTO   H16 6312   6.518   4.490   3.402 -0.0836 -0.7394 -0.6219
   15CHTO    N1 6313   6.596   4.354   3.263 -0.3335 -0.2685  0.0966
   15CHTO    H8 6314   6.695   4.383   3.295 -1.0156  2.0633  0.1191
   15CHTO    H9 6315   6.586   4.381   3.159  0.8594 -0.9935 -0.2234
   15CHTO    C4 6316   6.490   4.298   3.484  0.6251 -0.8969 -0.7570
   15CHTO   H17 6317   6.456   4.199   3.455 -1.1928 -0.8809  1.1935
   15CHTO    O1 6318   6.406   4.351   3.583  0.1378 -0.4487 -0.4121
   15CHTO    C5 6319   6.262   4.345   3.544  0.2130  0.3524  0.0899
   15CHTO   H18 6320   6.234   4.243   3.519 -2.1708  0.6177  1.5586
   15CHTO   C16 6321   6.178   4.406   3.663  0.2499 -0.0912  0.3103
   15CHTO   O11 6322   6.184   4.336   3.783  0.0234  0.1653  0.5919
   15CHTO    H5 6323   6.118   4.269   3.791  0.0672 -0.1449 -1.5845
   15CHTO    O3 6324   6.618   4.287   3.548 -0.2171 -0.0035  0.3179
   15CHTO    C6 6325   6.638   4.197   3.654 -0.8072 -0.4769 -0.8620
   15CHTO   H19 6326   6.548   4.170   3.710  0.0289 -0.7530  0.3860
   15CHTO    C8 6327   6.708   4.067   3.605 -0.4014 -0.2575 -1.2904
   15CHTO   H21 6328   6.803   4.101   3.564  0.3308 -2.5923 -1.5950
   15CHTO    O7 6329   6.622   4.002   3.510 -0.1715  0.0425 -0.2857
   15CHTO    H2 6330   6.671   4.025   3.433 -0.3388  0.2126 -0.3407
   15CHTO   C12 6331   6.741   3.969   3.727 -0.2508  0.1862 -0.7933
   15CHTO   H25 6332   6.647   3.931   3.774  0.3748 -0.7826 -0.3213
   15CHTO    N3 6333   6.807   3.841   3.684  0.1138 -0.3015  0.0410
   15CHTO   H12 6334   6.782   3.762   3.753 -0.7535  1.5288  1.8690
   15CHTO   H13 6335   6.757   3.806   3.595 -0.7366  0.9135  0.0286
   15CHTO   C15 6336   6.822   4.056   3.831 -0.3444  0.4818 -0.1550
   15CHTO   H28 6337   6.919   4.080   3.788 -0.6863 -1.3421 -2.0335
   15CHTO   O10 6338   6.838   4.000   3.946 -0.1282 -0.6506  0.0501
   15CHTO    H4 6339   6.928   3.998   3.973 -0.0049 -1.5468 -0.4223
   15CHTO    O5 6340   6.751   4.182   3.873 -0.0831 -0.5022 -0.1489
   15CHTO   C10 6341   6.729   4.272   3.758  0.7135 -0.2755 -0.2430
   15CHTO   H23 6342   6.828   4.299   3.721  0.5591  0.8241  0.1229
   15CHTO   C17 6343   6.675   4.405   3.814 -0.0098  0.3557  0.8310
   15CHTO   O12 6344   6.539   4.382   3.863  0.2994  0.4345  0.0709
   15CHTO    H6 6345   6.491   4.460   3.845  0.1254  0.3912  0.3504
   16CHTO  H203 6346   4.658   4.124   3.197  0.4306  0.2119 -1.6525
   16CHTO   O82 6347   4.672   4.032   3.211  0.1575  0.4112 -0.0082
   16CHTO  C123 6348   4.752   4.005   3.329 -0.0080  0.0014 -0.2810
   16CHTO  H227 6349   4.694   3.941   3.397 -0.3831  1.0999  0.4529
   16CHTO   O77 6350   4.855   3.934   3.269  0.0040  0.6271 -0.1151
   16CHTO  C118 6351   4.955   3.904   3.371 -0.0477  0.6506  0.2834
   16CHTO  H222 6352   4.913   3.850   3.457  2.2627 -2.2599 -0.3153
   16CHTO  C125 6353   5.060   3.799   3.309  0.0581  0.2896  0.1479
   16CHTO   O84 6354   5.124   3.852   3.192  0.8574  0.2772  0.0765
   16CHTO  H205 6355   5.078   3.912   3.137 -0.5411 -0.9485 -0.1131
   16CHTO  C114 6356   5.029   4.031   3.417  0.0208 -0.4112 -0.2647
   16CHTO  H218 6357   5.056   4.090   3.330  1.9163 -1.0971 -0.1473
   16CHTO  C116 6358   4.925   4.125   3.487  0.3230  0.0056  0.0492
   16CHTO  H220 6359   4.897   4.073   3.581 -1.8936  0.6460 -0.2293
   16CHTO   O79 6360   4.983   4.255   3.525  0.1084  0.2210  0.0642
   16CHTO  H201 6361   4.943   4.301   3.596 -3.4115  0.0269 -1.7197
   16CHTO  C120 6362   4.804   4.141   3.392  0.1694  0.2576  0.4378
   16CHTO  H224 6363   4.830   4.212   3.311 -0.1619 -1.2298 -1.0185
   16CHTO   N21 6364   4.687   4.204   3.461  0.6146 -0.1901 -0.2829
   16CHTO  H211 6365   4.650   4.278   3.391  0.7531  0.9893  0.8915
   16CHTO  H212 6366   4.608   4.135   3.486  1.4283 -1.0495 -0.0545
   16CHTO   O75 6367   5.143   3.985   3.491  0.2985 -0.5205 -0.0054
   16CHTO  C112 6368   5.282   4.061   3.476 -0.0928 -0.0485 -0.4895
   16CHTO  H216 6369   5.264   4.168   3.458  0.5622  0.1646  0.0814
   16CHTO   O73 6370   5.345   4.001   3.362 -0.6002  0.3090 -0.3228
   16CHTO  C113 6371   5.466   4.064   3.331  0.7993  0.2475 -0.2170
   16CHTO  H217 6372   5.439   4.171   3.324  1.8957  0.4694 -1.1550
   16CHTO  C124 6373   5.501   4.033   3.181  0.1184  0.4531  0.2829
   16CHTO   O83 6374   5.414   4.070   3.072  0.2106 -0.2786 -0.1861
   16CHTO  H204 6375   5.349   4.132   3.098 -0.5258 -1.4698  0.8351
   16CHTO  C109 6376   5.570   4.045   3.447  0.7034 -0.2309  0.5768
   16CHTO  H213 6377   5.587   3.937   3.455  2.0939 -0.2194 -1.6975
   16CHTO  C110 6378   5.512   4.101   3.584  0.1056 -0.6294 -0.0492
   16CHTO  H214 6379   5.517   4.210   3.574  0.0149 -0.7774 -2.0062
   16CHTO   O78 6380   5.598   4.069   3.693 -0.3526 -0.0933  0.7533
   16CHTO  H200 6381   5.580   4.123   3.768 -1.8441  1.4243 -0.6701
   16CHTO  C111 6382   5.368   4.050   3.610  0.1150 -0.2779 -0.4468
   16CHTO  H215 6383   5.378   3.943   3.634  0.1694  0.4653  3.0341
   16CHTO   N19 6384   5.304   4.116   3.731 -0.5445 -0.3249  0.3012
   16CHTO  H207 6385   5.202   4.082   3.743 -1.5219  1.8874 -1.4457
   16CHTO  H208 6386   5.295   4.223   3.717 -0.2225 -0.4635 -1.0366
   16CHTO   O74 6387   5.695   4.116   3.423 -0.4487  0.0313 -0.5384
   16CHTO  C115 6388   5.815   4.029   3.391 -0.2289 -0.0651 -0.1469
   16CHTO  H219 6389   5.791   3.924   3.409 -0.4724  0.2722  1.6022
   16CHTO   O76 6390   5.854   4.036   3.240 -0.5731 -0.3367 -0.3851
   16CHTO  C122 6391   5.965   3.947   3.188  0.2025 -0.3703  0.1443
   16CHTO  H226 6392   5.988   3.986   3.089 -2.0257  1.9487  0.5000
   16CHTO  C126 6393   5.912   3.796   3.161  0.3692  0.6967  0.4956
   16CHTO   O85 6394   6.028   3.710   3.140 -0.2626  0.7772  0.5421
   16CHTO  H206 6395   6.006   3.637   3.086 -0.4323  0.4174  1.0927
   16CHTO  C121 6396   6.089   3.966   3.285 -0.3646  0.0402 -0.5704
   16CHTO  H225 6397   6.167   3.893   3.254 -0.9283 -1.4583  1.4224
   16CHTO   O81 6398   6.149   4.089   3.260 -0.2025 -0.2609 -0.8934
   16CHTO  H202 6399   6.238   4.086   3.289 -0.2390 -0.0391 -0.7533
   16CHTO  C119 6400   6.050   3.949   3.437 -0.1629 -0.2041 -0.5453
   16CHTO  H223 6401   6.000   3.852   3.440 -3.6869  1.5313 -0.6054
   16CHTO  C117 6402   5.941   4.061   3.474  0.4719  0.6950  0.1546
   16CHTO  H221 6403   5.960   4.162   3.439  1.1509  1.1643  1.8237
   16CHTO   N20 6404   5.905   4.067   3.622  0.2665 -0.5697 -0.4566
   16CHTO  H209 6405   5.818   4.007   3.644 -0.3558  0.5439  0.1524
   16CHTO  H210 6406   5.889   4.169   3.652  2.3809 -0.2008 -0.4961
   16CHTO   O80 6407   6.180   3.937   3.540  0.9029 -0.3077  0.2349
   16CHTO  C103 6408   6.205   3.799   3.600  0.6779  0.6098  0.5738
   16CHTO  H190 6409   6.115   3.740   3.616  1.4691 -1.2002 -1.4407
   16CHTO  C101 6410   6.303   3.711   3.515 -0.1142 -0.4429 -0.5044
   16CHTO  H188 6411   6.397   3.767   3.521 -0.6133  0.3971 -0.5532
   16CHTO   O68 6412   6.240   3.690   3.352  0.3313  0.1389 -0.3202
   16CHTO  H168 6413   6.251   3.601   3.324 -0.1495 -0.4411  1.3135
   16CHTO   C99 6414   6.331   3.576   3.585  0.1480 -0.0213  0.3459
   16CHTO  H186 6415   6.237   3.516   3.595 -1.8471  2.8827 -0.2727
   16CHTO   N17 6416   6.435   3.495   3.518 -0.0857  0.7396 -0.2008
   16CHTO  H174 6417   6.396   3.397   3.494  0.3116  0.5505 -0.0688
   16CHTO  H175 6418   6.468   3.542   3.427 -0.4909 -0.9987 -1.2604
   16CHTO   C97 6419   6.377   3.611   3.734 -0.2676 -0.2346 -0.0288
   16CHTO  H184 6420   6.476   3.659   3.729 -1.0320  1.8504  2.9816
   16CHTO   O64 6421   6.280   3.690   3.808  0.4740  0.6098  0.3188
   16CHTO  C104 6422   6.262   3.819   3.747  0.0609 -0.7848 -0.3508
   16CHTO  H191 6423   6.349   3.884   3.738 -0.0352 -0.5688  0.2493
   16CHTO  C108 6424   6.158   3.897   3.838 -0.2220 -0.0907  0.3701
   16CHTO   O71 6425   6.184   4.036   3.843 -0.5040 -0.4554  0.5840
   16CHTO  H171 6426   6.109   4.066   3.890 -1.5034 -0.8637 -0.7191
   16CHTO   O62 6427   6.391   3.493   3.816  0.9019 -0.3069 -0.0765
   16CHTO   C91 6428   6.493   3.497   3.918  0.4024  0.7226  0.0273
   16CHTO  H178 6429   6.582   3.460   3.867 -1.4805 -0.8427 -2.2077
   16CHTO   C92 6430   6.449   3.385   4.023 -0.8454  0.1372 -0.2862
   16CHTO  H179 6431   6.424   3.294   3.966 -2.0057 -0.1396  0.6456
   16CHTO   O66 6432   6.567   3.357   4.105  0.0554 -0.1975  0.2115
   16CHTO  H166 6433   6.544   3.291   4.168 -2.1042  0.6547  0.3643
   16CHTO   C93 6434   6.331   3.420   4.122  0.2522 -0.4095 -0.1642
   16CHTO  H180 6435   6.341   3.353   4.209  0.7969  0.6086  0.5537
   16CHTO   N16 6436   6.197   3.381   4.062 -0.2391 -0.7665  0.0296
   16CHTO  H172 6437   6.198   3.399   3.955 -0.4236  1.7964  0.4262
   16CHTO  H173 6438   6.120   3.442   4.106  1.6704  2.3114 -0.7073
   16CHTO   C94 6439   6.336   3.568   4.174 -0.0086  0.3276 -0.7427
   16CHTO  H181 6440   6.253   3.626   4.136 -0.0708  2.8894  3.0282
   16CHTO   O61 6441   6.460   3.639   4.140  0.0148  0.5654  0.4230
   16CHTO   C95 6442   6.512   3.635   4.000 -0.3437  0.0900  0.8404
   16CHTO  H182 6443   6.454   3.707   3.942 -1.2745 -0.3957  1.1528
   16CHTO  C106 6444   6.658   3.687   3.985 -0.1830  0.0334  0.9679
   16CHTO   O69 6445   6.736   3.598   4.067 -0.6210 -0.0481 -0.7277
   16CHTO  H169 6446   6.824   3.622   4.045 -1.1473  2.3263 -0.3922
   16CHTO   O63 6447   6.325   3.559   4.346 -0.4666  0.4693 -0.4800
   16CHTO   C96 6448   6.184   3.500   4.417 -0.4898  0.1214  0.0533
   16CHTO  H183 6449   6.187   3.398   4.376 -0.0252  1.6511 -3.9275
   16CHTO   C98 6450   6.049   3.573   4.389  0.0526  0.6488  0.4430
   16CHTO  H185 6451   6.030   3.592   4.282 -1.7802  0.2858  0.6847
   16CHTO   O67 6452   5.942   3.482   4.420  0.1741 -0.2965  0.2299
   16CHTO  H167 6453   5.864   3.533   4.416  0.7997  0.6057 -0.8386
   16CHTO  C102 6454   6.031   3.710   4.466 -0.1025  0.3064  0.4406
   16CHTO  H189 6455   5.922   3.728   4.470 -0.0620  0.7415 -0.3543
   16CHTO   N18 6456   6.088   3.824   4.402 -0.3933 -0.6126 -0.1207
   16CHTO  H176 6457   6.195   3.818   4.397 -0.4995 -2.1329 -1.0690
   16CHTO  H177 6458   6.035   3.831   4.307 -0.2789  5.2284  0.0943
   16CHTO  C105 6459   6.091   3.693   4.609  0.7656 -0.8777 -0.5318
   16CHTO  H192 6460   6.183   3.748   4.626 -1.1623  2.3481 -0.0164
   16CHTO   O65 6461   6.111   3.557   4.644 -0.3484  0.4597  0.1987
   16CHTO  C100 6462   6.216   3.499   4.564 -0.1970 -0.3549  0.6921
   16CHTO  H187 6463   6.308   3.557   4.582 -1.3822  2.0441 -0.7103
   16CHTO  C107 6464   6.246   3.351   4.615 -0.5567  0.5348 -0.3303
   16CHTO   O70 6465   6.123   3.278   4.614 -1.3273 -0.1770  0.4264
   16CHTO  H170 6466   6.072   3.296   4.691 -0.4550 -0.2681  1.0313
   16CHTO   O57 6467   5.979   3.748   4.713 -0.3568 -0.3858  0.1385
   16CHTO   C85 6468   5.947   3.889   4.729  0.1729  0.3255  0.1251
   16CHTO  H157 6469   5.938   3.941   4.632 -2.8347  1.1911  0.7969
   16CHTO   C83 6470   6.050   3.981   4.800  0.3419 -0.3261  0.9728
   16CHTO  H155 6471   6.136   3.984   4.732  0.5137  2.2914  1.2471
   16CHTO   O56 6472   6.086   3.920   4.924  0.4862 -0.2505  0.2599
   16CHTO  H135 6473   6.040   3.842   4.951  1.3725 -1.0158 -0.4220
   16CHTO   C81 6474   5.994   4.118   4.816 -0.1302  0.2364  0.5553
   16CHTO  H153 6475   5.970   4.157   4.717  0.3068  0.1927  0.4305
   16CHTO   N14 6476   6.102   4.214   4.854  0.1463 -0.5845  0.3720
   16CHTO  H141 6477   6.054   4.307   4.875  1.4078 -0.1301  1.3480
   16CHTO  H142 6478   6.147   4.175   4.943 -1.6193 -0.5175  1.3114
   16CHTO   C79 6479   5.872   4.127   4.906  0.8999 -0.4745 -0.0654
   16CHTO  H151 6480   5.837   4.230   4.896  0.4279 -0.7024 -0.7913
   16CHTO   O52 6481   5.769   4.040   4.840  0.8721  0.4187  0.5685
   16CHTO   C86 6482   5.815   3.903   4.822  0.4258  0.2651 -0.3290
   16CHTO  H158 6483   5.840   3.879   4.928 -0.2579 -0.2283 -0.2763
   16CHTO   C90 6484   5.692   3.810   4.783  0.4169 -0.0341  0.5467
   16CHTO   O60 6485   5.587   3.810   4.879  0.4625 -0.1935 -0.8169
   16CHTO  H138 6486   5.513   3.861   4.853  0.3586  0.7116  1.1451
   16CHTO   O50 6487   5.885   4.080   5.047  0.4007  0.3052  0.1318
   16CHTO   C73 6488   5.859   4.058   5.181  0.0068 -0.0369 -0.6087
   16CHTO  H145 6489   5.948   4.013   5.228 -0.4546  0.0590  0.3745
   16CHTO   C74 6490   5.734   3.980   5.202  1.0744 -0.6393 -0.7534
   16CHTO  H146 6491   5.749   3.879   5.161  2.5767 -0.2001 -1.3371
   16CHTO   O54 6492   5.715   3.954   5.348  0.4623 -0.6925  0.3900
   16CHTO  H133 6493   5.659   4.017   5.389  2.5681  0.0176  2.3257
   16CHTO   C75 6494   5.604   4.053   5.144  0.1733  0.3041 -0.2046
   16CHTO  H147 6495   5.619   4.070   5.036  1.0633 -0.1146 -0.1453
   16CHTO   N13 6496   5.471   3.986   5.160 -0.3445  0.7709  0.1080
   16CHTO  H139 6497   5.468   3.897   5.098  0.6442  1.7959 -1.4226
   16CHTO  H140 6498   5.391   4.057   5.148 -1.2760 -0.5129 -1.4576
   16CHTO   C76 6499   5.602   4.206   5.203 -0.0444  0.7052 -0.3309
   16CHTO  H148 6500   5.596   4.192   5.311  1.6504  0.8445 -0.1983
   16CHTO   O49 6501   5.728   4.272   5.174  0.5252 -0.0096 -0.1333
   16CHTO   C77 6502   5.843   4.205   5.234  0.7927  0.1330 -0.3099
   16CHTO  H149 6503   5.842   4.200   5.343 -1.4468 -3.2525 -0.4191
   16CHTO   C88 6504   5.964   4.289   5.200  0.3859 -0.7547  0.3817
   16CHTO   O58 6505   6.089   4.260   5.288  0.0745  0.1951 -0.0172
   16CHTO  H136 6506   6.112   4.170   5.272  0.9305  0.5839 -1.0663
   16CHTO   O51 6507   5.480   4.289   5.152 -0.0932  0.4421 -0.1835
   16CHTO   C78 6508   5.455   4.431   5.222 -0.0240  0.2897 -0.4503
   16CHTO  H150 6509   5.525   4.506   5.179  0.4269  0.3573  0.4008
   16CHTO   C80 6510   5.483   4.436   5.377 -0.7444  0.3885 -0.0567
   16CHTO  H152 6511   5.418   4.356   5.420 -1.1859 -0.0667 -1.5358
   16CHTO   O55 6512   5.623   4.410   5.410  0.2591  0.3576  0.4156
   16CHTO  H134 6513   5.641   4.463   5.485 -0.7098  1.2413  0.0458
   16CHTO   C84 6514   5.434   4.575   5.444  0.2159  0.1962  0.3208
   16CHTO  H156 6515   5.502   4.658   5.423 -0.6388  0.7867 -0.1364
   16CHTO   N15 6516   5.435   4.568   5.599 -0.2662  0.4908  0.3925
   16CHTO  H143 6517   5.343   4.529   5.636  0.3360  1.2718  2.8219
   16CHTO  H144 6518   5.516   4.514   5.644  0.1883  0.8226 -0.0203
   16CHTO   C87 6519   5.294   4.618   5.396 -0.3330 -0.2823 -0.5693
   16CHTO  H159 6520   5.210   4.568   5.446 -0.4117  0.7338  0.3545
   16CHTO   O53 6521   5.284   4.602   5.262  0.2238 -0.2306  0.5068
   16CHTO   C82 6522   5.306   4.471   5.200 -0.1862 -0.1852  1.1413
   16CHTO  H154 6523   5.238   4.390   5.227 -0.8366 -0.1282 -0.2987
   16CHTO   C89 6524   5.287   4.497   5.050 -0.4926 -0.7705  0.0681
   16CHTO   O59 6525   5.151   4.498   5.002  0.4461 -0.6159  0.3592
   16CHTO  H137 6526   5.147   4.517   4.911 -1.4918  1.4139  0.8401
   16CHTO   O45 6527   5.281   4.799   5.425  1.1782 -0.3787 -0.0701
   16CHTO   C67 6528   5.358   4.883   5.338 -0.7235 -0.5013  0.4976
   16CHTO  H124 6529   5.417   4.822   5.270 -0.7681  0.9808 -0.9106
   16CHTO   C65 6530   5.260   4.966   5.247  0.8701 -0.1253 -0.0030
   16CHTO  H122 6531   5.167   4.965   5.304 -0.3267 -1.9323 -1.8933
   16CHTO   O44 6532   5.246   4.878   5.128 -0.1840 -0.5642  0.2359
   16CHTO  H102 6533   5.191   4.927   5.068  1.1064 -0.1108 -0.6020
   16CHTO   C63 6534   5.301   5.115   5.228 -0.0288  0.4022 -0.2992
   16CHTO  H120 6535   5.285   5.163   5.325 -1.3753 -0.7903  0.0820
   16CHTO   N11 6536   5.211   5.189   5.144  0.3577 -0.3942  0.3930
   16CHTO  H108 6537   5.232   5.294   5.148 -0.2222 -0.1489 -2.0397
   16CHTO  H109 6538   5.210   5.149   5.045  1.6117 -2.1851  1.0700
   16CHTO   C61 6539   5.454   5.112   5.196  0.2830 -0.3338 -1.0150
   16CHTO  H118 6540   5.486   5.214   5.171 -0.2141  0.4606  1.4414
   16CHTO   O40 6541   5.533   5.060   5.304 -0.1126 -0.9014 -0.3176
   16CHTO   C68 6542   5.467   4.980   5.407  0.3044 -0.4353 -0.3032
   16CHTO  H125 6543   5.416   5.041   5.485 -0.1991 -1.2861  0.0319
   16CHTO   C72 6544   5.574   4.906   5.479 -0.2093 -0.2602  0.9503
   16CHTO   O48 6545   5.667   4.986   5.546  0.3511  0.6724 -0.4185
   16CHTO  H105 6546   5.720   4.934   5.604 -3.6489 -1.7755  1.1882
   16CHTO   O38 6547   5.476   5.029   5.078 -0.3393 -0.0838  0.2043
   16CHTO   C55 6548   5.617   5.016   5.030 -0.1033 -0.0408  0.2938
   16CHTO  H112 6549   5.679   5.054   5.112  0.0489  2.1588 -0.7898
   16CHTO   C56 6550   5.637   5.096   4.909  0.1464  0.8079  0.6780
   16CHTO  H113 6551   5.542   5.089   4.856 -0.1162  1.1127  1.1037
   16CHTO   O42 6552   5.664   5.232   4.955 -0.5247  0.1440  0.4632
   16CHTO  H100 6553   5.753   5.238   4.985 -0.5690  1.0560  0.4281
   16CHTO   C57 6554   5.762   5.050   4.816  0.1944 -0.1676  0.2487
   16CHTO  H114 6555   5.841   5.068   4.889 -0.4032 -0.4283  0.9608
   16CHTO   N10 6556   5.789   5.131   4.695 -0.4669  0.0358  0.3378
   16CHTO  H106 6557   5.855   5.211   4.725 -0.0893  0.1346 -0.7305
   16CHTO  H107 6558   5.697   5.179   4.664 -0.8068 -1.4064 -0.9722
   16CHTO   C58 6559   5.745   4.901   4.784 -0.8018  0.3011  0.1064
   16CHTO  H115 6560   5.660   4.876   4.718 -2.2440  0.6254  1.8052
   16CHTO   O37 6561   5.729   4.828   4.911 -0.1004  0.3000  0.1417
   16CHTO   C59 6562   5.632   4.859   5.013  0.2938 -0.0423 -0.1385
   16CHTO  H116 6563   5.540   4.815   4.974  0.2963 -0.1729  0.0049
   16CHTO   C70 6564   5.681   4.778   5.134 -0.6083  0.3914 -0.0853
   16CHTO   O46 6565   5.807   4.809   5.188 -0.5082 -0.4892 -0.0787
   16CHTO  H103 6566   5.867   4.763   5.133  0.4200  0.9632 -0.3195
   16CHTO   O39 6567   5.890   4.842   4.732  0.4498 -0.2128  0.8601
   16CHTO   C60 6568   5.886   4.762   4.615  0.0080  0.0847  0.4613
   16CHTO  H117 6569   5.800   4.695   4.618 -0.6450  0.9579  1.6952
   16CHTO   C62 6570   5.872   4.860   4.495 -0.2311  0.3111 -0.1453
   16CHTO  H119 6571   5.775   4.913   4.507 -0.1741  0.1070  1.3386
   16CHTO   O43 6572   5.999   4.938   4.492  0.4823  0.2162 -0.0545
   16CHTO  H101 6573   6.002   4.985   4.411  0.9690  0.4737  0.1158
   16CHTO   C66 6574   5.861   4.750   4.377  1.0979 -0.1045  0.1620
   16CHTO  H123 6575   5.772   4.690   4.393  0.5362  1.0051  1.3358
   16CHTO   N12 6576   5.839   4.818   4.244 -0.6189  0.2611 -0.4240
   16CHTO  H110 6577   5.897   4.907   4.223  0.1838  0.3829  2.0194
   16CHTO  H111 6578   5.849   4.747   4.164 -0.4771 -0.8409  0.5609
   16CHTO   C69 6579   5.993   4.659   4.368 -0.0560  0.1934 -0.6646
   16CHTO  H126 6580   6.076   4.728   4.341  0.2058 -0.0125 -0.3779
   16CHTO   O41 6581   6.015   4.587   4.501 -0.1047  0.2412 -0.2974
   16CHTO   C64 6582   6.017   4.671   4.618  0.5203  0.0261  0.2413
   16CHTO  H121 6583   6.105   4.739   4.610  0.6658 -0.2003 -0.0613
   16CHTO   C71 6584   6.021   4.593   4.752 -0.3872 -0.0533 -0.4197
   16CHTO   O47 6585   6.151   4.586   4.813  0.4227 -0.6990  0.4035
   16CHTO  H104 6586   6.185   4.671   4.830 -0.2433  0.0192 -1.6539
   16CHTO   O34 6587   5.997   4.544   4.246 -0.1168  0.2059 -0.2590
   16CHTO   C49 6588   6.127   4.491   4.194  0.9592 -0.4501  0.2182
   16CHTO   H91 6589   6.158   4.570   4.126 -0.4807  0.1261  0.2126
   16CHTO   C47 6590   6.092   4.356   4.127  0.2383 -0.1754  0.5001
   16CHTO   H89 6591   6.175   4.309   4.070 -1.2126 -3.5830  1.1294
   16CHTO   O33 6592   5.978   4.376   4.042 -0.4782  0.1851 -0.5642
   16CHTO   H70 6593   5.947   4.292   4.013 -0.2684  0.3413 -1.2409
   16CHTO   C45 6594   6.050   4.249   4.247 -0.5733 -0.2843  0.5884
   16CHTO   H87 6595   5.959   4.281   4.300 -1.4960 -0.8865 -0.5952
   16CHTO    N8 6596   6.010   4.120   4.183  0.4514  0.4690  0.3245
   16CHTO   H75 6597   5.903   4.104   4.173  0.5261 -0.2994  0.7150
   16CHTO   H76 6598   6.069   4.087   4.099  1.1212  0.4654  0.7925
   16CHTO   C43 6599   6.163   4.236   4.365 -0.6177  0.2562  0.2185
   16CHTO   H85 6600   6.114   4.180   4.444 -1.0876 -0.3658 -0.4978
   16CHTO   O29 6601   6.208   4.369   4.405 -0.5521  0.3909 -0.3675
   16CHTO   C50 6602   6.228   4.472   4.308 -1.2984 -0.0957 -0.3088
   16CHTO   H92 6603   6.238   4.569   4.358 -0.8771  0.3997 -1.3481
   16CHTO   C54 6604   6.371   4.451   4.254 -0.5548 -0.5221  0.1542
   16CHTO   O36 6605   6.423   4.551   4.167 -0.9180  0.1456  0.1947
   16CHTO   H72 6606   6.392   4.639   4.178 -0.8030  0.3037 -0.7067
   16CHTO   O27 6607   6.282   4.169   4.331  0.2679  0.2772 -0.0035
   16CHTO   C37 6608   6.401   4.101   4.371 -0.7535 -0.6016  0.1718
   16CHTO   H79 6609   6.486   4.172   4.375 -0.3885 -0.9376 -1.4928
   16CHTO   C38 6610   6.371   4.043   4.509 -0.3665  0.5010  0.3385
   16CHTO   H80 6611   6.276   3.986   4.508 -0.5442  0.7717  1.2203
   16CHTO   O31 6612   6.353   4.157   4.598 -0.0394  0.0488  0.1980
   16CHTO   H68 6613   6.439   4.185   4.620  0.8253 -0.7719 -2.0332
   16CHTO   C39 6614   6.493   3.951   4.556 -1.4700  0.5391 -0.5874
   16CHTO   H81 6615   6.578   4.018   4.568 -0.7981 -0.6067  1.2309
   16CHTO    N7 6616   6.472   3.882   4.685 -0.4675  0.0680 -0.2031
   16CHTO   H73 6617   6.474   3.952   4.767  1.8162 -0.0272 -0.1453
   16CHTO   H74 6618   6.385   3.820   4.670  1.3783 -2.6864  0.0011
   16CHTO   C40 6619   6.540   3.849   4.444 -0.3131 -0.0176 -0.4667
   16CHTO   H82 6620   6.466   3.769   4.440 -1.6910  1.2200 -0.2587
   16CHTO   O26 6621   6.551   3.913   4.317 -0.3925 -0.3737  0.3066
   16CHTO   C41 6622   6.435   3.986   4.278  0.2613  0.4991 -0.1226
   16CHTO   H83 6623   6.345   3.923   4.273 -0.0243  0.8580  0.4114
   16CHTO   C52 6624   6.445   4.029   4.123 -0.2463  0.3612  0.1881
   16CHTO   O35 6625   6.532   4.109   4.092 -0.1879  0.5782  0.3210
   16CHTO   H71 6626   6.507   4.198   4.111  0.6088  0.2542  3.2751
   16CHTO   O28 6627   6.676   3.804   4.468 -0.1575 -0.4172 -0.1508
   16CHTO   C42 6628   6.717   3.662   4.500 -0.2243 -0.5924  0.1621
   16CHTO   H84 6629   6.814   3.646   4.453  0.5392 -3.0724  2.4339
   16CHTO   C44 6630   6.630   3.548   4.459  0.6448  1.3351 -0.2226
   16CHTO   H86 6631   6.532   3.563   4.505  0.1822  0.5284 -0.9293
   16CHTO   O32 6632   6.619   3.546   4.315 -0.0520 -0.3201  0.3784
   16CHTO   H69 6633   6.548   3.493   4.284 -0.2227 -1.5705  2.8184
   16CHTO   C48 6634   6.686   3.414   4.507 -0.0357  0.6262 -0.2341
   16CHTO   H90 6635   6.781   3.403   4.455  0.0198 -0.8645  0.1628
   16CHTO    N9 6636   6.605   3.297   4.464  0.3685  0.0958  0.7855
   16CHTO   H77 6637   6.672   3.212   4.468  1.3343  0.8868  2.0325
   16CHTO   H78 6638   6.577   3.331   4.366 -1.2235  0.6014  1.3929
   16CHTO   C51 6639   6.705   3.412   4.671  0.4711 -0.6755  0.4792
   16CHTO   H93 6640   6.607   3.416   4.719  0.2225  1.0170 -0.1105
   16CHTO   O30 6641   6.782   3.518   4.709  0.1157 -0.5935 -0.1812
   16CHTO   C46 6642   6.743   3.650   4.656 -0.4076  0.0783  0.0173
   16CHTO   H88 6643   6.653   3.682   4.709 -1.9584 -1.9847 -1.3110
   16CHTO   C53 6644   6.863   3.737   4.704 -0.0301  0.5656  0.1468
   16CHTO   O72 6645   6.880   3.746   4.846 -0.6062  0.0831  0.3029
   16CHTO  H199 6646   6.874   3.664   4.891 -1.2055 -0.3629 -0.5624
   16CHTO   O22 6647   6.764   3.302   4.732  0.1081 -0.2821  0.0684
   16CHTO   C31 6648   6.724   3.262   4.873 -0.1053 -0.4417 -0.4964
   16CHTO   H59 6649   6.791   3.177   4.898  1.6297  0.9983 -0.0344
   16CHTO   C29 6650   6.758   3.370   4.971  0.0923  0.3067 -0.3550
   16CHTO   H57 6651   6.697   3.459   4.951 -0.1338  0.1073 -0.5502
   16CHTO   O21 6652   6.896   3.392   4.959 -0.0313  0.0138 -0.0859
   16CHTO   H37 6653   6.916   3.456   4.894 -0.2218  1.2299  1.0317
   16CHTO   C27 6654   6.719   3.323   5.122  0.4899  0.3289  0.8272
   16CHTO   H55 6655   6.780   3.237   5.154 -0.1741 -0.1596  0.7939
   16CHTO    N5 6656   6.742   3.434   5.213 -0.8917 -0.1560 -0.2621
   16CHTO   H43 6657   6.661   3.458   5.281 -1.6032 -3.0527 -0.0269
   16CHTO   H44 6658   6.843   3.456   5.244 -0.3983 -0.6694 -1.4966
   16CHTO   C25 6659   6.569   3.272   5.105  0.1239 -0.0762 -0.0758
   16CHTO   H53 6660   6.508   3.357   5.069 -0.8435 -0.1779  1.2721
   16CHTO   O17 6661   6.558   3.164   5.012  0.2304  0.3954 -0.2847
   16CHTO   C32 6662   6.585   3.203   4.877  0.0107  0.8749 -0.9124
   16CHTO   H60 6663   6.512   3.277   4.844  0.1791  1.0093 -0.9798
   16CHTO   C36 6664   6.562   3.076   4.787 -0.2354  0.3610  0.8806
   16CHTO   O25 6665   6.435   3.076   4.720  0.3200  0.0985  0.0316
   16CHTO   H40 6666   6.437   3.132   4.645  0.9880 -0.3725 -0.3172
   16CHTO   O15 6667   6.522   3.210   5.232  0.1235  0.3660  0.2635
   16CHTO   C19 6668   6.477   3.216   5.372 -0.2920 -0.1700  0.1064
   16CHTO   H47 6669   6.564   3.259   5.424  0.1070 -1.2189  0.3005
   16CHTO   C20 6670   6.353   3.313   5.400 -0.5850  0.7151 -0.6199
   16CHTO   H48 6671   6.262   3.287   5.344 -1.3391  2.5540 -0.3147
   16CHTO   O19 6672   6.397   3.441   5.350  0.1887  0.7875 -0.5838
   16CHTO   H35 6673   6.485   3.469   5.371  0.3996  0.5823 -1.1853
   16CHTO   C21 6674   6.325   3.320   5.550 -0.3106  0.5400 -0.2859
   16CHTO   H49 6675   6.412   3.351   5.608  0.3795 -0.3975 -0.8205
   16CHTO    N4 6676   6.223   3.427   5.575 -0.5114  0.2485  0.4266
   16CHTO   H41 6677   6.131   3.372   5.586 -0.5717  0.0673 -0.8754
   16CHTO   H42 6678   6.207   3.495   5.493 -0.3731 -0.9939 -0.6542
   16CHTO   C22 6679   6.299   3.172   5.596  0.3903  0.4065  0.1126
   16CHTO   H50 6680   6.212   3.139   5.538  0.9708  0.6152 -0.8934
   16CHTO   O14 6681   6.412   3.085   5.570 -0.1521  0.3836  0.4026
   16CHTO   C23 6682   6.446   3.078   5.438 -0.1819 -0.1423 -0.3852
   16CHTO   H51 6683   6.356   3.030   5.398 -0.7976 -0.3789  1.2124
   16CHTO   C34 6684   6.568   2.986   5.417 -0.7884 -0.2226  0.2225
   16CHTO   O23 6685   6.538   2.863   5.476  0.0884  0.1219  0.3467
   16CHTO   H38 6686   6.597   2.799   5.439  0.5500 -0.0469  1.3718
   16CHTO   O16 6687   6.275   3.157   5.736  0.2860  0.6468 -0.5927
   16CHTO   C24 6688   6.270   3.005   5.800  0.3618 -0.5300 -0.1896
   16CHTO   H52 6689   6.304   2.926   5.733  0.0755 -1.0050  0.2236
   16CHTO   C26 6690   6.122   2.985   5.840 -0.5212  0.3679  0.0529
   16CHTO   H54 6691   6.090   3.067   5.908  1.0418 -0.2679  1.5794
   16CHTO   O20 6692   6.044   2.983   5.723  0.0734 -0.5511  0.4568
   16CHTO   H36 6693   5.952   2.995   5.737  0.3489 -0.0656  1.8517
   16CHTO   C30 6694   6.098   2.857   5.928 -0.0126  0.1985 -0.1451
   16CHTO   H58 6695   6.111   2.772   5.860 -0.2262  0.9324 -1.1126
   16CHTO    N6 6696   5.962   2.844   5.982 -0.4740  0.2580 -0.1493
   16CHTO   H45 6697   5.890   2.909   5.936 -1.0438 -0.7752 -0.7402
   16CHTO   H46 6698   5.935   2.739   5.979 -0.7421  0.3401 -0.5752
   16CHTO   C33 6699   6.214   2.834   6.037  0.2119  0.2184 -0.1294
   16CHTO   H61 6700   6.205   2.903   6.123 -0.6839  0.0084 -0.0453
   16CHTO   O18 6701   6.339   2.863   5.975  0.0328 -0.4113  0.7997
   16CHTO   C28 6702   6.361   2.995   5.926 -0.1110 -0.2164 -0.3767
   16CHTO   H56 6703   6.333   3.073   5.997 -0.6030 -0.4753 -0.2806
   16CHTO   C35 6704   6.506   3.005   5.896  0.3528 -0.4922 -0.1266
   16CHTO   O24 6705   6.587   3.004   6.016 -0.4586 -0.5410 -0.1576
   16CHTO   H39 6706   6.674   3.039   6.021 -0.2082 -0.6992 -2.8722
   16CHTO    O9 6707   6.218   2.707   6.099  0.4168 -0.0190 -0.2367
   16CHTO   C13 6708   6.334   2.700   6.223 -0.2954 -0.2511 -0.6487
   16CHTO   H26 6709   6.360   2.805   6.249  0.9327 -0.9552  1.0700
   16CHTO   C11 6710   6.461   2.617   6.178  0.5366 -0.1095 -0.6598
   16CHTO   H24 6711   6.511   2.682   6.105 -2.0138  1.2378 -1.2543
   16CHTO    O8 6712   6.414   2.491   6.115 -0.8397 -0.0940 -0.1164
   16CHTO    H3 6713   6.419   2.422   6.179  1.2094 -0.1843 -0.3482
   16CHTO    C9 6714   6.555   2.610   6.297  0.4126  0.3205  0.4669
   16CHTO   H22 6715   6.568   2.715   6.325 -1.0405  0.7615 -0.4092
   16CHTO    N2 6716   6.688   2.555   6.257 -0.3191 -0.3737 -0.3191
   16CHTO   H10 6717   6.708   2.461   6.307  2.4996 -1.5389 -3.4973
   16CHTO   H11 6718   6.682   2.539   6.151  0.7076 -0.7981 -0.3168
   16CHTO    C7 6719   6.488   2.536   6.423  0.0252  0.0624 -0.0772
   16CHTO   H20 6720   6.510   2.602   6.509  1.7334 -3.1967  2.0651
   16CHTO    O4 6721   6.348   2.521   6.410 -0.3862 -0.0066 -0.6928
   16CHTO   C14 6722   6.277   2.638   6.362 -0.1471  0.1103  0.7359
   16CHTO   H27 6723   6.283   2.714   6.442 -0.4382 -0.3638  1.2099
   16CHTO   C18 6724   6.132   2.596   6.352 -0.1124  0.1496  0.2549
   16CHTO   O13 6725   6.049   2.603   6.468  0.1022  0.2960 -0.4380
   16CHTO    H7 6726   6.097   2.569   6.541 -1.6351 -0.6387  0.3000
   16CHTO    O2 6727   6.555   2.384   6.456  0.0961  0.3400  0.2100
   16CHTO    C1 6728   6.550   2.343   6.591 -0.6905 -0.4450  0.3159
   16CHTO   H14 6729   6.475   2.405   6.645 -1.5661 -1.4198  0.2349
   16CHTO    C2 6730   6.693   2.362   6.664  0.0631 -0.6632  0.7076
   16CHTO   H15 6731   6.776   2.323   6.603  0.7730  0.5713  0.8801
   16CHTO    O6 6732   6.733   2.501   6.677 -0.0985 -0.2487 -0.3031
   16CHTO    H1 6733   6.808   2.515   6.623  0.7924 -0.6236  0.8044
   16CHTO    C3 6734   6.691   2.284   6.808 -0.2048  0.1563 -0.0990
   16CHTO   H16 6735   6.631   2.353   6.870 -0.8757  0.1749 -0.7539
   16CHTO    N1 6736   6.825   2.272   6.870  0.7105  0.2218  0.0939
   16CHTO    H8 6737   6.898   2.253   6.793 -0.8249  2.1696 -1.9032
   16CHTO    H9 6738   6.834   2.187   6.936  0.8332  1.3528  1.5636
   16CHTO    C4 6739   6.614   2.142   6.803 -0.2560 -0.0403  0.0955
   16CHTO   H17 6740   6.672   2.067   6.749  0.0624  1.7180 -2.0592
   16CHTO    O1 6741   6.491   2.158   6.735 -0.3943  0.0196 -0.1585
   16CHTO    C5 6742   6.500   2.200   6.597  0.7430  0.0446  0.1099
   16CHTO   H18 6743   6.560   2.137   6.531 -0.4933 -2.5185  1.3147
   16CHTO   C16 6744   6.355   2.187   6.547 -0.7295 -0.3992 -0.5402
   16CHTO   O11 6745   6.295   2.057   6.567 -0.4189 -0.1947 -0.0892
   16CHTO    H5 6746   6.323   2.028   6.651  2.0439 -0.5415 -0.9971
   16CHTO    O3 6747   6.564   2.096   6.926  0.0391  0.6927 -0.1017
   16CHTO    C6 6748   6.635   1.983   6.984  0.0221  0.1297  0.3594
   16CHTO   H19 6749   6.731   1.961   6.936 -0.2568 -1.2693  0.4265
   16CHTO    C8 6750   6.664   2.010   7.133 -0.0756  0.3341  0.1895
   16CHTO   H21 6751   6.572   2.047   7.178 -0.1295  1.4406 -0.8096
   16CHTO    O7 6752   6.765   2.108   7.144  0.3007  0.0957  0.1701
   16CHTO    H2 6753   6.751   2.188   7.097  0.4646  0.1912  0.2824
   16CHTO   C12 6754   6.708   1.887   7.219 -0.6222 -1.3302  0.2965
   16CHTO   H25 6755   6.812   1.865   7.188 -1.4113 -1.2755 -2.4827
   16CHTO    N3 6756   6.708   1.918   7.371  0.0124  0.4123  0.4486
   16CHTO   H12 6757   6.605   1.926   7.402 -0.0642  0.0274  0.2988
   16CHTO   H13 6758   6.741   1.835   7.430 -0.3402  0.8351  1.2481
   16CHTO   C15 6759   6.622   1.764   7.181 -0.2945 -0.3704 -0.0336
   16CHTO   H28 6760   6.522   1.776   7.224  0.4234  1.5255  1.1902
   16CHTO   O10 6761   6.683   1.631   7.235  0.3095  0.0802 -0.3057
   16CHTO    H4 6762   6.677   1.629   7.328  0.9182  1.6583 -0.2181
   16CHTO    O5 6763   6.604   1.748   7.041 -0.2402  0.0336  0.0201
   16CHTO   C10 6764   6.542   1.857   6.976  0.2502 -0.0179  0.2067
   16CHTO   H23 6765   6.449   1.882   7.026  1.4556  2.2865  1.3761
   16CHTO   C17 6766   6.509   1.818   6.830  0.6762  0.4819 -0.2597
   16CHTO   O12 6767   6.405   1.719   6.832  0.2061 -0.4168 -0.6763
   16CHTO    H6 6768   6.322   1.761   6.845  0.9686  0.6058  1.0211
   17CHTO  H203 6769   6.205   6.049   7.804  0.0174  1.9685 -0.4905
   17CHTO   O82 6770   6.291   6.040   7.842 -0.2487 -0.3172 -0.3575
   17CHTO  C123 6771   6.331   6.165   7.904 -0.2051  0.4463 -0.1495
   17CHTO  H227 6772   6.432   6.149   7.943  0.2112  0.7679 -1.0723
   17CHTO   O77 6773   6.346   6.269   7.795 -0.0882  0.0744 -0.4319
   17CHTO  C118 6774   6.387   6.396   7.840 -0.7136 -0.8950 -0.3347
   17CHTO  H222 6775   6.486   6.383   7.885 -0.2615  1.2916 -0.6482
   17CHTO  C125 6776   6.397   6.490   7.713 -0.4804  0.5679  0.7052
   17CHTO   O84 6777   6.274   6.491   7.639 -0.0451 -0.1616  0.1195
   17CHTO  H205 6778   6.257   6.574   7.596  0.5318 -0.5248 -0.8208
   17CHTO  C114 6779   6.283   6.449   7.939 -0.5529  0.1692  0.5261
   17CHTO  H218 6780   6.187   6.445   7.886  1.3472 -1.9010 -2.9708
   17CHTO  C116 6781   6.276   6.353   8.058 -0.0602 -0.0678  0.5577
   17CHTO  H220 6782   6.373   6.339   8.109 -0.2189 -2.5064  0.2579
   17CHTO   O79 6783   6.185   6.417   8.153 -0.6394  0.5081  0.8136
   17CHTO  H201 6784   6.124   6.475   8.111 -2.1655 -0.9145  1.0410
   17CHTO  C120 6785   6.227   6.208   8.011 -0.4498 -0.3395 -0.5273
   17CHTO  H224 6786   6.136   6.221   7.949 -1.2581 -3.0013  0.0627
   17CHTO   N21 6787   6.224   6.120   8.126  0.2693 -0.0142  0.4832
   17CHTO  H211 6788   6.320   6.075   8.143 -0.0616 -1.0063 -0.2059
   17CHTO  H212 6789   6.137   6.057   8.116 -1.0047  2.1660 -3.3642
   17CHTO   O75 6790   6.310   6.589   7.966  0.1683 -0.3260 -0.2671
   17CHTO  C112 6791   6.495   6.614   8.025  0.4653 -0.5796  0.5418
   17CHTO  H216 6792   6.569   6.578   7.952 -0.4187 -1.4728  0.0653
   17CHTO   O73 6793   6.511   6.552   8.151  0.3683  0.3645  0.2886
   17CHTO  C113 6794   6.619   6.578   8.243  0.0145  0.2450 -0.3604
   17CHTO  H217 6795   6.711   6.544   8.192  0.2482 -0.5050  0.5344
   17CHTO  C124 6796   6.605   6.475   8.359 -0.2591 -0.9324 -0.2368
   17CHTO   O83 6797   6.597   6.339   8.309  0.2278 -0.3675  0.1850
   17CHTO  H204 6798   6.681   6.297   8.305  0.4588  0.1164 -0.1947
   17CHTO  C109 6799   6.607   6.729   8.280 -0.5646 -0.1639 -0.9792
   17CHTO  H213 6800   6.511   6.747   8.331 -1.0610 -1.3820 -1.4612
   17CHTO  C110 6801   6.619   6.817   8.146  1.0228  0.1382 -0.5891
   17CHTO  H214 6802   6.722   6.793   8.118  1.8396  1.5910  1.0965
   17CHTO   O78 6803   6.605   6.962   8.163 -0.4202 -0.1606  0.4245
   17CHTO  H200 6804   6.518   6.983   8.192 -0.8957 -1.0093 -0.3579
   17CHTO  C111 6805   6.512   6.772   8.041  0.4159  0.0069  0.2545
   17CHTO  H215 6806   6.417   6.817   8.072 -0.6755  0.3029 -3.3412
   17CHTO   N19 6807   6.537   6.826   7.904 -0.5942 -0.1248 -0.1612
   17CHTO  H207 6808   6.452   6.868   7.852 -0.4866  1.6868  1.0707
   17CHTO  H208 6809   6.630   6.881   7.901 -0.5455 -0.1264  1.1159
   17CHTO   O74 6810   6.716   6.759   8.372 -0.4691  0.3174 -0.4048
   17CHTO  C115 6811   6.655   6.828   8.511  0.1019  0.1464  0.8325
   17CHTO  H219 6812   6.563   6.882   8.488  1.5665  2.4192  0.0908
   17CHTO   O76 6813   6.612   6.718   8.619 -0.6925 -0.2282  0.5917
   17CHTO  C122 6814   6.720   6.666   8.692 -0.5652 -0.6261 -0.4871
   17CHTO  H226 6815   6.792   6.622   8.622  1.0957  1.4898 -0.1696
   17CHTO  C126 6816   6.663   6.548   8.791 -0.0640  0.4589  0.4094
   17CHTO   O85 6817   6.547   6.581   8.865  0.1512  0.7254 -0.7353
   17CHTO  H206 6818   6.515   6.499   8.897  1.0356  0.4677 -0.5133
   17CHTO  C121 6819   6.789   6.780   8.781 -0.6405  0.7232  0.0572
   17CHTO  H225 6820   6.763   6.766   8.888 -4.2867  0.5154 -0.7619
   17CHTO   O81 6821   6.927   6.760   8.782  0.2925  0.1057  0.2323
   17CHTO  H202 6822   6.961   6.823   8.844 -0.2553 -0.7914  1.4689
   17CHTO  C119 6823   6.764   6.923   8.726  0.1462 -0.3582 -0.9146
   17CHTO  H223 6824   6.662   6.950   8.754 -0.2294 -0.5114 -2.0953
   17CHTO  C117 6825   6.767   6.927   8.567  0.4051 -0.4930 -0.4294
   17CHTO  H221 6826   6.860   6.899   8.518  0.4206 -0.3746 -0.4697
   17CHTO   N20 6827   6.742   7.076   8.519 -0.1214 -0.4689 -0.2116
   17CHTO  H209 6828   6.802   7.139   8.583  0.0987 -0.1418 -0.7462
   17CHTO  H210 6829   6.748   7.083   8.412 -1.1236 -0.5056 -0.2715
   17CHTO   O80 6830   6.845   7.026   8.802 -0.5942 -1.0821 -0.4305
   17CHTO  C103 6831   6.794   7.094   8.936 -0.2935 -0.5387 -0.9599
   17CHTO  H190 6832   6.689   7.069   8.949 -0.1183 -1.8757 -1.9882
   17CHTO  C101 6833   6.873   7.048   9.065 -0.0359  0.9127 -0.4514
   17CHTO  H188 6834   6.981   7.059   9.053  0.3785 -0.6697  1.5138
   17CHTO   O68 6835   6.846   6.901   9.095  0.3074 -0.2242 -0.2416
   17CHTO  H168 6836   6.918   6.852   9.131 -0.7410 -1.5209  0.1062
   17CHTO   C99 6837   6.846   7.152   9.186  0.0919 -0.3784 -0.0930
   17CHTO  H186 6838   6.739   7.153   9.214  0.1990 -1.4939  0.3534
   17CHTO   N17 6839   6.920   7.116   9.313 -0.2116 -0.1946 -0.7394
   17CHTO  H174 6840   6.869   7.164   9.396  1.1697  1.3912 -0.7758
   17CHTO  H175 6841   7.025   7.141   9.307 -0.5457  1.2568 -0.9232
   17CHTO   C97 6842   6.877   7.296   9.143 -0.0670 -0.5655 -0.2739
   17CHTO  H184 6843   6.981   7.288   9.108 -0.8057 -1.6586 -2.2948
   17CHTO   O64 6844   6.783   7.332   9.037 -0.1167 -0.0111 -0.2684
   17CHTO  C104 6845   6.796   7.256   8.915  0.3916 -0.8905  0.4215
   17CHTO  H191 6846   6.882   7.284   8.854  1.5019  1.3642  2.8862
   17CHTO  C108 6847   6.674   7.293   8.829 -0.2180 -0.2723  0.3471
   17CHTO   O71 6848   6.661   7.435   8.796 -0.2568  0.0545 -0.0406
   17CHTO  H171 6849   6.592   7.477   8.844 -0.6180 -3.4470  2.7426
   17CHTO   O62 6850   6.853   7.398   9.246  0.0619 -0.4970 -0.6570
   17CHTO   C91 6851   6.911   7.528   9.229  0.3679 -0.1529 -1.0722
   17CHTO  H178 6852   6.983   7.520   9.148  0.4954  2.0632 -1.1967
   17CHTO   C92 6853   6.985   7.556   9.356  0.0957 -0.3563 -0.0093
   17CHTO  H179 6854   7.055   7.475   9.383  0.5548 -0.8769 -2.6322
   17CHTO   O66 6855   7.067   7.673   9.328  0.6841 -0.2355  1.0213
   17CHTO  H166 6856   7.014   7.731   9.277  0.2794  1.0374  2.8293
   17CHTO   C93 6857   6.889   7.585   9.479  1.0087 -0.5206  0.2547
   17CHTO  H180 6858   6.944   7.656   9.543  0.5498 -0.1059  0.1922
   17CHTO   N16 6859   6.868   7.471   9.570 -0.4348 -0.6035 -0.1365
   17CHTO  H172 6860   6.883   7.498   9.673  0.1998 -0.1341 -0.3482
   17CHTO  H173 6861   6.763   7.449   9.557  0.0105 -2.5783 -0.6143
   17CHTO   C94 6862   6.754   7.647   9.433  0.8363 -0.8119 -0.5574
   17CHTO  H181 6863   6.680   7.573   9.402 -1.8221  1.2697  0.6590
   17CHTO   O61 6864   6.773   7.722   9.314  0.4308  0.2326 -0.0639
   17CHTO   C95 6865   6.799   7.634   9.200 -0.6226 -0.2281  0.4741
   17CHTO  H182 6866   6.708   7.581   9.173 -1.3942  0.6871  1.2163
   17CHTO  C106 6867   6.846   7.715   9.083 -0.3309  0.0299  0.8968
   17CHTO   O69 6868   6.835   7.644   8.958  0.1072 -0.0079 -0.3705
   17CHTO  H169 6869   6.743   7.626   8.950 -0.1189  0.3628  1.1575
   17CHTO   O63 6870   6.681   7.745   9.547 -0.5599 -0.2849 -0.5463
   17CHTO   C96 6871   6.533   7.726   9.553 -1.1272 -0.3232 -0.5289
   17CHTO  H183 6872   6.520   7.618   9.562 -1.7497 -0.1490  0.6825
   17CHTO   C98 6873   6.450   7.779   9.431  0.0671 -0.3421  0.2316
   17CHTO  H185 6874   6.487   7.881   9.412 -4.6270  2.4452  4.6835
   17CHTO   O67 6875   6.477   7.704   9.315  0.0432  0.8437  0.0811
   17CHTO  H167 6876   6.407   7.647   9.290  1.9851 -1.3195 -0.6750
   17CHTO  C102 6877   6.291   7.784   9.459 -0.1249 -0.0342 -0.0888
   17CHTO  H189 6878   6.243   7.685   9.459  0.7355 -0.4584  0.8689
   17CHTO   N18 6879   6.218   7.863   9.361 -0.2894  0.0283 -0.1052
   17CHTO  H176 6880   6.169   7.802   9.286  0.4870 -1.0581  0.2598
   17CHTO  H177 6881   6.261   7.954   9.321 -1.0706 -0.2312 -1.5739
   17CHTO  C105 6882   6.264   7.835   9.606  0.4042  0.1304  0.2002
   17CHTO  H192 6883   6.253   7.943   9.609  2.8560  0.4249 -0.3650
   17CHTO   O65 6884   6.337   7.777   9.709  0.0452 -0.8036 -0.0563
   17CHTO  C100 6885   6.481   7.793   9.683 -0.3524 -0.2208 -0.0746
   17CHTO  H187 6886   6.502   7.901   9.675  0.2970 -0.4461 -1.6321
   17CHTO  C107 6887   6.557   7.739   9.810  0.2135 -0.5718 -0.2584
   17CHTO   O70 6888   6.523   7.813   9.931  0.3351 -0.2939  0.1649
   17CHTO  H170 6889   6.547   7.753   9.999 -1.5038  0.8320  1.8791
   17CHTO   O57 6890   6.109   7.784   9.632  0.2670 -0.0840 -0.0260
   17CHTO   C85 6891   6.038   7.875   9.716 -1.0386  0.8766  0.0903
   17CHTO  H157 6892   6.098   7.968   9.712 -0.1185  0.2067 -2.7114
   17CHTO   C83 6893   6.041   7.840   9.863  0.6101  0.6288 -0.2026
   17CHTO  H155 6894   6.147   7.836   9.886  0.3612  1.9530  1.3560
   17CHTO   O56 6895   5.987   7.708   9.873 -0.9653 -0.0109 -0.4034
   17CHTO  H135 6896   5.894   7.717   9.864 -0.7364 -0.3090 -3.7848
   17CHTO   C81 6897   5.979   7.942   9.960  0.9969 -0.1538 -0.3822
   17CHTO  H153 6898   6.030   8.034   9.931  2.8416 -1.6398 -2.0706
   17CHTO   N14 6899   6.004   7.920  10.103  0.0657 -0.2058 -0.0128
   17CHTO  H141 6900   6.037   8.004  10.161  0.1394 -0.9024  0.9785
   17CHTO  H142 6901   6.070   7.837  10.119  1.0937  0.7256  0.6154
   17CHTO   C79 6902   5.831   7.949   9.925  0.9034  0.1088  0.1466
   17CHTO  H151 6903   5.786   8.023   9.991  2.6610 -0.5542  2.1378
   17CHTO   O52 6904   5.813   7.990   9.778  0.0213 -0.9483 -0.1117
   17CHTO   C86 6905   5.884   7.902   9.679 -0.3500 -0.3102 -0.0312
   17CHTO  H158 6906   5.833   7.804   9.680  1.5933 -1.4171 -2.5680
   17CHTO   C90 6907   5.861   7.960   9.539 -0.4562  0.5953  0.2765
   17CHTO   O60 6908   5.895   7.880   9.428 -0.1406  0.3583 -0.2922
   17CHTO  H138 6909   5.897   7.925   9.346 -0.8403  1.4256  0.2799
   17CHTO   O50 6910   5.763   7.827   9.959 -0.0622  0.1221 -0.0524
   17CHTO   C73 6911   5.647   7.768  10.001 -0.3678 -0.9085 -0.8914
   17CHTO  H145 6912   5.580   7.843  10.045  1.3431  0.2933 -0.3093
   17CHTO   C74 6913   5.689   7.674  10.117  0.2820 -0.5760 -0.2632
   17CHTO  H146 6914   5.754   7.736  10.180 -0.4500  0.1771 -0.2343
   17CHTO   O54 6915   5.568   7.662  10.184  1.0385 -0.2395 -0.2005
   17CHTO  H133 6916   5.581   7.649  10.276  2.1041  0.0991 -0.2943
   17CHTO   C75 6917   5.760   7.549  10.055 -0.9109 -0.5467  0.3516
   17CHTO  H147 6918   5.859   7.583  10.022  0.2570 -0.4853  3.7059
   17CHTO   N13 6919   5.794   7.446  10.158  0.6317 -0.7151 -0.3267
   17CHTO  H139 6920   5.816   7.358  10.099 -2.1720 -1.1153 -0.8275
   17CHTO  H140 6921   5.704   7.427  10.213 -0.1761  0.4200 -1.2198
   17CHTO   C76 6922   5.686   7.489   9.919  0.2136  0.1045  0.4514
   17CHTO  H148 6923   5.594   7.435   9.936  0.5559 -1.6697 -2.9584
   17CHTO   O49 6924   5.656   7.593   9.826 -0.1400  0.2403  0.3564
   17CHTO   C77 6925   5.572   7.694   9.884  0.9073  0.1686  0.3368
   17CHTO  H149 6926   5.481   7.645   9.919 -0.1068  2.1735  0.5458
   17CHTO   C88 6927   5.530   7.792   9.774  0.6173  0.1281 -0.4377
   17CHTO   O58 6928   5.459   7.870   9.805 -0.0694 -0.5401  0.1115
   17CHTO  H136 6929   5.422   7.918   9.734  0.1136 -0.5189  0.0316
   17CHTO   O51 6930   5.805   7.390   9.817 -0.9173  0.2709 -0.0978
   17CHTO   C78 6931   5.732   7.348   9.685 -0.1716 -0.3792 -1.3554
   17CHTO  H150 6932   5.632   7.393   9.672 -0.2426 -0.4497 -1.0642
   17CHTO   C80 6933   5.705   7.193   9.689  0.0477 -0.0337  0.5723
   17CHTO  H152 6934   5.802   7.139   9.700  0.4773  0.2986 -1.3363
   17CHTO   O55 6935   5.617   7.168   9.800 -0.2018  0.0613  0.4880
   17CHTO  H134 6936   5.608   7.076   9.818 -0.6499  0.0811  0.3622
   17CHTO   C84 6937   5.646   7.150   9.549 -0.4275 -0.1282  0.2845
   17CHTO  H156 6938   5.547   7.195   9.538  0.1173  0.7138 -1.3846
   17CHTO   N15 6939   5.624   7.005   9.553  0.5671  0.2747  0.7253
   17CHTO  H143 6940   5.607   6.966   9.650 -1.5946  0.0397  0.2592
   17CHTO  H144 6941   5.707   6.955   9.506  0.2161  0.3098  0.0570
   17CHTO   C87 6942   5.744   7.192   9.436  0.0210 -0.3583 -0.1022
   17CHTO  H159 6943   5.839   7.147   9.467 -0.4231 -0.1228  1.6774
   17CHTO   O53 6944   5.760   7.340   9.447 -0.1305  0.0534  0.2744
   17CHTO   C82 6945   5.817   7.392   9.571 -0.8431 -0.3341  0.2086
   17CHTO  H154 6946   5.918   7.352   9.576 -0.6505  0.1419  0.1292
   17CHTO   C89 6947   5.826   7.543   9.553  0.7491 -0.2134 -0.1269
   17CHTO   O59 6948   5.917   7.575   9.446 -0.9746  0.1105 -0.4076
   17CHTO  H137 6949   5.937   7.665   9.434  0.9557 -0.4831 -1.9257
   17CHTO   O45 6950   5.693   7.150   9.282  0.1824 -0.2835 -0.4476
   17CHTO   C67 6951   5.804   7.108   9.198 -0.4581  0.5407  0.4878
   17CHTO  H124 6952   5.899   7.088   9.248  1.5540  0.8709 -3.0504
   17CHTO   C65 6953   5.768   6.982   9.114 -0.6590  0.0618  0.0979
   17CHTO  H122 6954   5.691   6.928   9.169 -0.2795 -1.0511 -0.4343
   17CHTO   O44 6955   5.873   6.884   9.077 -0.7757 -0.5308 -0.6501
   17CHTO  H102 6956   5.841   6.813   9.026  1.4569 -2.6580  0.7835
   17CHTO   C63 6957   5.676   7.026   8.992  0.1746 -0.1690  0.2302
   17CHTO  H120 6958   5.606   7.099   9.032  0.6151 -0.3136  1.2905
   17CHTO   N11 6959   5.587   6.930   8.918 -0.4572 -0.2840  0.0675
   17CHTO  H108 6960   5.484   6.957   8.921 -0.1089  1.0195  0.7955
   17CHTO  H109 6961   5.605   6.829   8.950 -0.1708 -0.2350  0.0680
   17CHTO   C61 6962   5.773   7.108   8.900 -0.2616 -1.1665 -0.6020
   17CHTO  H118 6963   5.714   7.176   8.837  0.2337 -0.8113 -0.6847
   17CHTO   O40 6964   5.869   7.195   8.971  0.3099 -0.0287 -0.4136
   17CHTO   C68 6965   5.829   7.239   9.102  0.7455 -0.2025 -0.6668
   17CHTO  H125 6966   5.736   7.297   9.084  0.3567 -0.5236  0.2845
   17CHTO   C72 6967   5.937   7.335   9.151 -0.1891  0.6718  0.6007
   17CHTO   O48 6968   5.932   7.458   9.077 -0.0626 -0.0560 -0.2597
   17CHTO  H105 6969   5.997   7.518   9.110 -0.4241 -0.2563  0.8395
   17CHTO   O38 6970   5.864   7.032   8.813  0.0767  0.3335  0.3912
   17CHTO   C55 6971   5.897   7.066   8.674 -0.7230  0.0946  0.3080
   17CHTO  H112 6972   5.985   7.000   8.658 -0.2391  1.4491 -3.1690
   17CHTO   C56 6973   5.939   7.219   8.644 -0.7002 -0.0112  0.1457
   17CHTO  H113 6974   5.859   7.286   8.680 -0.0488  0.8984 -0.0976
   17CHTO   O42 6975   6.052   7.280   8.710  0.0103  0.2325 -0.0551
   17CHTO  H100 6976   6.031   7.277   8.802 -0.3451  0.4927 -0.1284
   17CHTO   C57 6977   5.966   7.232   8.487  0.6369 -0.3479 -0.5994
   17CHTO  H114 6978   6.056   7.176   8.465  2.7632  2.3996  0.8100
   17CHTO   N10 6979   5.979   7.374   8.437  0.1587 -0.7548 -1.1826
   17CHTO  H106 6980   6.021   7.369   8.338  1.2039 -2.8493 -0.6664
   17CHTO  H107 6981   6.049   7.429   8.499  0.2255  0.2354 -2.1247
   17CHTO   C58 6982   5.853   7.166   8.405 -0.6466  0.0707  0.1513
   17CHTO  H115 6983   5.758   7.218   8.427 -1.1261 -0.8427  0.2147
   17CHTO   O37 6984   5.833   7.025   8.442 -0.0436 -0.1789 -0.5396
   17CHTO   C59 6985   5.785   7.016   8.576  0.1825  0.0390 -0.0227
   17CHTO  H116 6986   5.694   7.071   8.599 -0.6718 -2.2629  2.2698
   17CHTO   C70 6987   5.732   6.873   8.597  0.7403 -0.3642 -0.4709
   17CHTO   O46 6988   5.622   6.843   8.509 -0.0301 -0.7578 -0.4762
   17CHTO  H103 6989   5.634   6.762   8.463  0.8238  0.6736 -2.8655
   17CHTO   O39 6990   5.878   7.165   8.237  0.4398 -0.0135  0.2929
   17CHTO   C60 6991   5.805   7.264   8.156 -0.2892  0.2620 -0.1050
   17CHTO  H117 6992   5.752   7.334   8.221 -1.0172 -0.7021  0.3483
   17CHTO   C62 6993   5.897   7.369   8.071 -0.0786  0.6127  0.2760
   17CHTO  H119 6994   5.970   7.412   8.142  0.3691  0.8594 -0.3315
   17CHTO   O43 6995   5.971   7.306   7.964  0.7452 -0.4481  0.4644
   17CHTO  H101 6996   6.051   7.266   7.992  0.7317 -0.5521  0.3540
   17CHTO   C66 6997   5.810   7.494   8.021 -0.9739 -0.2092  0.5050
   17CHTO  H123 6998   5.756   7.531   8.109  0.3868  1.1038  0.8118
   17CHTO   N12 6999   5.890   7.614   7.979 -0.6232 -0.2608  0.4189
   17CHTO  H110 7000   5.832   7.705   7.977  1.3400  1.0146 -0.2763
   17CHTO  H111 7001   5.971   7.610   7.908  0.7103 -0.9405  1.9329
   17CHTO   C69 7002   5.697   7.451   7.920  0.2452  0.6680  0.1551
   17CHTO  H126 7003   5.748   7.396   7.838 -3.0233  0.1984 -1.6342
   17CHTO   O41 7004   5.610   7.327   7.993 -0.3697  0.0233  0.2096
   17CHTO   C64 7005   5.701   7.206   8.057 -0.0572 -0.1828  0.0619
   17CHTO  H121 7006   5.755   7.151   7.978 -0.2731 -0.4523  0.1031
   17CHTO   C71 7007   5.609   7.113   8.135 -0.0863  0.2550 -0.0028
   17CHTO   O47 7008   5.498   7.061   8.059 -0.0053  0.6333  0.3057
   17CHTO  H104 7009   5.419   7.111   8.053 -1.5694 -1.8353 -0.5346
   17CHTO   O34 7010   5.614   7.563   7.867 -0.6899  0.0305  0.0439
   17CHTO   C49 7011   5.535   7.644   7.756  0.2944  0.5499  0.6960
   17CHTO   H91 7012   5.601   7.723   7.721 -0.9248  0.4071 -2.0397
   17CHTO   C47 7013   5.414   7.717   7.824  0.5061  0.0796  0.0159
   17CHTO   H89 7014   5.349   7.757   7.743  0.2171  0.8512  0.6219
   17CHTO   O33 7015   5.451   7.822   7.916 -0.3261 -0.0406  0.2870
   17CHTO   H70 7016   5.526   7.871   7.890  2.4034 -4.1248  0.0829
   17CHTO   C45 7017   5.318   7.604   7.886  0.1879 -0.3148  0.8102
   17CHTO   H87 7018   5.349   7.591   7.991  0.9037  2.9705  1.0631
   17CHTO    N8 7019   5.177   7.647   7.890 -0.3114  0.5827  0.1391
   17CHTO   H75 7020   5.162   7.753   7.880 -3.7967  0.1072 -0.4805
   17CHTO   H76 7021   5.106   7.595   7.827 -0.8339  1.0636  0.3274
   17CHTO   C43 7022   5.343   7.460   7.819 -0.1815 -0.4495  0.7312
   17CHTO   H85 7023   5.424   7.417   7.878  1.2672 -0.7371 -1.4099
   17CHTO   O29 7024   5.376   7.467   7.680  0.5168  0.0617 -0.4683
   17CHTO   C50 7025   5.486   7.547   7.640  0.1189  0.3649  0.0021
   17CHTO   H92 7026   5.567   7.475   7.624 -0.0834  0.7414 -2.9315
   17CHTO   C54 7027   5.448   7.618   7.510 -0.6832  0.0482 -0.0731
   17CHTO   O36 7028   5.540   7.711   7.459 -0.5204 -0.2798  0.2813
   17CHTO   H72 7029   5.619   7.665   7.437  0.4911  0.7740  1.6168
   17CHTO   O27 7030   5.237   7.362   7.829 -0.0820  0.0429  0.2042
   17CHTO   C37 7031   5.254   7.223   7.868 -0.6403  0.0391  0.3776
   17CHTO   H79 7032   5.313   7.222   7.960 -0.6933  0.3056  0.4145
   17CHTO   C38 7033   5.115   7.161   7.904  0.1225  0.0701 -0.6335
   17CHTO   H80 7034   5.042   7.193   7.828 -0.4261 -0.9579 -0.5429
   17CHTO   O31 7035   5.076   7.226   8.028 -0.5022 -0.3878 -0.7326
   17CHTO   H68 7036   4.989   7.209   8.058 -0.2201  1.6749  1.3996
   17CHTO   C39 7037   5.113   7.000   7.925 -0.0666  0.6305  0.3384
   17CHTO   H81 7038   5.174   6.987   8.015 -0.0827 -1.0136  0.1134
   17CHTO    N7 7039   4.976   6.944   7.940 -0.1952 -0.1286 -0.7435
   17CHTO   H73 7040   4.960   6.837   7.943  2.6681 -0.6657 -3.0293
   17CHTO   H74 7041   4.896   7.010   7.909 -0.9903 -1.6949 -2.1007
   17CHTO   C40 7042   5.182   6.937   7.797 -0.2530  0.5905 -0.0667
   17CHTO   H82 7043   5.115   6.936   7.710  0.3392 -0.6080 -0.5121
   17CHTO   O26 7044   5.315   7.000   7.775  0.1936  0.2385  0.1324
   17CHTO   C41 7045   5.323   7.144   7.752 -0.1341 -0.1383  0.1469
   17CHTO   H83 7046   5.278   7.170   7.655 -0.8079 -1.0041  0.2180
   17CHTO   C52 7047   5.475   7.182   7.729  0.1051 -0.4565 -0.4415
   17CHTO   O35 7048   5.531   7.108   7.670  0.4267 -0.5464  0.6387
   17CHTO   H71 7049   5.622   7.103   7.694  0.4359 -2.1365  0.3427
   17CHTO   O28 7050   5.218   6.799   7.817  0.8082 -0.1246 -0.0842
   17CHTO   C42 7051   5.341   6.738   7.881 -0.0418 -0.8250 -0.4692
   17CHTO   H84 7052   5.327   6.630   7.873 -0.0991 -0.8519  0.0072
   17CHTO   C44 7053   5.352   6.767   8.032 -0.3904 -0.0404 -0.4152
   17CHTO   H86 7054   5.367   6.874   8.047 -2.0696 -0.2962  3.8427
   17CHTO   O32 7055   5.222   6.734   8.082  0.6448  0.0961  0.0245
   17CHTO   H69 7056   5.185   6.661   8.038 -3.6923  2.0894  0.0994
   17CHTO   C48 7057   5.465   6.678   8.103 -1.2048 -0.0209  0.0210
   17CHTO   H90 7058   5.456   6.571   8.087 -1.3378 -0.1033  0.6216
   17CHTO    N9 7059   5.479   6.696   8.248  0.0122 -0.4711 -0.3374
   17CHTO   H77 7060   5.552   6.769   8.276 -0.2934 -0.4970  0.5439
   17CHTO   H78 7061   5.383   6.691   8.297  0.0278 -0.4391 -0.3034
   17CHTO   C51 7062   5.598   6.701   8.023 -0.0842  0.5204 -0.6287
   17CHTO   H93 7063   5.616   6.806   8.043  2.9096 -0.0565 -0.1238
   17CHTO   O30 7064   5.569   6.673   7.890  0.3693 -0.1394  0.4704
   17CHTO   C46 7065   5.485   6.768   7.823 -0.1112 -0.3464  0.5746
   17CHTO   H88 7066   5.518   6.869   7.849  1.5490 -0.5813 -0.5620
   17CHTO   C53 7067   5.494   6.742   7.667  0.1682  0.4735  0.3496
   17CHTO   O72 7068   5.618   6.789   7.619  0.0809 -0.1585 -0.3553
   17CHTO  H199 7069   5.609   6.877   7.588  0.0975  0.0350  0.1685
   17CHTO   O22 7070   5.713   6.624   8.060  0.0979 -0.4083  0.3391
   17CHTO   C31 7071   5.842   6.690   8.044  0.1482  0.4773  0.4536
   17CHTO   H59 7072   5.918   6.610   8.056  0.6264  0.7490 -0.7851
   17CHTO   C29 7073   5.863   6.756   7.904  0.3926 -0.0106  0.1830
   17CHTO   H57 7074   5.778   6.824   7.888 -2.3765 -3.5125 -0.5848
   17CHTO   O21 7075   5.845   6.656   7.803  0.4755  0.0819  0.1820
   17CHTO   H37 7076   5.853   6.691   7.717 -0.4345 -0.8408 -0.2896
   17CHTO   C27 7077   6.006   6.828   7.894  0.4716  0.6931 -0.5302
   17CHTO   H55 7078   6.087   6.754   7.899 -0.8554 -0.9060 -1.8809
   17CHTO    N5 7079   6.023   6.902   7.768 -0.4053  0.2741 -0.8745
   17CHTO   H43 7080   5.992   7.004   7.787 -1.5189 -0.2220 -0.0053
   17CHTO   H44 7081   5.976   6.855   7.683  2.3999 -2.2489 -1.0960
   17CHTO   C25 7082   6.028   6.909   8.025 -0.6751 -0.2783 -0.2829
   17CHTO   H53 7083   5.978   7.007   8.018  0.3870  0.4254  1.5236
   17CHTO   O17 7084   5.997   6.851   8.155 -0.5085  0.4500 -0.0514
   17CHTO   C32 7085   5.867   6.791   8.162 -0.3443  0.1046 -0.3639
   17CHTO   H60 7086   5.797   6.873   8.147 -1.3530 -1.0702 -2.2303
   17CHTO   C36 7087   5.869   6.724   8.298 -0.0977  0.2464 -0.6184
   17CHTO   O25 7088   5.979   6.624   8.304  0.2929 -0.4106 -0.0896
   17CHTO   H40 7089   6.063   6.663   8.289 -0.9199  1.9558 -1.1327
   17CHTO   O15 7090   6.171   6.950   8.034 -0.3070 -0.3502  0.4427
   17CHTO   C19 7091   6.264   7.067   8.033 -0.1607  0.4794 -0.0998
   17CHTO   H47 7092   6.361   7.020   8.051  0.3226  0.2248 -3.0647
   17CHTO   C20 7093   6.285   7.156   7.911 -0.4939 -0.1930 -0.9967
   17CHTO   H48 7094   6.187   7.192   7.877 -1.7780 -2.6074  0.0594
   17CHTO   O19 7095   6.338   7.075   7.806 -0.2165  0.3707  0.2916
   17CHTO   H35 7096   6.325   7.112   7.721  0.7225 -3.8095 -1.7955
   17CHTO   C21 7097   6.386   7.278   7.933  0.1466 -0.5768 -0.0261
   17CHTO   H49 7098   6.484   7.237   7.957  0.6989  2.8973  4.1033
   17CHTO    N4 7099   6.397   7.373   7.820 -0.2649  0.0966  0.0326
   17CHTO   H41 7100   6.459   7.332   7.742  0.4942  1.1646  0.0479
   17CHTO   H42 7101   6.299   7.388   7.779 -0.2017 -1.1031 -0.5722
   17CHTO   C22 7102   6.351   7.348   8.063 -0.0519  0.9997  0.3441
   17CHTO   H50 7103   6.252   7.387   8.040 -1.1247 -1.0802  1.3831
   17CHTO   O14 7104   6.338   7.254   8.171 -0.9863 -0.1375  0.1126
   17CHTO   C23 7105   6.235   7.152   8.152 -0.8641  0.0020  0.4136
   17CHTO   H51 7106   6.142   7.209   8.138 -1.2786 -0.8588 -0.4688
   17CHTO   C34 7107   6.238   7.067   8.281  0.0073 -0.6870 -0.1825
   17CHTO   O23 7108   6.369   7.017   8.315 -0.5030 -0.9975  0.8303
   17CHTO   H38 7109   6.379   6.949   8.251 -3.1209 -1.3439  0.7289
   17CHTO   O16 7110   6.438   7.451   8.101 -0.4162 -0.4576  0.2496
   17CHTO   C24 7111   6.385   7.557   8.198 -0.0683 -0.5350  0.6139
   17CHTO   H52 7112   6.279   7.544   8.217 -0.8391 -0.2689 -3.1678
   17CHTO   C26 7113   6.397   7.696   8.138  0.1543  0.2054  0.4197
   17CHTO   H54 7114   6.504   7.719   8.119  0.1666  0.8411  1.2103
   17CHTO   O20 7115   6.332   7.689   8.012 -0.7731 -0.2790  0.3812
   17CHTO   H36 7116   6.387   7.730   7.948 -0.3463 -2.5274 -0.7317
   17CHTO   C30 7117   6.334   7.800   8.236  0.3681  0.1244  0.6183
   17CHTO   H58 7118   6.225   7.787   8.228  0.8202 -2.1639 -3.2200
   17CHTO    N6 7119   6.362   7.938   8.187 -0.0238  0.4665  0.3113
   17CHTO   H45 7120   6.315   7.966   8.094 -0.6780  0.7697  0.7312
   17CHTO   H46 7121   6.329   7.999   8.269 -0.3381 -0.0062  0.5410
   17CHTO   C33 7122   6.373   7.788   8.387 -0.6339 -0.0161  0.2090
   17CHTO   H61 7123   6.462   7.850   8.409 -1.9617  1.8579  0.3652
   17CHTO   O18 7124   6.401   7.651   8.421  0.0284 -0.0638 -0.2041
   17CHTO   C28 7125   6.458   7.555   8.331  0.1961  0.1560 -0.3898
   17CHTO   H56 7126   6.566   7.566   8.315  0.1939  0.9048  0.0673
   17CHTO   C35 7127   6.450   7.413   8.395  0.1410  0.0722  0.3224
   17CHTO   O24 7128   6.346   7.394   8.486  0.2063 -0.3372 -0.0623
   17CHTO   H39 7129   6.345   7.304   8.512  1.3198  0.0184  1.2256
   17CHTO    O9 7130   6.268   7.839   8.470  0.0426 -0.5444  0.2451
   17CHTO   C13 7131   6.289   7.820   8.615 -0.7309 -0.4142 -0.6676
   17CHTO   H26 7132   6.398   7.815   8.635 -1.1501 -2.1780  1.3535
   17CHTO   C11 7133   6.220   7.687   8.662 -0.7877 -0.1091  0.2287
   17CHTO   H24 7134   6.285   7.604   8.632  0.1357  0.3762  0.8518
   17CHTO    O8 7135   6.086   7.675   8.607  0.7215  0.1832 -0.5059
   17CHTO    H3 7136   6.075   7.706   8.519  0.5041 -0.1883 -0.6125
   17CHTO    C9 7137   6.210   7.684   8.817 -0.6383 -0.4031  0.4126
   17CHTO   H22 7138   6.313   7.710   8.846  0.0816 -1.7159 -0.8998
   17CHTO    N2 7139   6.203   7.549   8.877  0.2668  0.6000 -0.6010
   17CHTO   H10 7140   6.286   7.487   8.847 -0.0029  1.0556 -2.3778
   17CHTO   H11 7141   6.113   7.491   8.867  0.0496  0.6549  1.0131
   17CHTO    C7 7142   6.114   7.789   8.868 -0.0058  0.1486  0.3637
   17CHTO   H20 7143   6.116   7.794   8.978 -1.6626 -0.5811  0.4454
   17CHTO    O4 7144   6.160   7.916   8.823  0.2601  0.2303 -0.6229
   17CHTO   C14 7145   6.236   7.938   8.704 -0.0154 -0.1706 -0.1363
   17CHTO   H27 7146   6.328   7.989   8.739  0.2599 -0.8187  0.0821
   17CHTO   C18 7147   6.154   8.048   8.630 -0.1063 -0.2437  0.5452
   17CHTO   O13 7148   6.025   8.014   8.584 -0.0245  0.0081  0.3132
   17CHTO    H7 7149   6.040   7.959   8.510  4.7102  1.4992  0.0467
   17CHTO    O2 7150   5.968   7.772   8.822 -0.6101  0.6047 -0.4918
   17CHTO    C1 7151   5.865   7.732   8.910 -0.3055 -0.0928  0.3704
   17CHTO   H14 7152   5.913   7.676   8.993  0.8623  0.4800  0.0999
   17CHTO    C2 7153   5.768   7.639   8.834 -0.1061  0.1765 -0.2507
   17CHTO   H15 7154   5.731   7.701   8.751  0.3161  2.1662  1.0297
   17CHTO    O6 7155   5.846   7.526   8.788 -0.0104  0.4964 -0.0520
   17CHTO    H1 7156   5.799   7.481   8.721  1.0499  1.4766 -1.4695
   17CHTO    C3 7157   5.648   7.592   8.936  0.2785  0.1612  0.6994
   17CHTO   H16 7158   5.695   7.536   9.019  1.5641  0.4989  0.2082
   17CHTO    N1 7159   5.549   7.504   8.865 -0.1859 -0.2208 -0.2708
   17CHTO    H8 7160   5.616   7.442   8.808 -1.5184 -1.3006 -0.7097
   17CHTO    H9 7161   5.500   7.451   8.946 -0.0189 -0.9066 -0.6174
   17CHTO    C4 7162   5.582   7.725   8.992  0.3013  0.1829 -0.2516
   17CHTO   H17 7163   5.523   7.764   8.909  0.7983  0.5267 -0.4411
   17CHTO    O1 7164   5.671   7.811   9.047  0.2613 -0.1276  0.6208
   17CHTO    C5 7165   5.781   7.856   8.972  0.2104  0.1108 -0.8489
   17CHTO   H18 7166   5.752   7.911   8.883  0.2850  1.3451 -0.1215
   17CHTO   C16 7167   5.869   7.952   9.064 -0.5249  0.2051 -0.9309
   17CHTO   O11 7168   5.912   8.065   8.978  0.0820 -0.4838 -0.5832
   17CHTO    H5 7169   5.883   8.147   9.012 -1.7603 -1.9038  1.4328
   17CHTO    O3 7170   5.486   7.695   9.103  0.2733  0.6474  0.3831
   17CHTO    C6 7171   5.381   7.792   9.126 -0.2341 -0.3079 -0.2523
   17CHTO   H19 7172   5.408   7.888   9.083 -0.0282 -0.0493  0.4463
   17CHTO    C8 7173   5.244   7.757   9.046 -0.0812 -0.1721  0.0046
   17CHTO   H21 7174   5.207   7.664   9.087  1.7963 -0.8845  0.1509
   17CHTO    O7 7175   5.270   7.756   8.898 -0.6375  0.3855  0.4908
   17CHTO    H2 7176   5.189   7.748   8.851  0.7295 -0.8951 -1.7388
   17CHTO   C12 7177   5.135   7.870   9.074 -0.0230 -0.2899 -0.2397
   17CHTO   H25 7178   5.179   7.958   9.023 -0.0097 -0.9378 -1.3569
   17CHTO    N3 7179   4.996   7.835   9.010  0.2058 -0.0774 -0.3161
   17CHTO   H12 7180   5.004   7.797   8.909  0.3688  0.4091 -0.4872
   17CHTO   H13 7181   4.925   7.915   9.024 -0.7160 -0.3934 -2.9942
   17CHTO   C15 7182   5.130   7.901   9.228 -0.1244 -0.8845  0.2302
   17CHTO   H28 7183   5.085   7.819   9.284 -1.8113  1.0676  1.8196
   17CHTO   O10 7184   5.045   8.042   9.257  0.4370 -0.5479 -0.8595
   17CHTO    H4 7185   5.108   8.111   9.254  1.1121 -1.2109 -2.5413
   17CHTO    O5 7186   5.254   7.922   9.293 -0.3222 -0.4122  0.1487
   17CHTO   C10 7187   5.350   7.817   9.272 -0.4008 -0.8101 -0.4889
   17CHTO   H23 7188   5.324   7.726   9.327 -0.2279 -0.6824 -0.1944
   17CHTO   C17 7189   5.477   7.865   9.341  0.6552 -0.4498 -0.1045
   17CHTO   O12 7190   5.457   7.908   9.479  0.4150 -0.3186  0.4815
   17CHTO    H6 7191   5.411   7.842   9.526 -1.0164 -0.7742 -1.4739
   18CHTO  H203 7192   5.780   8.525  10.597 -0.4748 -0.4772 -1.4763
   18CHTO   O82 7193   5.752   8.451  10.647 -0.0743  0.3592  0.0083
   18CHTO  C123 7194   5.861   8.366  10.691  0.5128  0.0454  0.8825
   18CHTO  H227 7195   5.822   8.290  10.760  3.2196 -2.5099 -0.2804
   18CHTO   O77 7196   5.902   8.300  10.569  0.5596  0.1917 -0.6204
   18CHTO  C118 7197   5.989   8.188  10.594  0.6006 -0.3575  1.2645
   18CHTO  H222 7198   5.954   8.124  10.676 -0.9848 -0.3066  0.6367
   18CHTO  C125 7199   6.012   8.098  10.465 -0.0510  0.2213 -0.2883
   18CHTO   O84 7200   5.890   8.031  10.431  0.2526  0.1330 -0.2458
   18CHTO  H205 7201   5.899   8.006  10.341  1.9776  1.2491 -0.3977
   18CHTO  C114 7202   6.124   8.240  10.655 -0.3659 -0.2338 -0.1564
   18CHTO  H218 7203   6.181   8.300  10.584  1.8733 -0.0590  1.7388
   18CHTO  C116 7204   6.091   8.330  10.784 -0.3315  0.5002 -0.4573
   18CHTO  H220 7205   6.083   8.266  10.874 -0.8493  3.0592  1.3787
   18CHTO   O79 7206   6.215   8.396  10.816  0.2251  0.2627  0.5177
   18CHTO  H201 7207   6.208   8.475  10.865 -2.4520  0.7551 -0.5562
   18CHTO  C120 7208   5.981   8.443  10.761  0.4003  0.5447  0.0212
   18CHTO  H224 7209   6.031   8.521  10.701 -0.8165  0.3540 -1.2869
   18CHTO   N21 7210   5.944   8.502  10.891  0.2125 -0.0972 -0.0609
   18CHTO  H211 7211   5.846   8.462  10.913 -0.2589  1.2185  0.2800
   18CHTO  H212 7212   5.927   8.607  10.874 -2.2270 -0.3160  0.9124
   18CHTO   O75 7213   6.204   8.125  10.682 -0.3508 -0.4587  0.3515
   18CHTO  C112 7214   6.357   8.135  10.706 -0.1737  0.5701  0.9124
   18CHTO  H216 7215   6.370   8.161  10.812  0.1574 -2.3101  1.6185
   18CHTO   O73 7216   6.398   8.236  10.618  0.4375  0.0022  0.4264
   18CHTO  C113 7217   6.537   8.269  10.636 -0.8745 -0.1080  0.2898
   18CHTO  H217 7218   6.552   8.300  10.742  1.0720 -1.5839  0.4608
   18CHTO  C124 7219   6.566   8.402  10.572  0.3224  0.0353 -0.5313
   18CHTO   O83 7220   6.480   8.498  10.631  0.7595 -0.4689  0.7679
   18CHTO  H204 7221   6.527   8.564  10.678  0.9422  0.6961 -1.0079
   18CHTO  C109 7222   6.632   8.151  10.586 -0.5245 -0.4032 -0.5161
   18CHTO  H213 7223   6.613   8.137  10.479 -2.0048  1.3926 -0.5062
   18CHTO  C110 7224   6.585   8.022  10.661 -0.2814 -0.1873  0.0437
   18CHTO  H214 7225   6.637   8.030  10.757  1.3190 -2.5128 -0.5929
   18CHTO   O78 7226   6.645   7.904  10.596 -0.5010 -0.1090 -0.1999
   18CHTO  H200 7227   6.642   7.907  10.503  2.7842  1.9460 -0.2890
   18CHTO  C111 7228   6.428   8.002  10.671 -0.3935 -0.3382  0.2514
   18CHTO  H215 7229   6.396   7.975  10.569 -0.1846  1.1821 -0.2325
   18CHTO   N19 7230   6.393   7.887  10.761 -0.0166 -0.7976 -0.4982
   18CHTO  H207 7231   6.290   7.868  10.735 -0.2483 -0.1564 -0.0714
   18CHTO  H208 7232   6.466   7.809  10.746  0.7004 -0.6242  1.9341
   18CHTO   O74 7233   6.778   8.173  10.591  0.0124 -0.3766 -0.1219
   18CHTO  C115 7234   6.855   8.105  10.480 -0.6322 -0.5944  0.1998
   18CHTO  H219 7235   6.818   8.004  10.460 -0.2590 -0.3042 -1.9929
   18CHTO   O76 7236   6.850   8.190  10.341  0.5092  0.1266 -0.4282
   18CHTO  C122 7237   6.922   8.312  10.362  1.0711  0.0788  0.4434
   18CHTO  H226 7238   6.893   8.351  10.460  0.0894 -2.2308  1.1123
   18CHTO  C126 7239   6.903   8.429  10.262 -0.0706 -0.2405  0.1971
   18CHTO   O85 7240   6.958   8.557  10.313 -0.0213 -0.3764 -0.0959
   18CHTO  H206 7241   7.048   8.554  10.339 -0.2819  1.3950  1.1396
   18CHTO  C121 7242   7.076   8.283  10.368 -0.2592  0.1069 -0.8567
   18CHTO  H225 7243   7.123   8.310  10.272  0.9295  1.1346 -0.0040
   18CHTO   O81 7244   7.137   8.354  10.475  0.1413  0.0558 -0.1081
   18CHTO  H202 7245   7.153   8.442  10.447  4.0936 -1.6296 -3.6097
   18CHTO  C119 7246   7.105   8.135  10.405  0.3966  0.5485  0.5381
   18CHTO  H223 7247   7.073   8.076  10.319 -0.7829  0.7755  0.8058
   18CHTO  C117 7248   7.006   8.087  10.521  0.2889  0.1162 -0.4467
   18CHTO  H221 7249   7.032   8.138  10.614  0.6559 -1.2614  0.2190
   18CHTO   N20 7250   7.052   7.943  10.547 -0.2554  0.1527 -0.1450
   18CHTO  H209 7251   7.020   7.890  10.459  1.4046 -1.4754  0.2077
   18CHTO  H210 7252   7.011   7.896  10.635  0.8433  0.5121  0.5647
   18CHTO   O80 7253   7.267   8.103  10.411 -0.6769 -0.4134  0.6542
   18CHTO  C103 7254   7.344   8.068  10.258 -0.2229  0.2739  0.1487
   18CHTO  H190 7255   7.440   8.020  10.274 -0.1340  0.7662  1.1071
   18CHTO  C101 7256   7.259   7.969  10.169  0.5716  0.5691 -0.2793
   18CHTO  H188 7257   7.165   8.012  10.135  0.4304  0.3328 -0.1919
   18CHTO   O68 7258   7.233   7.849  10.249 -0.3512 -0.0260  0.0208
   18CHTO  H168 7259   7.301   7.785  10.239 -0.9237 -0.7253  0.5194
   18CHTO   C99 7260   7.338   7.937  10.033  0.1743  0.1534 -0.6309
   18CHTO  H186 7261   7.434   7.890  10.062  0.1401 -0.2364 -1.1573
   18CHTO   N17 7262   7.276   7.843   9.934 -0.2006 -0.1188  0.4890
   18CHTO  H174 7263   7.172   7.834   9.963 -1.5935  0.3853 -3.9393
   18CHTO  H175 7264   7.327   7.748   9.929 -2.8507 -1.5855  0.1070
   18CHTO   C97 7265   7.367   8.074   9.967 -0.5806 -0.0857 -0.2094
   18CHTO  H184 7266   7.274   8.121   9.931 -1.5461 -0.8712  1.1760
   18CHTO   O64 7267   7.446   8.164  10.055 -0.3801  0.0608  0.0765
   18CHTO  C104 7268   7.375   8.195  10.178  0.9860 -0.0134 -0.0404
   18CHTO  H191 7269   7.283   8.242  10.142  0.9082  0.2754  0.5317
   18CHTO  C108 7270   7.440   8.309  10.263 -0.2205 -0.2844  0.8412
   18CHTO   O71 7271   7.575   8.272  10.290  0.0075  0.1136  0.3211
   18CHTO  H171 7272   7.634   8.339  10.318  1.5650 -1.2529  0.4341
   18CHTO   O62 7273   7.464   8.073   9.858  0.3231 -0.7868 -0.0905
   18CHTO   C91 7274   7.428   8.106   9.718  0.0069 -0.0880 -0.2420
   18CHTO  H178 7275   7.327   8.071   9.697 -0.1256 -0.2631  0.6728
   18CHTO   C92 7276   7.526   8.023   9.621 -0.9081 -0.1741  0.4256
   18CHTO  H179 7277   7.631   8.038   9.648  0.1540 -0.5563 -3.1758
   18CHTO   O66 7278   7.499   7.884   9.654 -0.1798 -0.5242 -0.6920
   18CHTO  H166 7279   7.412   7.868   9.622 -0.8004  0.6071  0.3478
   18CHTO   C93 7280   7.494   8.051   9.468 -0.4853  0.0201 -0.0694
   18CHTO  H180 7281   7.396   8.004   9.453  0.6144 -2.4387  0.2390
   18CHTO   N16 7282   7.591   7.975   9.380 -0.0120  0.5287  0.0368
   18CHTO  H172 7283   7.568   7.997   9.277 -1.2293  1.2298  0.4534
   18CHTO  H173 7284   7.573   7.869   9.391 -3.9933  1.1454  0.1500
   18CHTO   C94 7285   7.490   8.205   9.445  0.3815 -1.0483  0.0498
   18CHTO  H181 7286   7.589   8.247   9.430  0.1906 -0.4577  0.4156
   18CHTO   O61 7287   7.429   8.287   9.552 -0.6730  0.5619 -0.0261
   18CHTO   C95 7288   7.438   8.264   9.689  0.2316  0.7606 -0.4176
   18CHTO  H182 7289   7.531   8.310   9.724  0.1326 -0.5950  1.7233
   18CHTO  C106 7290   7.322   8.343   9.761  0.2962  0.0363 -0.8143
   18CHTO   O69 7291   7.205   8.264   9.764  0.1335 -0.2529 -0.5705
   18CHTO  H169 7292   7.177   8.250   9.853 -1.3407  0.1796 -0.9579
   18CHTO   O63 7293   7.387   8.218   9.303  0.1438  0.0987 -0.0634
   18CHTO   C96 7294   7.355   8.362   9.217  0.1602 -0.5005  0.4327
   18CHTO  H183 7295   7.301   8.340   9.125  0.4736 -0.1220  0.1623
   18CHTO   C98 7296   7.474   8.446   9.180 -0.0793  0.3553 -0.5642
   18CHTO  H185 7297   7.530   8.472   9.271 -0.0992 -0.8499 -0.2047
   18CHTO   O67 7298   7.554   8.361   9.109 -0.2033 -0.2018  0.0057
   18CHTO  H167 7299   7.639   8.397   9.095  0.4728 -1.7531 -0.0294
   18CHTO  C102 7300   7.438   8.576   9.092 -0.7447 -0.0053  0.3985
   18CHTO  H189 7301   7.406   8.538   8.993 -0.8669  1.4197 -0.1156
   18CHTO   N18 7302   7.552   8.664   9.054  0.1116 -0.0483  0.1928
   18CHTO  H176 7303   7.544   8.767   9.086 -0.2866 -0.3217  0.9943
   18CHTO  H177 7304   7.578   8.651   8.950 -2.0219 -2.7742 -0.0493
   18CHTO  C105 7305   7.321   8.655   9.158 -0.5290  0.3708 -0.5654
   18CHTO  H192 7306   7.362   8.706   9.246 -1.3765  0.4478 -0.2080
   18CHTO   O65 7307   7.221   8.564   9.208 -0.2960 -0.0198  0.5096
   18CHTO  C100 7308   7.261   8.462   9.301 -0.1172  0.0696  0.3779
   18CHTO  H187 7309   7.310   8.504   9.391 -0.5517  0.2897  0.5151
   18CHTO  C107 7310   7.147   8.377   9.357 -0.2884  0.2581 -0.1881
   18CHTO   O70 7311   7.058   8.451   9.446 -0.1243 -0.0050  0.0962
   18CHTO  H170 7312   6.985   8.489   9.402 -1.3275 -0.7977  1.3572
   18CHTO   O57 7313   7.273   8.773   9.048  0.7686 -0.4626 -0.4542
   18CHTO   C85 7314   7.229   8.897   9.101 -0.0268  0.2787  0.4460
   18CHTO  H157 7315   7.293   8.927   9.187 -1.6026 -0.4882  1.9192
   18CHTO   C83 7316   7.088   8.872   9.162  0.2570 -0.1880 -0.6227
   18CHTO  H155 7317   7.093   8.799   9.243  0.0227  0.7343  0.2328
   18CHTO   O56 7318   6.992   8.822   9.066  0.8413 -0.4652 -0.6548
   18CHTO  H135 7319   6.911   8.807   9.110 -0.8587  0.0408 -3.4821
   18CHTO   C81 7320   7.043   9.006   9.226  0.6797 -0.3370 -0.6921
   18CHTO  H153 7321   7.117   9.035   9.300 -2.6616  0.2823  2.5869
   18CHTO   N14 7322   6.922   8.991   9.309  0.0473 -0.3955  0.2944
   18CHTO  H141 7323   6.901   9.075   9.373 -0.2347 -0.2901  0.0666
   18CHTO  H142 7324   6.931   8.910   9.378 -1.6904  1.0761  2.3314
   18CHTO   C79 7325   7.041   9.121   9.118 -0.1776 -0.7579  0.0266
   18CHTO  H151 7326   7.024   9.215   9.169 -0.3672 -1.1870  0.7610
   18CHTO   O52 7327   7.163   9.142   9.032 -0.4622 -0.0768 -0.0108
   18CHTO   C86 7328   7.220   9.010   8.987  0.1598  0.6936 -0.3434
   18CHTO  H158 7329   7.149   8.980   8.906 -0.1732 -0.2136  0.2722
   18CHTO   C90 7330   7.359   9.039   8.927  0.6170 -0.3621 -0.2835
   18CHTO   O60 7331   7.424   8.950   8.842  0.5096 -0.6037  0.0974
   18CHTO  H138 7332   7.466   9.001   8.776 -2.4955  2.2478  0.2507
   18CHTO   O50 7333   6.928   9.100   9.027 -0.0105  0.1252  0.0127
   18CHTO   C73 7334   6.839   9.181   8.946  0.6082  0.3565  0.0080
   18CHTO  H145 7335   6.893   9.204   8.853 -3.0330 -1.9596 -2.8201
   18CHTO   C74 7336   6.791   9.309   9.027 -0.0047 -0.1737  0.2641
   18CHTO  H146 7337   6.875   9.370   9.065 -0.5437  0.2437  0.7828
   18CHTO   O54 7338   6.734   9.394   8.929 -0.7147  0.0619 -0.4365
   18CHTO  H133 7339   6.664   9.446   8.964 -0.7374  0.6916 -1.3807
   18CHTO   C75 7340   6.689   9.268   9.142  0.5413  0.1076 -0.7238
   18CHTO  H147 7341   6.744   9.204   9.213 -1.1105 -2.1397 -1.3988
   18CHTO   N13 7342   6.628   9.381   9.219 -0.5119 -0.2346 -0.2847
   18CHTO  H139 7343   6.694   9.466   9.225 -1.4213  0.3524  1.4767
   18CHTO  H140 7344   6.592   9.354   9.317 -2.0462  0.4350 -0.6397
   18CHTO   C76 7345   6.575   9.175   9.086 -0.4534 -0.0246 -0.5283
   18CHTO  H148 7346   6.519   9.226   9.007 -2.0502 -1.4585 -0.3533
   18CHTO   O49 7347   6.633   9.054   9.031  0.3224  0.0656 -0.0978
   18CHTO   C77 7348   6.717   9.087   8.911  0.0145 -0.6139  0.5937
   18CHTO  H149 7349   6.652   9.138   8.839 -0.4522 -0.7983  0.8788
   18CHTO   C88 7350   6.775   8.960   8.847  0.1135  0.6126 -0.4091
   18CHTO   O58 7351   6.821   8.979   8.722 -0.4930 -0.1355 -0.2346
   18CHTO  H136 7352   6.896   9.034   8.736 -0.8331  0.1695  0.4055
   18CHTO   O51 7353   6.479   9.132   9.199  0.0606  0.3149 -0.6894
   18CHTO   C78 7354   6.350   9.047   9.181  0.2771 -0.3966 -0.1838
   18CHTO  H150 7355   6.373   8.966   9.109 -0.1576 -2.0102  1.4748
   18CHTO   C80 7356   6.232   9.130   9.130  0.4345  0.1211 -0.0481
   18CHTO  H152 7357   6.222   9.225   9.186 -0.6458 -0.1064  0.1588
   18CHTO   O55 7358   6.265   9.184   9.002 -0.0633  0.2584 -0.0754
   18CHTO  H134 7359   6.196   9.226   8.956 -0.3603  1.5402  1.4953
   18CHTO   C84 7360   6.098   9.052   9.134  0.5969 -0.1245  0.3962
   18CHTO  H156 7361   6.120   8.970   9.065 -0.5529  1.9258 -2.5321
   18CHTO   N15 7362   5.984   9.140   9.091  0.1152 -0.1316 -0.0565
   18CHTO  H143 7363   5.893   9.105   9.135  0.5236 -1.0781  0.0519
   18CHTO  H144 7364   5.972   9.134   8.985  2.7075 -1.9656 -0.2922
   18CHTO   C87 7365   6.082   8.993   9.277 -0.1414 -0.6711 -0.6745
   18CHTO  H159 7366   6.071   9.069   9.354 -4.2290 -2.0582  0.2579
   18CHTO   O53 7367   6.185   8.908   9.310  0.4332 -0.2135  0.1312
   18CHTO   C82 7368   6.315   8.973   9.314  1.0204  0.2920 -0.7455
   18CHTO  H154 7369   6.314   9.046   9.395 -0.5530  0.2033 -0.6768
   18CHTO   C89 7370   6.423   8.870   9.353 -0.2420  0.5607  0.5701
   18CHTO   O59 7371   6.428   8.750   9.276 -0.1511  0.0542 -0.2858
   18CHTO  H137 7372   6.468   8.682   9.326 -2.7979  0.8769  3.1486
   18CHTO   O45 7373   5.929   8.923   9.295  0.3231 -0.2740 -0.3097
   18CHTO   C67 7374   5.897   8.890   9.433  0.8439  0.1026  0.8875
   18CHTO  H124 7375   5.981   8.925   9.494  0.2493  1.7491  0.7942
   18CHTO   C65 7376   5.768   8.963   9.474  0.6694 -0.1800 -0.2379
   18CHTO  H122 7377   5.713   8.961   9.380 -0.2675 -0.5890  0.3131
   18CHTO   O44 7378   5.812   9.096   9.508  0.3759 -0.2603  0.1247
   18CHTO  H102 7379   5.758   9.167   9.482 -0.1143 -1.4468 -2.2012
   18CHTO   C63 7380   5.673   8.880   9.576 -0.0016  0.3757  0.6639
   18CHTO  H120 7381   5.612   8.813   9.515  0.1737  0.2048  0.6797
   18CHTO   N11 7382   5.559   8.951   9.638  0.1645 -0.1163 -0.4146
   18CHTO  H108 7383   5.468   8.968   9.584  0.4055 -0.6124 -0.9835
   18CHTO  H109 7384   5.598   9.048   9.663  0.6026 -0.5483  0.6193
   18CHTO   C61 7385   5.774   8.807   9.676 -0.0789 -0.0672  0.1345
   18CHTO  H118 7386   5.718   8.743   9.746 -2.5050 -0.0704 -1.7148
   18CHTO   O40 7387   5.866   8.716   9.603  0.3046 -0.7534 -0.1033
   18CHTO   C68 7388   5.882   8.741   9.456  0.3081  0.5345  0.0564
   18CHTO  H125 7389   5.792   8.710   9.398  0.9337 -0.6590 -0.2851
   18CHTO   C72 7390   5.994   8.650   9.422 -0.1439 -0.1066  0.2685
   18CHTO   O48 7391   6.020   8.649   9.278 -0.2295 -0.1563 -0.2121
   18CHTO  H105 7392   5.949   8.632   9.219  0.7207  0.3405 -1.5009
   18CHTO   O38 7393   5.848   8.904   9.757 -0.0831 -0.4128  0.4036
   18CHTO   C55 7394   5.916   8.837   9.868 -0.0293  0.3762 -0.2358
   18CHTO  H112 7395   5.925   8.728   9.867  2.3690  0.5473  0.5616
   18CHTO   C56 7396   5.844   8.890  10.002 -0.0358 -0.5846 -0.4861
   18CHTO  H113 7397   5.828   8.998   9.994  0.4431 -0.3497  1.3529
   18CHTO   O42 7398   5.718   8.826   9.996 -0.3488  0.7550  0.5546
   18CHTO  H100 7399   5.650   8.879  10.033 -0.2494  1.3844 -0.1538
   18CHTO   C57 7400   5.932   8.866  10.125  0.1046 -0.1879  0.0146
   18CHTO  H114 7401   5.940   8.758  10.137 -1.3980 -0.1982  1.0808
   18CHTO   N10 7402   5.864   8.899  10.258 -0.2063 -0.6674  0.8692
   18CHTO  H106 7403   5.864   9.005  10.279 -0.0925 -0.8173  1.6184
   18CHTO  H107 7404   5.763   8.862  10.255 -0.7019  0.7405 -1.6257
   18CHTO   C58 7405   6.068   8.941  10.104 -1.0827  0.6528  0.2344
   18CHTO  H115 7406   6.049   9.050  10.098 -1.6113  0.5415 -0.1561
   18CHTO   O37 7407   6.129   8.886   9.983  0.2305 -0.5016 -0.1432
   18CHTO   C59 7408   6.056   8.907   9.860  0.4176  0.1114 -0.4072
   18CHTO  H116 7409   6.034   9.011   9.836  0.8448  1.0365  2.9607
   18CHTO   C70 7410   6.134   8.835   9.748  0.3138  0.9037 -0.2861
   18CHTO   O46 7411   6.263   8.890   9.720  0.5998 -0.4823 -0.0190
   18CHTO  H103 7412   6.314   8.833   9.666  2.2092  0.7748  0.1162
   18CHTO   O39 7413   6.181   8.897  10.233  0.2227  0.7277  0.7620
   18CHTO   C60 7414   6.247   8.765  10.214  0.1641  0.6589 -0.0941
   18CHTO  H117 7415   6.179   8.703  10.155 -0.0688  1.1374 -0.3340
   18CHTO   C62 7416   6.372   8.774  10.133  0.1214 -0.2008 -0.7747
   18CHTO  H119 7417   6.351   8.833  10.041 -4.7661  1.1056  0.9704
   18CHTO   O43 7418   6.465   8.853  10.207 -0.6470 -0.0929 -0.9954
   18CHTO  H101 7419   6.548   8.855  10.163  0.9010  3.0422  1.9302
   18CHTO   C66 7420   6.431   8.636  10.091 -0.1509 -0.7282  0.1343
   18CHTO  H123 7421   6.356   8.585  10.032  0.4551 -3.5601  1.7359
   18CHTO   N12 7422   6.546   8.638   9.997  0.5892  0.1505 -0.3600
   18CHTO  H110 7423   6.529   8.728   9.939 -3.2348 -1.1725 -1.4493
   18CHTO  H111 7424   6.559   8.546   9.942 -0.1928 -0.1602 -0.0419
   18CHTO   C69 7425   6.469   8.562  10.220 -0.2101 -0.2076 -0.3440
   18CHTO  H126 7426   6.552   8.620  10.266 -0.3735 -1.4546  1.5654
   18CHTO   O41 7427   6.342   8.550  10.317 -0.7249 -0.0157  0.0958
   18CHTO   C64 7428   6.270   8.686  10.343 -0.1714 -0.1018  0.1330
   18CHTO  H121 7429   6.342   8.741  10.407  0.7110 -1.6399  0.5031
   18CHTO   C71 7430   6.158   8.649  10.431  0.7913  0.5200 -0.2629
   18CHTO   O47 7431   6.067   8.762  10.470 -0.0641  0.6222 -0.5448
   18CHTO  H104 7432   6.066   8.756  10.564  0.2628  0.5758 -0.5458
   18CHTO   O34 7433   6.504   8.410  10.197 -0.4757  0.2589 -0.5871
   18CHTO   C49 7434   6.490   8.269  10.161  0.3177 -1.6403 -0.1011
   18CHTO   H91 7435   6.585   8.228  10.195  1.4174  1.7491  1.1978
   18CHTO   C47 7436   6.482   8.247  10.005 -0.4119 -0.8659  0.0212
   18CHTO   H89 7437   6.504   8.138   9.999 -3.1919 -1.3402 -3.0598
   18CHTO   O33 7438   6.583   8.320   9.941 -0.7275  0.0975  0.7569
   18CHTO   H70 7439   6.570   8.412   9.953  3.4657  0.5950  2.5285
   18CHTO   C45 7440   6.337   8.278   9.936 -0.1986 -0.4741  0.5560
   18CHTO   H87 7441   6.345   8.371   9.879 -0.7078  0.6831  2.3433
   18CHTO    N8 7442   6.296   8.162   9.848 -0.0294  0.4706 -0.1424
   18CHTO   H75 7443   6.361   8.146   9.763 -0.2807 -0.3088 -0.1956
   18CHTO   H76 7444   6.190   8.157   9.826  0.2027 -1.5035 -0.9407
   18CHTO   C43 7445   6.233   8.314  10.047 -0.5697  0.1233  0.2300
   18CHTO   H85 7446   6.261   8.412  10.085 -1.2868  0.4388 -0.0421
   18CHTO   O29 7447   6.238   8.212  10.146 -0.1564 -0.1108  0.3468
   18CHTO   C50 7448   6.361   8.203  10.228  0.6827  0.1137  0.3431
   18CHTO   H92 7449   6.335   8.243  10.327 -2.0229 -1.2690  0.2368
   18CHTO   C54 7450   6.380   8.050  10.261  0.3229  0.6409  0.4336
   18CHTO   O36 7451   6.351   7.971  10.147 -0.2228  0.0996 -0.4207
   18CHTO   H72 7452   6.397   7.890  10.145  0.6799  0.5749  0.3704
   18CHTO   O27 7453   6.102   8.342   9.995  0.1922 -0.2002 -0.0244
   18CHTO   C37 7454   5.964   8.363  10.033  0.3020  0.2455 -0.5322
   18CHTO   H79 7455   5.909   8.268  10.036 -0.8147  0.6778 -4.8300
   18CHTO   C38 7456   5.933   8.430  10.173 -0.2417 -0.3995 -0.1960
   18CHTO   H80 7457   5.965   8.535  10.171  2.4440 -1.1923 -2.0863
   18CHTO   O31 7458   5.990   8.358  10.279 -0.0515 -0.1378 -0.1847
   18CHTO   H68 7459   6.049   8.417  10.321 -1.3748  1.9114 -1.1175
   18CHTO   C39 7460   5.777   8.434  10.204  0.6683  0.2135  0.3456
   18CHTO   H81 7461   5.748   8.331  10.221  2.6115 -0.2394  1.0432
   18CHTO    N7 7462   5.748   8.513  10.330 -0.1133 -0.6061  0.6033
   18CHTO   H73 7463   5.779   8.614  10.310 -0.9647 -0.7379 -1.5593
   18CHTO   H74 7464   5.641   8.515  10.344 -0.0832  1.6721  0.6940
   18CHTO   C40 7465   5.698   8.488  10.080  0.3825 -0.5064 -0.4057
   18CHTO   H82 7466   5.693   8.597  10.081  1.1336 -0.4684 -0.5860
   18CHTO   O26 7467   5.753   8.435   9.956 -0.1134  0.7536 -0.5380
   18CHTO   C41 7468   5.891   8.447   9.933  0.6118 -0.2425 -0.5659
   18CHTO   H83 7469   5.910   8.555   9.944  0.7672 -0.2368 -0.8880
   18CHTO   C52 7470   5.925   8.416   9.791 -0.3376  0.1091  0.6109
   18CHTO   O35 7471   5.858   8.285   9.739  0.2787  0.0811 -0.2074
   18CHTO   H71 7472   5.775   8.315   9.708 -0.8496 -2.7469 -0.0422
   18CHTO   O28 7473   5.559   8.446  10.082 -0.0976 -0.2950  0.0530
   18CHTO   C42 7474   5.461   8.429   9.977  0.5542 -0.3921 -0.0205
   18CHTO   H84 7475   5.368   8.428  10.035  0.7743 -0.4841  0.3345
   18CHTO   C44 7476   5.462   8.294   9.896  0.2383 -0.6276 -0.5130
   18CHTO   H86 7477   5.563   8.283   9.857  0.1062 -0.9837 -0.7579
   18CHTO   O32 7478   5.444   8.180   9.984  0.3771 -0.2708 -0.2868
   18CHTO   H69 7479   5.357   8.185  10.017  1.1728 -0.4410  1.9579
   18CHTO   C48 7480   5.362   8.290   9.767 -0.4185  0.2695 -0.0486
   18CHTO   H90 7481   5.256   8.297   9.790 -0.2391  1.2186  0.5571
   18CHTO    N9 7482   5.372   8.158   9.687 -0.1144  0.2790 -0.1754
   18CHTO   H77 7483   5.273   8.118   9.669  0.2166  0.0182 -1.4638
   18CHTO   H78 7484   5.413   8.188   9.592  0.9540 -0.9284 -0.0975
   18CHTO   C51 7485   5.377   8.421   9.679 -0.2713  0.0483 -0.0693
   18CHTO   H93 7486   5.477   8.417   9.636 -0.6270 -1.4120 -0.7785
   18CHTO   O30 7487   5.358   8.536   9.764 -0.7394 -0.4634  0.5644
   18CHTO   C46 7488   5.450   8.554   9.887 -0.3358 -0.5265  0.3772
   18CHTO   H88 7489   5.549   8.572   9.844  0.4032  0.3636  2.4179
   18CHTO   C53 7490   5.396   8.675   9.963  0.2689  0.4707  0.9321
   18CHTO   O72 7491   5.417   8.798   9.889 -0.0427 -0.4027  0.2568
   18CHTO  H199 7492   5.332   8.821   9.859  0.4051  2.9344  1.3876
   18CHTO   O22 7493   5.272   8.439   9.579 -0.5741 -0.0239  0.0133
   18CHTO   C31 7494   5.299   8.496   9.445 -0.0409 -0.4092 -0.5305
   18CHTO   H59 7495   5.200   8.495   9.396 -0.9624  0.3355  1.2581
   18CHTO   C29 7496   5.351   8.635   9.441 -0.5321 -0.3353 -0.6078
   18CHTO   H57 7497   5.443   8.650   9.499 -1.0793 -3.2545  1.0866
   18CHTO   O21 7498   5.262   8.729   9.505  0.0386  0.7990  0.0045
   18CHTO   H37 7499   5.312   8.806   9.523 -0.5743  1.2918 -0.3791
   18CHTO   C27 7500   5.375   8.677   9.286  0.4257  0.4112  0.1000
   18CHTO   H55 7501   5.280   8.662   9.233  0.2400 -1.2565  0.8685
   18CHTO    N5 7502   5.418   8.815   9.265 -0.6337 -0.3293  0.3055
   18CHTO   H43 7503   5.510   8.824   9.321  1.7490 -3.4765 -2.8511
   18CHTO   H44 7504   5.447   8.825   9.161 -3.1634  0.7472 -0.3537
   18CHTO   C25 7505   5.461   8.572   9.210  0.6340  0.0030  0.0718
   18CHTO   H53 7506   5.558   8.565   9.261  0.7938  0.6583 -0.1335
   18CHTO   O17 7507   5.390   8.441   9.212 -0.1943  0.5914 -0.0668
   18CHTO   C32 7508   5.384   8.400   9.352 -0.0392  0.1736 -0.5457
   18CHTO   H60 7509   5.482   8.391   9.399 -0.2496  2.8517  0.5149
   18CHTO   C36 7510   5.332   8.259   9.352  0.0164  0.4855 -0.1293
   18CHTO   O25 7511   5.431   8.166   9.303  0.4366  0.4701  0.0755
   18CHTO   H40 7512   5.388   8.108   9.243  0.1871 -0.8092  1.4601
   18CHTO   O15 7513   5.481   8.595   9.048 -0.6569 -0.3754  0.4928
   18CHTO   C19 7514   5.599   8.602   8.958  0.0209 -0.0301 -0.6491
   18CHTO   H47 7515   5.566   8.548   8.869 -1.5061 -0.9907  0.4674
   18CHTO   C20 7516   5.645   8.748   8.926  0.2344  0.0637 -0.3790
   18CHTO   H48 7517   5.663   8.807   9.017  0.8119  1.1827 -1.2128
   18CHTO   O19 7518   5.540   8.817   8.851 -0.1062  0.1411  0.2765
   18CHTO   H35 7519   5.557   8.908   8.837 -0.3587  0.3688  1.3775
   18CHTO   C21 7520   5.783   8.760   8.848 -0.3575  0.3378 -0.2637
   18CHTO   H49 7521   5.769   8.726   8.746 -2.4538  1.5961 -0.4362
   18CHTO    N4 7522   5.832   8.899   8.834  0.0925 -0.0218  0.6937
   18CHTO   H41 7523   5.793   8.965   8.910 -1.2309  0.5942 -0.4902
   18CHTO   H42 7524   5.802   8.938   8.738  2.5596 -1.7150 -0.8149
   18CHTO   C22 7525   5.882   8.658   8.913 -0.0963  0.7982 -0.1732
   18CHTO   H50 7526   5.904   8.700   9.011  0.8392  2.4503 -1.0624
   18CHTO   O14 7527   5.823   8.525   8.922 -0.7640  0.5211  0.2770
   18CHTO   C23 7528   5.714   8.521   9.012  0.7613  0.1547  0.0715
   18CHTO   H51 7529   5.760   8.564   9.103  1.1557 -0.9827  0.4218
   18CHTO   C34 7530   5.672   8.377   9.031 -0.2161 -0.0634 -0.0963
   18CHTO   O23 7531   5.767   8.314   9.116  0.0615  0.2371 -0.6961
   18CHTO   H38 7532   5.807   8.237   9.079 -0.5814  0.6550 -2.2912
   18CHTO   O16 7533   6.001   8.627   8.836  0.1477 -0.1736  0.1547
   18CHTO   C24 7534   6.131   8.606   8.928  0.7974  0.2569 -0.4393
   18CHTO   H52 7535   6.117   8.636   9.032 -0.3205  1.4512 -0.9224
   18CHTO   C26 7536   6.243   8.690   8.860  0.2627  0.1141 -0.7052
   18CHTO   H54 7537   6.252   8.664   8.752  0.7809  2.4176 -1.2420
   18CHTO   O20 7538   6.195   8.823   8.856  0.2718  0.4922 -0.2833
   18CHTO   H36 7539   6.104   8.832   8.836 -0.1365 -1.1154  0.8186
   18CHTO   C30 7540   6.376   8.674   8.938  1.0365 -0.2755  0.5097
   18CHTO   H58 7541   6.370   8.711   9.041  0.7242 -1.3607  0.8930
   18CHTO    N6 7542   6.491   8.753   8.881 -0.2647  0.2636  0.9873
   18CHTO   H45 7543   6.508   8.732   8.776 -1.7437  1.5225  0.4757
   18CHTO   H46 7544   6.582   8.729   8.934  0.9334  1.5596 -0.4329
   18CHTO   C33 7545   6.404   8.525   8.970 -0.7987  0.3577 -0.0923
   18CHTO   H61 7546   6.429   8.464   8.882  2.5188  0.0973  0.9729
   18CHTO   O18 7547   6.287   8.470   9.027  0.0976  0.5515  0.2469
   18CHTO   C28 7548   6.181   8.459   8.939  0.3362 -0.4302  0.8266
   18CHTO   H56 7549   6.204   8.424   8.838  0.4157  1.0255  0.3280
   18CHTO   C35 7550   6.086   8.357   9.008 -0.4157  0.6319 -0.2880
   18CHTO   O24 7551   6.048   8.379   9.143  0.3375 -0.4537 -0.5300
   18CHTO   H39 7552   5.979   8.443   9.152  0.8509  0.1711 -0.9772
   18CHTO    O9 7553   6.525   8.508   9.056 -0.1208  0.7133  0.2048
   18CHTO   C13 7554   6.618   8.385   9.018 -0.2915 -0.2917 -0.2378
   18CHTO   H26 7555   6.638   8.386   8.909 -0.8360  3.7363 -0.3713
   18CHTO   C11 7556   6.539   8.242   9.072 -0.1457  0.2159 -0.3139
   18CHTO   H24 7557   6.473   8.210   8.989 -0.1681  1.6823 -0.8762
   18CHTO    O8 7558   6.475   8.272   9.197 -0.3604  0.3336  0.2545
   18CHTO    H3 7559   6.418   8.206   9.232 -1.1868  1.4342  1.0183
   18CHTO    C9 7560   6.649   8.138   9.085 -0.1829  0.8381  0.0851
   18CHTO   H22 7561   6.699   8.145   8.987 -0.1682 -0.1464  0.0130
   18CHTO    N2 7562   6.595   7.997   9.100 -0.7559  0.4564  0.1708
   18CHTO   H10 7563   6.494   7.983   9.064 -0.9267 -0.6395  1.0448
   18CHTO   H11 7564   6.602   7.979   9.206  0.9908 -2.2009 -0.3262
   18CHTO    C7 7565   6.755   8.183   9.194 -0.3499  0.0925 -0.2815
   18CHTO   H20 7566   6.857   8.144   9.171  0.5982  2.2111  0.2267
   18CHTO    O4 7567   6.771   8.326   9.202 -0.1869  0.0522 -0.0715
   18CHTO   C14 7568   6.760   8.397   9.082 -0.7368 -0.2194 -0.1132
   18CHTO   H27 7569   6.836   8.353   9.015 -0.5942  1.0579 -0.7951
   18CHTO   C18 7570   6.798   8.546   9.102  0.1387  0.4742  0.0842
   18CHTO   O13 7571   6.916   8.563   9.178 -0.3160 -0.2008  0.3850
   18CHTO    H7 7572   6.993   8.577   9.126  0.8793 -0.0209  2.1833
   18CHTO    O2 7573   6.733   8.122   9.332  0.2466 -0.1006 -0.6945
   18CHTO    C1 7574   6.829   8.124   9.438 -0.8290  0.3469 -0.5426
   18CHTO   H14 7575   6.883   8.221   9.438 -1.0295  0.4568 -0.5591
   18CHTO    C2 7576   6.946   8.007   9.425  0.3137  0.6780 -0.3563
   18CHTO   H15 7577   6.904   7.911   9.393  2.0061  0.4743 -2.0671
   18CHTO    O6 7578   7.032   8.035   9.314  0.1262 -0.8088 -0.4272
   18CHTO    H1 7579   7.059   8.125   9.306  0.0257 -0.7578 -0.1894
   18CHTO    C3 7580   7.023   7.993   9.565  0.2878  0.3009  0.0497
   18CHTO   H16 7581   7.069   8.090   9.587  0.6045 -0.5698  3.4506
   18CHTO    N1 7582   7.132   7.891   9.562  0.5552  0.6950  0.1466
   18CHTO    H8 7583   7.154   7.871   9.666  0.1850  1.1981  0.3219
   18CHTO    H9 7584   7.223   7.935   9.523  0.0194  0.5478 -1.2891
   18CHTO    C4 7585   6.915   7.959   9.677  0.3149 -0.2503  0.0820
   18CHTO   H17 7586   6.867   7.863   9.659 -0.3419 -0.0440  0.7011
   18CHTO    O1 7587   6.829   8.078   9.674 -0.2764  0.4348 -0.3190
   18CHTO    C5 7588   6.738   8.105   9.568 -0.2242 -0.4287  0.7010
   18CHTO   H18 7589   6.660   8.028   9.566 -1.8049  1.1290  1.2202
   18CHTO   C16 7590   6.667   8.237   9.601  0.3545  0.4808 -0.7574
   18CHTO   O11 7591   6.572   8.276   9.505  0.3330  0.0811  0.4493
   18CHTO    H5 7592   6.530   8.350   9.544  0.0838 -0.8916  2.0773
   18CHTO    O3 7593   6.968   7.962   9.809 -0.0395  0.2602  0.5472
   18CHTO    C6 7594   6.878   7.912   9.913  0.3104 -0.2329 -1.1721
   18CHTO   H19 7595   6.779   7.889   9.873 -0.1382  0.3436 -0.4107
   18CHTO    C8 7596   6.928   7.775   9.972  0.0716  0.9063  0.4003
   18CHTO   H21 7597   7.024   7.790  10.021 -0.7114  1.1747  1.8996
   18CHTO    O7 7598   6.936   7.683   9.861 -0.0546 -0.4050 -0.4051
   18CHTO    H2 7599   6.869   7.696   9.797  0.1040  0.4034 -0.4112
   18CHTO   C12 7600   6.829   7.720  10.082  0.3954  0.5603  0.3355
   18CHTO   H25 7601   6.730   7.701  10.035  0.4527 -1.0088  0.8419
   18CHTO    N3 7602   6.868   7.598  10.152  0.1331  0.6759 -0.2885
   18CHTO   H12 7603   6.959   7.558  10.108 -1.0597 -0.7999 -1.5043
   18CHTO   H13 7604   6.791   7.523  10.139 -0.7997  1.6606 -0.5626
   18CHTO   C15 7605   6.811   7.837  10.186  0.0261  0.1648  0.5223
   18CHTO   H28 7606   6.903   7.860  10.240  0.3905 -1.2878  0.5381
   18CHTO   O10 7607   6.704   7.812  10.288 -0.1562  0.0153  0.1802
   18CHTO    H4 7608   6.738   7.821  10.375  2.7511 -0.5132 -0.8510
   18CHTO    O5 7609   6.768   7.958  10.127 -0.3372 -0.0775 -0.3174
   18CHTO   C10 7610   6.860   8.009  10.029  0.1658  0.4315  0.3821
   18CHTO   H23 7611   6.957   8.016  10.079 -0.2406 -3.4335  1.8791
   18CHTO   C17 7612   6.829   8.157  10.000 -0.1373 -0.7554  0.2811
   18CHTO   O12 7613   6.932   8.205   9.908  0.4994  0.4349 -0.5423
   18CHTO    H6 7614   6.919   8.175   9.821 -0.5336  0.2123 -0.3155
   19CHTO  H203 7615   5.660   9.111  11.189  0.5814 -0.5805  1.4752
   19CHTO   O82 7616   5.735   9.099  11.133 -0.4468 -0.0859 -0.0389
   19CHTO  C123 7617   5.691   9.095  10.996  0.0076 -0.9048  0.6289
   19CHTO  H227 7618   5.750   9.164  10.933 -0.5706 -1.4593 -0.5317
   19CHTO   O77 7619   5.747   8.968  10.949 -0.3339 -0.5362  0.4973
   19CHTO  C118 7620   5.735   8.943  10.812 -0.1658 -0.0182  0.4358
   19CHTO  H222 7621   5.786   9.026  10.761  2.4955 -1.4011  0.7227
   19CHTO  C125 7622   5.818   8.815  10.780  0.2535  0.4768  0.4610
   19CHTO   O84 7623   5.829   8.808  10.638  0.8371  0.1592  0.0744
   19CHTO  H205 7624   5.887   8.874  10.606 -1.5587  1.6021 -1.5002
   19CHTO  C114 7625   5.582   8.923  10.787 -1.0314 -0.0561  0.1202
   19CHTO  H218 7626   5.545   8.848  10.856  0.0372  0.5460  1.3766
   19CHTO  C116 7627   5.508   9.051  10.822 -0.0955 -0.2910  0.2670
   19CHTO  H220 7628   5.537   9.141  10.763  0.1167  0.3964  1.4074
   19CHTO   O79 7629   5.366   9.040  10.793  0.2705  0.2514 -0.1237
   19CHTO  H201 7630   5.316   9.034  10.872  0.0712  1.4695 -0.1368
   19CHTO  C120 7631   5.533   9.088  10.980 -0.3191 -0.8421  1.5767
   19CHTO  H224 7632   5.507   9.002  11.044  0.1186 -1.9350  0.3270
   19CHTO   N21 7633   5.466   9.208  11.023  0.1664 -0.6542  0.2511
   19CHTO  H211 7634   5.363   9.185  11.045 -0.6215  1.4771 -1.0685
   19CHTO  H212 7635   5.479   9.293  10.957 -1.2687 -0.9238 -0.3951
   19CHTO   O75 7636   5.567   8.881  10.649  0.4110  0.0209 -0.0753
   19CHTO  C112 7637   5.446   8.776  10.619  0.0320 -0.1220  0.2375
   19CHTO  H216 7638   5.347   8.824  10.620 -0.3237 -0.8413  1.8460
   19CHTO   O73 7639   5.453   8.667  10.711 -0.3503 -0.5704  0.3611
   19CHTO  C113 7640   5.364   8.555  10.690  0.1647  0.0311  0.8097
   19CHTO  H217 7641   5.257   8.583  10.683  0.7207  2.4477  1.4475
   19CHTO  C124 7642   5.375   8.450  10.800  0.1525  0.3005  0.0699
   19CHTO   O83 7643   5.496   8.384  10.809 -0.0364 -0.7109  0.1616
   19CHTO  H204 7644   5.497   8.350  10.896  3.1255  0.7496  0.7792
   19CHTO  C109 7645   5.387   8.485  10.543  0.0132 -0.0514 -0.4002
   19CHTO  H213 7646   5.489   8.444  10.543  0.3348  0.5526 -3.8650
   19CHTO  C110 7647   5.380   8.600  10.436  0.4829 -0.6772 -0.1701
   19CHTO  H214 7648   5.275   8.628  10.436  0.2802 -1.3968  1.2317
   19CHTO   O78 7649   5.407   8.547  10.303 -0.0635  0.2824  0.5907
   19CHTO  H200 7650   5.478   8.486  10.305  0.0329  0.3383 -0.8732
   19CHTO  C111 7651   5.470   8.721  10.470  0.0710  0.2408 -0.3389
   19CHTO  H215 7652   5.574   8.686  10.478  0.0526  0.4214  0.6927
   19CHTO   N19 7653   5.466   8.829  10.365  0.3186  0.5238  0.3179
   19CHTO  H207 7654   5.361   8.852  10.355  0.1128 -0.6137 -0.2809
   19CHTO  H208 7655   5.464   8.780  10.269  1.4632  0.9609  0.0724
   19CHTO   O74 7656   5.296   8.378  10.509  0.1927  0.2726 -0.4885
   19CHTO  C115 7657   5.354   8.261  10.414 -0.0831  0.1854  0.2935
   19CHTO  H219 7658   5.394   8.298  10.320  1.0301  1.4033  1.2381
   19CHTO   O76 7659   5.459   8.184  10.479 -0.3681  0.0053  0.1131
   19CHTO  C122 7660   5.507   8.069  10.399  1.3710 -0.7235 -0.2190
   19CHTO  H226 7661   5.566   8.015  10.474 -0.1934  0.0732  1.6130
   19CHTO  C126 7662   5.612   8.112  10.281 -0.2527  0.7262 -0.3724
   19CHTO   O85 7663   5.658   7.999  10.211 -0.3931 -1.0742 -0.2744
   19CHTO  H206 7664   5.620   8.002  10.126 -1.8884 -2.7421  0.3014
   19CHTO  C121 7665   5.387   7.970  10.372 -0.5986  0.8353  1.0143
   19CHTO  H225 7666   5.423   7.881  10.317  1.1773  2.0603  0.1472
   19CHTO   O81 7667   5.332   7.924  10.499  0.4855 -0.2052  0.2798
   19CHTO  H202 7668   5.263   7.863  10.481 -0.9694  1.1439  1.1299
   19CHTO  C119 7669   5.281   8.042  10.288 -0.9356  0.2743  0.2883
   19CHTO  H223 7670   5.330   8.067  10.195 -1.9342  2.4968  0.3290
   19CHTO  C117 7671   5.228   8.176  10.369  0.1036 -0.1428 -0.5214
   19CHTO  H221 7672   5.169   8.164  10.460 -1.4936 -0.6647 -1.6026
   19CHTO   N20 7673   5.137   8.258  10.279  0.3597  0.9352  0.3637
   19CHTO  H209 7674   5.133   8.224  10.176  1.3846 -2.1973  1.3135
   19CHTO  H210 7675   5.136   8.366  10.286 -1.2757  0.9205  0.6858
   19CHTO   O80 7676   5.182   7.950  10.245 -0.4937 -0.0765 -0.8744
   19CHTO  C103 7677   5.219   7.825  10.146  0.3226 -0.2670 -0.5516
   19CHTO  H190 7678   5.315   7.833  10.095  1.4924 -0.1654  1.5903
   19CHTO  C101 7679   5.216   7.678  10.210 -0.0849 -0.0666 -0.0258
   19CHTO  H188 7680   5.117   7.663  10.253  1.0363  2.2707  3.6881
   19CHTO   O68 7681   5.315   7.656  10.319  0.1872 -0.3186  0.2293
   19CHTO  H168 7682   5.402   7.649  10.285 -0.5884 -0.1217 -1.8571
   19CHTO   C99 7683   5.229   7.566  10.097 -0.3075  0.0979  0.2309
   19CHTO  H186 7684   5.332   7.572  10.058  0.1878  1.7356  1.7188
   19CHTO   N17 7685   5.216   7.425  10.150 -0.0701  0.1624 -0.0079
   19CHTO  H174 7686   5.263   7.423  10.247 -0.8035  2.0438  0.4080
   19CHTO  H175 7687   5.247   7.348  10.082 -2.4712 -1.6231  0.8412
   19CHTO   C97 7688   5.134   7.590   9.975  0.3458 -0.3439  0.0548
   19CHTO  H184 7689   5.034   7.564  10.011 -0.4392  1.8146 -0.5227
   19CHTO   O64 7690   5.139   7.730   9.935  0.1153 -0.3912 -0.8340
   19CHTO  C104 7691   5.109   7.834  10.034  0.3496  0.8409  0.5079
   19CHTO  H191 7692   5.008   7.820  10.073  0.8429 -0.9399  1.2105
   19CHTO  C108 7693   5.106   7.969   9.966 -0.7156 -0.1828 -0.6818
   19CHTO   O71 7694   5.230   7.994   9.895 -0.1839 -0.5289  0.2002
   19CHTO  H171 7695   5.212   8.065   9.837 -0.2878 -0.3257  0.4836
   19CHTO   O62 7696   5.176   7.512   9.859  0.0055 -0.3982  0.1513
   19CHTO   C91 7697   5.096   7.514   9.739 -0.6225  0.0877 -0.3924
   19CHTO  H178 7698   5.004   7.571   9.754  1.0063  2.2787  1.8094
   19CHTO   C92 7699   5.047   7.363   9.721 -0.5404  0.6289  0.0473
   19CHTO  H179 7700   5.003   7.329   9.815  2.2750  0.2925  1.2993
   19CHTO   O66 7701   4.939   7.367   9.627  0.1140  0.1919 -0.0441
   19CHTO  H166 7702   4.882   7.294   9.641 -0.4306  0.5967 -0.1835
   19CHTO   C93 7703   5.151   7.264   9.658  0.3875  0.1136  0.3273
   19CHTO  H180 7704   5.090   7.180   9.621 -0.9259  0.9960  0.4458
   19CHTO   N16 7705   5.247   7.208   9.756  0.0747  0.1124  0.6357
   19CHTO  H172 7706   5.336   7.264   9.735  0.4537 -0.6790  0.0978
   19CHTO  H173 7707   5.222   7.235   9.858  0.8889  0.7109  0.6748
   19CHTO   C94 7708   5.227   7.330   9.532 -0.5402  0.3052 -0.2839
   19CHTO  H181 7709   5.335   7.334   9.548 -0.5431 -1.6514  0.3126
   19CHTO   O61 7710   5.181   7.467   9.501 -0.1958 -0.1585  0.2600
   19CHTO   C95 7711   5.174   7.559   9.608 -0.1110 -0.4754  1.4602
   19CHTO  H182 7712   5.276   7.587   9.636 -0.5278  1.2016  1.3729
   19CHTO  C106 7713   5.115   7.701   9.555 -0.2182  0.3882 -0.3991
   19CHTO   O69 7714   5.114   7.806   9.653  0.2515  0.0579  0.1273
   19CHTO  H169 7715   5.080   7.779   9.736  2.6505  0.2417  1.2381
   19CHTO   O63 7716   5.198   7.235   9.425  0.0315  0.3183  0.0637
   19CHTO   C96 7717   5.316   7.219   9.308  0.1904  0.4288  1.0286
   19CHTO  H183 7718   5.408   7.204   9.365  0.7787  0.8599  0.2006
   19CHTO   C98 7719   5.341   7.350   9.216 -0.7901  0.0042  0.6556
   19CHTO  H185 7720   5.342   7.446   9.271  0.5934  1.0113 -1.0780
   19CHTO   O67 7721   5.479   7.337   9.170 -0.3875  0.1040 -0.1309
   19CHTO  H167 7722   5.530   7.348   9.248  0.4957 -1.6789 -0.4436
   19CHTO  C102 7723   5.241   7.345   9.093  0.4668  0.6268  0.4498
   19CHTO  H189 7724   5.273   7.415   9.014 -0.1001  0.0145 -0.3290
   19CHTO   N18 7725   5.100   7.392   9.127  0.4034  0.1421 -0.4605
   19CHTO  H176 7726   5.082   7.392   9.233  0.0172  0.4603 -0.5267
   19CHTO  H177 7727   5.021   7.358   9.062 -0.0311 -0.0700  0.1731
   19CHTO  C105 7728   5.252   7.204   9.015 -0.0006  0.0255 -0.1285
   19CHTO  H192 7729   5.152   7.169   8.988 -0.7253  1.0626  1.1589
   19CHTO   O65 7730   5.312   7.101   9.092 -0.8104  0.1251  0.0415
   19CHTO  C100 7731   5.272   7.091   9.223 -0.6374 -0.5678 -0.0134
   19CHTO  H187 7732   5.163   7.083   9.229 -0.7989  1.0284 -0.5751
   19CHTO  C107 7733   5.328   6.961   9.299  0.2404  0.1916 -0.0909
   19CHTO   O70 7734   5.313   6.961   9.440 -0.5770 -0.7660  0.4083
   19CHTO  H170 7735   5.378   6.912   9.486  0.6268  1.3734  1.0551
   19CHTO   O57 7736   5.341   7.236   8.856  0.2226  0.0731 -0.5331
   19CHTO   C85 7737   5.262   7.229   8.738  0.7642  0.3760  0.7449
   19CHTO  H157 7738   5.170   7.177   8.772  0.0213  0.7580 -0.6515
   19CHTO   C83 7739   5.328   7.137   8.628  0.5392 -0.1758  0.0972
   19CHTO  H155 7740   5.330   7.039   8.674  2.4739 -0.4566 -0.5604
   19CHTO   O56 7741   5.462   7.171   8.613 -0.0226 -0.2807 -0.2858
   19CHTO  H135 7742   5.482   7.248   8.564 -2.2469  1.3925  1.3313
   19CHTO   C81 7743   5.246   7.130   8.499 -0.0403 -0.1747  0.2371
   19CHTO  H153 7744   5.152   7.084   8.529 -0.5284 -0.5980 -1.8563
   19CHTO   N14 7745   5.303   7.048   8.389 -0.5934  0.0521 -0.3675
   19CHTO  H141 7746   5.312   6.944   8.414  1.2780  0.6313  1.4764
   19CHTO  H142 7747   5.403   7.082   8.372  0.1681 -1.2691  1.3280
   19CHTO   C79 7748   5.212   7.272   8.441  0.6817  0.3647  0.4595
   19CHTO  H151 7749   5.135   7.255   8.366  1.5247  0.9801 -0.5525
   19CHTO   O52 7750   5.139   7.348   8.545 -0.1918 -0.1929 -0.2198
   19CHTO   C86 7751   5.223   7.369   8.666  0.1604 -1.1827  0.3239
   19CHTO  H158 7752   5.308   7.435   8.638 -1.0272 -0.8445 -2.6312
   19CHTO   C90 7753   5.142   7.454   8.763  0.2611 -0.4394  0.5950
   19CHTO   O60 7754   5.096   7.572   8.705  0.0219  0.0659  0.8896
   19CHTO  H138 7755   5.168   7.623   8.674 -0.5432 -0.0829 -0.7074
   19CHTO   O50 7756   5.324   7.343   8.386 -0.0937 -0.0136 -0.8643
   19CHTO   C73 7757   5.348   7.448   8.293  0.5293 -0.3594 -0.7855
   19CHTO  H145 7758   5.320   7.408   8.194  0.4389  0.9392 -1.2953
   19CHTO   C74 7759   5.493   7.490   8.305  0.4031 -0.0281  0.3065
   19CHTO  H146 7760   5.558   7.403   8.288 -0.8914 -0.5654 -2.1462
   19CHTO   O54 7761   5.516   7.574   8.186 -0.3107 -0.5941 -0.4690
   19CHTO  H133 7762   5.435   7.609   8.155 -0.4764 -1.1264 -0.6428
   19CHTO   C75 7763   5.523   7.556   8.442 -0.4054 -0.6378  0.8012
   19CHTO  H147 7764   5.501   7.481   8.520  0.2362 -2.0227 -0.3316
   19CHTO   N13 7765   5.667   7.588   8.464 -0.1833  0.3037 -0.1683
   19CHTO  H139 7766   5.705   7.657   8.390  2.2427  0.6594  1.3637
   19CHTO  H140 7767   5.687   7.619   8.566  1.1483 -2.7407  0.5569
   19CHTO   C76 7768   5.427   7.687   8.447  0.0267  0.3059 -0.3347
   19CHTO  H148 7769   5.458   7.750   8.363 -0.9765  1.5865  0.2640
   19CHTO   O49 7770   5.290   7.646   8.439  0.1181 -0.0293  0.0466
   19CHTO   C77 7771   5.261   7.578   8.317  0.6912  0.3692  0.6612
   19CHTO  H149 7772   5.272   7.649   8.235 -0.9061  0.1376  0.2421
   19CHTO   C88 7773   5.115   7.544   8.324 -0.1817  0.4816 -0.2847
   19CHTO   O58 7774   5.045   7.527   8.205  0.0122 -0.1110 -0.2972
   19CHTO  H136 7775   4.952   7.530   8.213 -0.1103 -0.8661 -1.3586
   19CHTO   O51 7776   5.436   7.776   8.581 -0.0757 -0.0369 -0.2945
   19CHTO   C78 7777   5.440   7.930   8.571 -1.0881 -0.4278  0.1597
   19CHTO  H150 7778   5.432   7.959   8.464  1.8613  4.5416  1.1376
   19CHTO   C80 7779   5.578   7.988   8.625  0.7721 -0.8470  0.2522
   19CHTO  H152 7780   5.594   7.939   8.723 -0.7412 -2.3603 -0.2306
   19CHTO   O55 7781   5.688   7.927   8.554  0.0995 -0.6180  0.1820
   19CHTO  H134 7782   5.768   7.960   8.590  0.0477 -1.9523  1.5566
   19CHTO   C84 7783   5.568   8.152   8.632 -0.4025  0.1833  0.3319
   19CHTO  H156 7784   5.560   8.191   8.530  1.0506 -0.9631 -0.2311
   19CHTO   N15 7785   5.697   8.207   8.685  0.5812  0.5084  0.0629
   19CHTO  H143 7786   5.686   8.311   8.661 -0.4881  0.5688  0.8228
   19CHTO  H144 7787   5.778   8.166   8.628  1.5520  2.5998 -0.1409
   19CHTO   C87 7788   5.450   8.199   8.721  0.0756  0.1420  0.0264
   19CHTO  H159 7789   5.464   8.162   8.823 -0.5749  0.6568  0.3068
   19CHTO   O53 7790   5.319   8.129   8.672  0.2681 -0.0449 -0.3529
   19CHTO   C82 7791   5.328   7.985   8.663  0.6445 -0.9689  0.5545
   19CHTO  H154 7792   5.332   7.941   8.762  2.8324  0.8333  1.3245
   19CHTO   C89 7793   5.190   7.942   8.595  0.0096  0.1720 -0.3728
   19CHTO   O59 7794   5.071   7.982   8.658  0.1813 -0.3694 -0.1326
   19CHTO  H137 7795   5.068   7.943   8.743 -0.0134 -2.1497 -0.9481
   19CHTO   O45 7796   5.419   8.362   8.726  0.2250  0.2817  0.6538
   19CHTO   C67 7797   5.281   8.393   8.761  0.2484  0.3191 -0.3442
   19CHTO  H124 7798   5.222   8.322   8.702  1.8329 -1.5806  0.3205
   19CHTO   C65 7799   5.242   8.374   8.916 -0.2943 -0.2335  0.1381
   19CHTO  H122 7800   5.323   8.411   8.979  0.5109 -1.9611  0.1430
   19CHTO   O44 7801   5.232   8.234   8.943  0.0658 -0.0798 -0.1879
   19CHTO  H102 7802   5.291   8.191   8.885 -0.8971 -1.5069 -0.1359
   19CHTO   C63 7803   5.131   8.472   8.952 -0.9627  0.0534  0.4310
   19CHTO  H120 7804   5.177   8.567   8.978 -0.9423 -0.2913  1.7156
   19CHTO   N11 7805   5.054   8.445   9.082  0.1466 -0.1086  0.2506
   19CHTO  H108 7806   5.113   8.419   9.167  1.0348  0.9591 -0.0295
   19CHTO  H109 7807   5.022   8.544   9.108  0.5258  0.0814 -0.0185
   19CHTO   C61 7808   5.027   8.499   8.833  0.0166 -0.2991  0.5576
   19CHTO  H118 7809   4.950   8.568   8.871  1.8439  1.7722  0.5742
   19CHTO   O40 7810   5.092   8.560   8.715 -0.2353  0.0353  0.4714
   19CHTO   C68 7811   5.239   8.540   8.706  0.1957  0.0790  0.2969
   19CHTO  H125 7812   5.288   8.609   8.777  0.8086 -1.1889  1.1244
   19CHTO   C72 7813   5.282   8.588   8.569  0.0679 -0.0636  0.3303
   19CHTO   O48 7814   5.224   8.524   8.456 -0.1114  0.3178  0.0210
   19CHTO  H105 7815   5.133   8.500   8.458 -0.5542  1.8098 -1.2858
   19CHTO   O38 7816   4.967   8.372   8.795 -0.1067 -0.0829  0.0006
   19CHTO   C55 7817   4.847   8.369   8.721  0.2933 -0.4456 -0.4349
   19CHTO  H112 7818   4.819   8.470   8.688  1.1960  0.2208  0.7990
   19CHTO   C56 7819   4.741   8.305   8.818  0.4462  0.0107  0.2457
   19CHTO  H113 7820   4.770   8.202   8.842  1.3735 -0.0694 -1.1165
   19CHTO   O42 7821   4.737   8.380   8.943  0.3065  0.0244  0.3156
   19CHTO  H100 7822   4.694   8.464   8.947  0.0863 -0.1190  1.0785
   19CHTO   C57 7823   4.603   8.307   8.746 -0.4513 -0.7613 -0.7405
   19CHTO  H114 7824   4.576   8.411   8.728  1.2919  0.0832  1.3009
   19CHTO   N10 7825   4.493   8.249   8.825  0.7906  0.9099 -0.1751
   19CHTO  H106 7826   4.527   8.171   8.893  0.2596 -0.6900 -1.7212
   19CHTO  H107 7827   4.419   8.204   8.761  1.1865 -0.9420  0.6269
   19CHTO   C58 7828   4.618   8.235   8.609 -0.1267 -0.1397 -0.1086
   19CHTO  H115 7829   4.640   8.128   8.629 -0.4725 -0.0535  0.7441
   19CHTO   O37 7830   4.728   8.290   8.532  0.2048 -0.3486 -0.3461
   19CHTO   C59 7831   4.852   8.276   8.601  0.0481  0.2268 -0.2422
   19CHTO  H116 7832   4.863   8.172   8.632 -3.8400  0.2327  1.4722
   19CHTO   C70 7833   4.952   8.325   8.497 -0.2785  0.3278  0.1196
   19CHTO   O46 7834   5.082   8.271   8.516  0.3313 -0.1596  0.6287
   19CHTO  H103 7835   5.136   8.328   8.566 -0.5227  1.5361 -0.3467
   19CHTO   O39 7836   4.483   8.247   8.514  0.0791 -0.1891 -0.2184
   19CHTO   C60 7837   4.477   8.145   8.409  0.1353  0.0736 -0.1032
   19CHTO  H117 7838   4.578   8.116   8.381 -0.2467  2.2020 -3.9084
   19CHTO   C62 7839   4.414   8.006   8.450  0.5114 -0.3152 -1.0010
   19CHTO  H119 7840   4.480   7.982   8.536  0.6302  0.9992 -0.7210
   19CHTO   O43 7841   4.278   8.018   8.496  0.0929 -0.2760 -0.7509
   19CHTO  H101 7842   4.274   8.096   8.550  1.9684 -0.6368 -0.0394
   19CHTO   C66 7843   4.438   7.900   8.333  0.3504 -0.2794 -0.2806
   19CHTO  H123 7844   4.545   7.884   8.330  0.0075 -3.1145  1.2994
   19CHTO   N12 7845   4.386   7.763   8.364 -0.1012  0.4193 -0.1150
   19CHTO  H110 7846   4.291   7.768   8.414  0.8019 -0.7361  1.7985
   19CHTO  H111 7847   4.454   7.705   8.425  0.3074  0.0560 -0.9147
   19CHTO   C69 7848   4.381   7.953   8.200 -0.3028 -0.2713 -0.4240
   19CHTO  H126 7849   4.271   7.962   8.202 -0.3699 -1.2247  1.0716
   19CHTO   O41 7850   4.446   8.107   8.166 -0.1940  0.5466  0.0561
   19CHTO   C64 7851   4.409   8.203   8.276  0.5042 -0.3384 -0.1583
   19CHTO  H121 7852   4.300   8.204   8.297  0.3971  3.6872 -0.4271
   19CHTO   C71 7853   4.452   8.349   8.241 -0.3037  0.1410  0.0076
   19CHTO   O47 7854   4.394   8.398   8.119  0.8008  0.0184  0.2721
   19CHTO  H104 7855   4.442   8.471   8.085  0.2606 -0.0952 -0.7381
   19CHTO   O34 7856   4.418   7.859   8.092  0.3167  0.1582 -0.0080
   19CHTO   C49 7857   4.426   7.846   7.929  0.4607  0.4446  0.1513
   19CHTO   H91 7858   4.329   7.844   7.881  0.6213 -1.7972 -0.1460
   19CHTO   C47 7859   4.495   7.715   7.898 -0.0278 -0.0659  0.4520
   19CHTO   H89 7860   4.490   7.709   7.787  0.3185 -2.2134  0.5389
   19CHTO   O33 7861   4.427   7.603   7.945  0.0963  1.4614 -0.4712
   19CHTO   H70 7862   4.443   7.584   8.035 -1.1951  2.7176  0.0451
   19CHTO   C45 7863   4.650   7.724   7.947  0.2855 -0.0120  0.5563
   19CHTO   H87 7864   4.645   7.681   8.048 -1.1053  0.2768  0.6212
   19CHTO    N8 7865   4.724   7.643   7.848 -0.3837  0.8267 -0.3356
   19CHTO   H75 7866   4.691   7.541   7.859 -0.4179  0.9598  0.8194
   19CHTO   H76 7867   4.830   7.638   7.869 -0.4009 -2.1386 -0.7818
   19CHTO   C43 7868   4.707   7.875   7.972  0.1771  0.2109  0.6601
   19CHTO   H85 7869   4.670   7.912   8.067 -2.5738  0.5172 -0.4694
   19CHTO   O29 7870   4.650   7.950   7.857 -0.4597  0.6352 -0.1626
   19CHTO   C50 7871   4.507   7.960   7.859 -0.4497 -0.7351 -0.3582
   19CHTO   H92 7872   4.473   8.051   7.910 -1.1366 -1.2144  0.0460
   19CHTO   C54 7873   4.470   7.982   7.704  0.1380  0.1593 -0.3397
   19CHTO   O36 7874   4.373   8.092   7.691 -0.2299  0.0659 -0.2183
   19CHTO   H72 7875   4.371   8.115   7.600 -1.7956 -0.0792 -0.2317
   19CHTO   O27 7876   4.848   7.878   7.979  0.0491 -0.4189 -0.1531
   19CHTO   C37 7877   4.961   7.951   8.024  0.1220  0.4068  0.7764
   19CHTO   H79 7878   5.043   7.878   8.034  0.8350  1.2001  0.7996
   19CHTO   C38 7879   4.990   8.046   7.907 -0.0075  0.4810  0.0518
   19CHTO   H80 7880   4.897   8.098   7.882 -0.8376 -1.2847 -0.5956
   19CHTO   O31 7881   5.033   7.971   7.791  0.0824 -0.0918  0.6160
   19CHTO   H68 7882   4.960   7.921   7.759 -1.2565  1.1831  1.5451
   19CHTO   C39 7883   5.094   8.150   7.955 -0.0607  0.4195  0.2261
   19CHTO   H81 7884   5.190   8.098   7.956  0.1659  0.8301 -0.0353
   19CHTO    N7 7885   5.123   8.261   7.856 -0.3649  0.1171  1.1289
   19CHTO   H73 7886   5.097   8.355   7.904 -0.8155  0.5565  0.0441
   19CHTO   H74 7887   5.223   8.264   7.815 -0.6854 -1.2819  0.2201
   19CHTO   C40 7888   5.066   8.210   8.095 -0.2798  0.5318 -0.3423
   19CHTO   H82 7889   4.980   8.276   8.102 -1.8630 -1.6456  1.4086
   19CHTO   O26 7890   5.052   8.103   8.192  0.3736 -0.0487  0.0343
   19CHTO   C41 7891   4.938   8.021   8.158  0.6057 -0.1225  0.5012
   19CHTO   H83 7892   4.846   8.082   8.151 -1.0151 -2.5404  0.3358
   19CHTO   C52 7893   4.914   7.916   8.271  0.1762  0.5868 -0.4081
   19CHTO   O35 7894   4.831   7.955   8.401  0.5705  0.5198 -0.4461
   19CHTO   H71 7895   4.786   7.880   8.436 -0.8477  1.9169  0.7927
   19CHTO   O28 7896   5.181   8.280   8.150 -0.3085  0.5308 -0.2393
   19CHTO   C42 7897   5.321   8.254   8.132 -0.1078 -0.8140 -0.3713
   19CHTO   H84 7898   5.340   8.244   8.025  2.2816  0.2144 -0.0827
   19CHTO   C44 7899   5.383   8.122   8.208  0.4436 -0.4371  0.1439
   19CHTO   H86 7900   5.358   8.126   8.314 -0.8250 -3.5369 -0.0042
   19CHTO   O32 7901   5.312   8.009   8.158 -0.2236  0.2744  0.0794
   19CHTO   H69 7902   5.338   7.936   8.211  0.1292  1.6767  1.8471
   19CHTO   C48 7903   5.542   8.122   8.174 -0.0177  0.5947  0.3763
   19CHTO   H90 7904   5.542   8.096   8.068  1.3589 -0.1230  0.5417
   19CHTO    N9 7905   5.612   8.002   8.236 -0.5895 -0.1384 -0.5621
   19CHTO   H77 7906   5.716   8.031   8.238 -0.6660  0.1132  0.0999
   19CHTO   H78 7907   5.581   7.993   8.339 -0.7192 -2.6280 -0.8068
   19CHTO   C51 7908   5.610   8.262   8.194 -0.3022 -0.3909  0.0196
   19CHTO   H93 7909   5.601   8.277   8.302  1.2583 -0.1473  0.1256
   19CHTO   O30 7910   5.538   8.361   8.123 -0.4486 -0.7883  0.4067
   19CHTO   C46 7911   5.406   8.380   8.175  0.2137 -0.1717 -0.0059
   19CHTO   H88 7912   5.413   8.390   8.284 -0.7773 -0.0038  0.0466
   19CHTO   C53 7913   5.339   8.506   8.113  0.0049  0.0119 -0.1354
   19CHTO   O72 7914   5.322   8.497   7.969  0.2545  0.5019 -0.1882
   19CHTO  H199 7915   5.280   8.417   7.944 -1.6688  1.4127  0.0369
   19CHTO   O22 7916   5.743   8.266   8.142  0.3980 -0.1637 -0.1340
   19CHTO   C31 7917   5.876   8.320   8.188  0.2088  0.3286  0.1571
   19CHTO   H59 7918   5.905   8.404   8.122 -2.8922  2.1486  0.9998
   19CHTO   C29 7919   5.878   8.378   8.334 -0.8577  0.7598  0.2206
   19CHTO   H57 7920   5.844   8.303   8.406 -0.0297 -0.5279 -0.6879
   19CHTO   O21 7921   5.784   8.484   8.354  0.5004  0.3370 -0.3825
   19CHTO   H37 7922   5.782   8.547   8.285 -0.3258 -1.3273 -1.9505
   19CHTO   C27 7923   6.025   8.422   8.373 -0.5476  0.9084 -0.4895
   19CHTO   H55 7924   6.057   8.512   8.318  0.1325  1.5491  0.9070
   19CHTO    N5 7925   6.040   8.447   8.518  0.1277  0.6077  0.1999
   19CHTO   H43 7926   6.042   8.358   8.579 -0.1733 -0.9080 -1.9433
   19CHTO   H44 7927   5.952   8.504   8.542 -0.9007 -0.8011 -0.1348
   19CHTO   C25 7928   6.142   8.325   8.332  0.3523  0.0285  0.0752
   19CHTO   H53 7929   6.133   8.240   8.402  1.0476  1.3447  1.7929
   19CHTO   O17 7930   6.119   8.273   8.194 -0.4835 -1.1925 -0.2163
   19CHTO   C32 7931   5.993   8.211   8.184 -0.0116 -0.1469 -0.0689
   19CHTO   H60 7932   5.977   8.135   8.260  2.8883 -2.5004 -1.7384
   19CHTO   C36 7933   5.995   8.133   8.049  0.2789 -0.0104 -0.3975
   19CHTO   O25 7934   6.049   8.211   7.944  0.2288 -0.1229  0.1759
   19CHTO   H40 7935   6.017   8.194   7.858  0.9062 -1.9450  0.2482
   19CHTO   O15 7936   6.290   8.401   8.325  0.4781 -0.0574 -0.7413
   19CHTO   C19 7937   6.426   8.360   8.363  0.2196 -0.6472  0.2892
   19CHTO   H47 7938   6.461   8.459   8.395 -0.3339 -0.4199  0.1878
   19CHTO   C20 7939   6.427   8.257   8.482  0.0371 -0.4543 -0.6770
   19CHTO   H48 7940   6.375   8.164   8.456  1.1061 -1.0766 -0.6305
   19CHTO   O19 7941   6.361   8.319   8.597  0.4885 -0.0688 -0.1398
   19CHTO   H35 7942   6.272   8.323   8.570 -0.0484  1.3839  1.7719
   19CHTO   C21 7943   6.573   8.210   8.516  0.0224  0.3401  0.6073
   19CHTO   H49 7944   6.624   8.293   8.566  1.7143 -0.3062  0.0065
   19CHTO    N4 7945   6.575   8.095   8.611  0.3082  0.3404 -0.1307
   19CHTO   H41 7946   6.500   8.104   8.688  0.8059  2.0066  0.1906
   19CHTO   H42 7947   6.671   8.073   8.655 -0.4983 -3.1830 -0.0242
   19CHTO   C22 7948   6.650   8.183   8.381  0.1120  0.5260  0.1000
   19CHTO   H50 7949   6.604   8.093   8.338  2.3055 -1.7233  2.2678
   19CHTO   O14 7950   6.657   8.294   8.296  1.0275  1.0933  0.0874
   19CHTO   C23 7951   6.519   8.317   8.248 -0.9030 -0.2229 -0.1265
   19CHTO   H51 7952   6.488   8.222   8.201 -1.9123 -1.2438  2.5102
   19CHTO   C34 7953   6.521   8.417   8.131  0.3229 -0.3979 -0.7317
   19CHTO   O23 7954   6.599   8.365   8.023  0.8618 -0.1807  0.3591
   19CHTO   H38 7955   6.669   8.306   8.043  0.1419 -0.2860  2.6538
   19CHTO   O16 7956   6.790   8.160   8.408  0.1564  0.4002 -0.2707
   19CHTO   C24 7957   6.861   8.027   8.302  0.7473  0.2904 -0.0531
   19CHTO   H52 7958   6.966   8.046   8.283  1.0193 -0.5319  0.6248
   19CHTO   C26 7959   6.795   8.026   8.164 -0.6369 -0.3225 -0.1500
   19CHTO   H54 7960   6.685   8.024   8.178 -0.5924  1.2245  0.5983
   19CHTO   O20 7961   6.843   8.152   8.096 -0.4719  0.6274 -0.1210
   19CHTO   H36 7962   6.933   8.171   8.115 -0.8062  0.8338  1.2784
   19CHTO   C30 7963   6.831   7.905   8.078 -0.7404 -0.2728 -0.5384
   19CHTO   H58 7964   6.925   7.930   8.027 -1.0642 -0.2292 -1.1231
   19CHTO    N6 7965   6.735   7.886   7.968  0.1087  0.2525  0.3246
   19CHTO   H45 7966   6.724   7.975   7.907  2.0069  0.4009  0.1811
   19CHTO   H46 7967   6.637   7.848   7.994  0.3244 -0.4265  0.1506
   19CHTO   C33 7968   6.851   7.774   8.162 -0.1880 -1.1787  0.0733
   19CHTO   H61 7969   6.750   7.736   8.183 -1.0357 -1.9013 -4.7917
   19CHTO   O18 7970   6.915   7.793   8.293  0.1988 -0.4784 -0.0471
   19CHTO   C28 7971   6.851   7.891   8.376 -0.9193  0.5778 -0.3746
   19CHTO   H56 7972   6.746   7.868   8.393 -1.2156  1.2697 -1.2130
   19CHTO   C35 7973   6.921   7.874   8.515  0.1155 -0.2369  0.1458
   19CHTO   O24 7974   6.882   7.759   8.579  0.5135  0.3544  0.0491
   19CHTO   H39 7975   6.877   7.691   8.514  1.6158  0.1405  0.1666
   19CHTO    O9 7976   6.914   7.669   8.087  0.1135  0.2937 -0.2285
   19CHTO   C13 7977   6.851   7.517   8.157 -0.5954  0.1538 -0.1241
   19CHTO   H26 7978   6.774   7.542   8.233 -0.9974 -1.2447 -0.0573
   19CHTO   C11 7979   6.978   7.448   8.225  0.5009 -0.0558  0.0192
   19CHTO   H24 7980   6.989   7.504   8.320 -0.4906  0.0445  0.0800
   19CHTO    O8 7981   7.093   7.462   8.141 -0.4555  0.0393 -0.9001
   19CHTO    H3 7982   7.122   7.551   8.152 -1.4173  0.1847  0.5572
   19CHTO    C9 7983   6.940   7.304   8.258 -0.0104 -0.1511 -0.1032
   19CHTO   H22 7984   6.850   7.313   8.321  2.6614  2.1232  3.5535
   19CHTO    N2 7985   7.026   7.230   8.350  0.2137  0.2010  0.5599
   19CHTO   H10 7986   6.957   7.196   8.426 -1.0851 -0.3096 -0.8306
   19CHTO   H11 7987   7.101   7.295   8.391  1.4610  0.6697 -2.3144
   19CHTO    C7 7988   6.909   7.226   8.122  0.0428  0.2890  0.4850
   19CHTO   H20 7989   6.808   7.180   8.135 -1.2005  1.3790 -4.1419
   19CHTO    O4 7990   6.880   7.315   8.008 -0.0840 -0.0991  0.0819
   19CHTO   C14 7991   6.789   7.425   8.043  0.1793 -0.0174  0.1279
   19CHTO   H27 7992   6.698   7.375   8.080 -1.3442  2.3685 -0.3188
   19CHTO   C18 7993   6.746   7.515   7.924 -0.7710  0.4604 -0.2305
   19CHTO   O13 7994   6.690   7.445   7.810 -0.0401 -0.4375  0.0637
   19CHTO    H7 7995   6.754   7.416   7.748 -0.2271 -0.0266 -0.3216
   19CHTO    O2 7996   7.026   7.111   8.076 -0.0564  0.2632  0.2099
   19CHTO    C1 7997   6.968   6.982   8.071  0.3335 -0.2068  0.1069
   19CHTO   H14 7998   6.859   6.979   8.092 -0.1093 -1.8962 -2.1697
   19CHTO    C2 7999   7.038   6.866   8.167 -0.0406  0.1224  0.2446
   19CHTO   H15 8000   7.147   6.872   8.154  0.0259 -0.8902  0.3396
   19CHTO    O6 8001   7.013   6.894   8.299  0.6763 -0.1235 -0.3652
   19CHTO    H1 8002   6.948   6.835   8.333  0.4713  0.5905  0.5098
   19CHTO    C3 8003   6.984   6.722   8.127  0.3683 -0.5379 -0.4333
   19CHTO   H16 8004   6.889   6.707   8.180  1.1802 -2.6853  0.4645
   19CHTO    N1 8005   7.063   6.606   8.174  0.1680  0.4107 -0.0715
   19CHTO    H8 8006   7.037   6.520   8.114 -2.3658 -0.2203  1.8630
   19CHTO    H9 8007   7.035   6.597   8.278  0.3816  2.2224  0.1584
   19CHTO    C4 8008   6.944   6.708   7.968  0.6021  0.5578  0.6268
   19CHTO   H17 8009   7.029   6.676   7.909  0.4346  1.5238 -0.1668
   19CHTO    O1 8010   6.888   6.826   7.915  0.1943 -0.0466  0.2753
   19CHTO    C5 8011   6.972   6.937   7.923  0.2352  0.2023 -0.7363
   19CHTO   H18 8012   7.075   6.915   7.894  0.3531  0.9345 -0.8668
   19CHTO   C16 8013   6.905   7.041   7.825 -0.3533  0.6183 -0.0863
   19CHTO   O11 8014   6.894   7.005   7.688 -0.0817 -0.0579 -0.6470
   19CHTO    H5 8015   6.877   6.914   7.679 -0.2107  0.1710 -3.1067
   19CHTO    O3 8016   6.837   6.615   7.951 -0.2102 -0.2044 -0.3155
   19CHTO    C6 8017   6.862   6.488   7.882  0.3404 -0.0192 -0.7794
   19CHTO   H19 8018   6.968   6.467   7.872  0.5636  0.2834  0.8760
   19CHTO    C8 8019   6.794   6.382   7.962  0.1901  0.2329  0.3912
   19CHTO   H21 8020   6.689   6.410   7.969  0.6765  1.5788  2.8065
   19CHTO    O7 8021   6.860   6.381   8.093  0.3769 -0.4924  0.4551
   19CHTO    H2 8022   6.793   6.357   8.154 -0.1476 -1.8511 -0.6145
   19CHTO   C12 8023   6.807   6.243   7.892 -0.0774  0.6672 -0.4320
   19CHTO   H25 8024   6.915   6.216   7.896  0.0325  1.1848  0.1959
   19CHTO    N3 8025   6.720   6.141   7.967  0.3747  0.3595 -0.2555
   19CHTO   H12 8026   6.766   6.134   8.064 -0.9536  1.6651  0.4821
   19CHTO   H13 8027   6.733   6.044   7.921  3.2146  0.4643  0.2312
   19CHTO   C15 8028   6.762   6.255   7.744 -0.4579 -0.2747  0.1604
   19CHTO   H28 8029   6.654   6.270   7.737 -0.3595 -0.5160 -2.1447
   19CHTO   O10 8030   6.808   6.130   7.673  0.7065 -0.1897  0.7347
   19CHTO    H4 8031   6.895   6.116   7.704  0.8530  0.3709  0.5813
   19CHTO    O5 8032   6.829   6.358   7.675  0.2335 -0.0779  0.1692
   19CHTO   C10 8033   6.807   6.487   7.734 -0.4264 -0.4698  0.5358
   19CHTO   H23 8034   6.701   6.513   7.740 -0.1925  0.8218 -0.6620
   19CHTO   C17 8035   6.890   6.583   7.645 -0.0508  0.0908 -1.0318
   19CHTO   O12 8036   6.820   6.662   7.542 -0.6278 -0.0783  0.1373
   19CHTO    H6 8037   6.879   6.724   7.504 -0.5619 -0.6117 -0.6548
   20CHTO  H203 8038   6.443   1.357   7.862  0.2430 -0.8503  2.0988
   20CHTO   O82 8039   6.519   1.412   7.868 -0.3622  0.2099  0.3796
   20CHTO  C123 8040   6.492   1.545   7.834  0.4793 -0.5065  0.2316
   20CHTO  H227 8041   6.410   1.545   7.761 -1.1370 -0.1396  1.9872
   20CHTO   O77 8042   6.442   1.605   7.962  0.0367 -0.4023 -0.2610
   20CHTO  C118 8043   6.368   1.723   7.939 -0.1091 -0.5453  0.1891
   20CHTO  H222 8044   6.294   1.697   7.863  1.4654 -3.0500 -0.5650
   20CHTO  C125 8045   6.295   1.773   8.069  0.6853 -0.2779 -0.1803
   20CHTO   O84 8046   6.199   1.677   8.114  0.1318 -0.0899 -0.2780
   20CHTO  H205 8047   6.142   1.656   8.042 -0.6715 -0.2603  0.3960
   20CHTO  C114 8048   6.460   1.831   7.896 -0.7138 -0.2283  0.5941
   20CHTO  H218 8049   6.521   1.861   7.981  0.3742  0.5036 -0.4206
   20CHTO  C116 8050   6.558   1.790   7.779  0.4180 -0.3297  0.3314
   20CHTO  H220 8051   6.502   1.813   7.686 -0.6141 -0.7347  0.8445
   20CHTO   O79 8052   6.672   1.876   7.782 -0.1319 -0.1862  0.0112
   20CHTO  H201 8053   6.746   1.834   7.743 -0.8056  0.2529 -1.8124
   20CHTO  C120 8054   6.606   1.635   7.784 -1.0037  0.6626  0.0180
   20CHTO  H224 8055   6.693   1.635   7.853 -1.8298  0.3940  1.0700
   20CHTO   N21 8056   6.656   1.588   7.652 -0.3021 -0.5876  0.2870
   20CHTO  H211 8057   6.722   1.503   7.652  0.5194  0.0486 -0.6688
   20CHTO  H212 8058   6.583   1.588   7.572  0.7483 -2.1086 -0.6856
   20CHTO   O75 8059   6.374   1.938   7.854 -0.1507 -0.1809 -0.3917
   20CHTO  C112 8060   6.431   2.072   7.894 -0.0416 -0.0588 -0.0893
   20CHTO  H216 8061   6.538   2.061   7.914  0.2975  0.1872 -1.7305
   20CHTO   O73 8062   6.358   2.119   8.013  0.0046 -0.0056  0.2248
   20CHTO  C113 8063   6.425   2.232   8.073  0.2852  0.7601  0.3823
   20CHTO  H217 8064   6.533   2.213   8.092 -0.0548 -3.3401 -1.1912
   20CHTO  C124 8065   6.354   2.258   8.204 -0.1406 -0.0540 -0.5786
   20CHTO   O83 8066   6.340   2.150   8.297 -0.2204  0.5473 -0.0788
   20CHTO  H204 8067   6.272   2.166   8.359  2.0794  0.7198  2.4988
   20CHTO  C109 8068   6.413   2.358   7.981  0.0194  0.6720 -0.1178
   20CHTO  H213 8069   6.309   2.393   7.983  0.9146  3.3948  2.2719
   20CHTO  C110 8070   6.463   2.322   7.835  0.3469  0.1784 -0.1904
   20CHTO  H214 8071   6.571   2.334   7.824  0.6901 -1.3928  1.1062
   20CHTO   O78 8072   6.412   2.422   7.747  0.4203 -0.3454 -0.6461
   20CHTO  H200 8073   6.368   2.495   7.786  1.3474 -1.2011  2.1119
   20CHTO  C111 8074   6.416   2.185   7.790 -1.0172 -0.1073 -0.4506
   20CHTO  H215 8075   6.307   2.188   7.775 -1.0310 -0.7580 -0.4646
   20CHTO   N19 8076   6.472   2.140   7.652  0.0952  0.0489 -0.6519
   20CHTO  H207 8077   6.579   2.148   7.640  0.7903 -1.1348  3.8487
   20CHTO  H208 8078   6.444   2.037   7.633 -1.9229  0.8473 -2.2182
   20CHTO   O74 8079   6.495   2.469   8.020 -0.1638 -0.0969  0.8654
   20CHTO  C115 8080   6.402   2.610   8.090 -0.1045  0.0115 -0.0301
   20CHTO  H219 8081   6.300   2.583   8.118 -0.5469  0.8865 -0.7509
   20CHTO   O76 8082   6.463   2.658   8.215  0.0146 -0.2933  0.5691
   20CHTO  C122 8083   6.601   2.700   8.204  0.1146 -0.0998  0.1646
   20CHTO  H226 8084   6.660   2.610   8.223  0.5627 -0.0423 -0.9102
   20CHTO  C126 8085   6.619   2.804   8.318  0.3182  0.4725  0.2675
   20CHTO   O85 8086   6.754   2.847   8.339  0.3579 -0.1229  0.2089
   20CHTO  H206 8087   6.759   2.918   8.400 -2.8047 -1.3244  1.9847
   20CHTO  C121 8088   6.639   2.767   8.070  0.9852 -0.2061  0.0189
   20CHTO  H225 8089   6.717   2.845   8.080  1.4320 -0.5855 -0.4698
   20CHTO   O81 8090   6.697   2.664   7.991 -0.6741 -0.2908  0.1431
   20CHTO  H202 8091   6.789   2.648   7.995 -0.5606  0.7559  4.0347
   20CHTO  C119 8092   6.521   2.832   8.003 -0.6196 -0.4247  0.2010
   20CHTO  H223 8093   6.487   2.910   8.071 -0.2624  1.2174 -1.4742
   20CHTO  C117 8094   6.401   2.725   7.977 -0.8698 -0.2386 -0.3768
   20CHTO  H221 8095   6.417   2.671   7.884  1.0105 -0.8870  0.2983
   20CHTO   N20 8096   6.267   2.786   7.965 -0.0505  0.3831 -0.4841
   20CHTO  H209 8097   6.243   2.812   8.067  1.4500  0.0689 -0.0400
   20CHTO  H210 8098   6.270   2.872   7.900  0.2499  0.5009 -0.3191
   20CHTO   O80 8099   6.557   2.929   7.861  0.0384 -0.5675 -0.7886
   20CHTO  C103 8100   6.501   3.052   7.849 -0.6402  0.1870  0.3843
   20CHTO  H190 8101   6.409   3.078   7.900 -1.0121  0.6662 -0.5257
   20CHTO  C101 8102   6.600   3.169   7.896  0.5366  0.5240  0.1914
   20CHTO  H188 8103   6.698   3.152   7.850 -0.4950 -0.8193 -1.6183
   20CHTO   O68 8104   6.610   3.154   8.058 -0.0781 -0.4846  0.4918
   20CHTO  H168 8105   6.524   3.141   8.095  0.0726  1.8371  1.7835
   20CHTO   C99 8106   6.550   3.316   7.852 -0.5962 -0.6829 -0.2060
   20CHTO  H186 8107   6.448   3.335   7.892 -0.6925  1.7050 -1.4710
   20CHTO   N17 8108   6.646   3.424   7.888  0.3686 -0.4356 -0.4002
   20CHTO  H174 8109   6.629   3.512   7.827 -0.8694  0.0420  0.5914
   20CHTO  H175 8110   6.622   3.456   7.989  1.8657  0.6726 -0.3836
   20CHTO   C97 8111   6.531   3.309   7.697 -1.0297 -0.4631  0.3861
   20CHTO  H184 8112   6.625   3.284   7.646 -0.9163 -1.2014  0.9575
   20CHTO   O64 8113   6.432   3.209   7.678 -0.2584 -0.2567 -0.2322
   20CHTO  C104 8114   6.474   3.072   7.688  0.6694  0.0507  0.7344
   20CHTO  H191 8115   6.559   3.039   7.628 -0.2472  0.9622 -1.1332
   20CHTO  C108 8116   6.353   2.997   7.634 -0.2329 -0.7042 -0.3407
   20CHTO   O71 8117   6.370   2.851   7.648  0.1160 -0.2401  0.0104
   20CHTO  H171 8118   6.297   2.807   7.610 -0.5979 -0.2189  1.3400
   20CHTO   O62 8119   6.484   3.432   7.635 -0.1683  1.1065  0.3143
   20CHTO   C91 8120   6.484   3.429   7.491 -0.2304 -0.1752 -0.4676
   20CHTO  H178 8121   6.502   3.330   7.448 -0.2466 -0.6955  0.6987
   20CHTO   C92 8122   6.612   3.520   7.446  0.1838  0.6905  0.6707
   20CHTO  H179 8123   6.612   3.611   7.509 -0.4668  0.4730  0.9886
   20CHTO   O66 8124   6.728   3.451   7.488 -0.0634  0.1378  0.1865
   20CHTO  H166 8125   6.807   3.494   7.462 -0.5588  0.1239 -1.3948
   20CHTO   C93 8126   6.620   3.557   7.290 -1.1333 -0.9730  1.0310
   20CHTO  H180 8127   6.662   3.475   7.230  1.3214  0.8693  0.1642
   20CHTO   N16 8128   6.704   3.676   7.263 -0.3908 -0.1047 -0.3062
   20CHTO  H172 8129   6.714   3.686   7.156  0.0897 -1.2216 -0.3690
   20CHTO  H173 8130   6.674   3.769   7.309  0.3969 -1.0457  2.1957
   20CHTO   C94 8131   6.479   3.582   7.227  0.3525 -0.6771 -0.4488
   20CHTO  H181 8132   6.430   3.671   7.265  0.2120 -0.7272 -0.5106
   20CHTO   O61 8133   6.391   3.481   7.274  0.1891  0.3929  0.8632
   20CHTO   C95 8134   6.363   3.485   7.413 -0.5194 -0.4179 -0.3674
   20CHTO  H182 8135   6.355   3.588   7.447 -0.2070 -0.8777  1.1328
   20CHTO  C106 8136   6.238   3.403   7.449 -0.4707  0.0832 -0.2326
   20CHTO   O69 8137   6.117   3.438   7.384  0.0651  0.9222 -0.0594
   20CHTO  H169 8138   6.069   3.500   7.435 -1.7338 -0.4768  0.0077
   20CHTO   O63 8139   6.474   3.590   7.060 -0.0494 -0.3530  0.0939
   20CHTO   C96 8140   6.490   3.469   6.990  0.3207 -1.0505 -0.0639
   20CHTO  H183 8141   6.538   3.404   7.063  0.6560 -1.5429 -0.7239
   20CHTO   C98 8142   6.582   3.475   6.870  0.6954 -0.5476  0.0947
   20CHTO  H185 8143   6.679   3.520   6.896  0.1371  1.3964 -1.0828
   20CHTO   O67 8144   6.621   3.343   6.827  1.0061  0.1191  0.0321
   20CHTO  H167 8145   6.666   3.356   6.746 -0.8094  0.1601 -0.9943
   20CHTO  C102 8146   6.512   3.562   6.747  0.2265 -1.0037  0.0792
   20CHTO  H189 8147   6.555   3.519   6.656 -0.0589 -1.7009  0.2652
   20CHTO   N18 8148   6.542   3.707   6.742  0.0379  0.0237  0.5237
   20CHTO  H176 8149   6.497   3.758   6.826  0.6203 -0.8379  1.3890
   20CHTO  H177 8150   6.527   3.743   6.642 -0.6490  1.1574  1.0347
   20CHTO  C105 8151   6.358   3.531   6.741 -0.8258 -0.6300  0.1715
   20CHTO  H192 8152   6.304   3.616   6.783  0.5779  0.6484 -0.5543
   20CHTO   O65 8153   6.326   3.412   6.811 -0.6370 -0.1317  0.0470
   20CHTO  C100 8154   6.352   3.408   6.954  0.2599  0.1191 -0.5995
   20CHTO  H187 8155   6.272   3.459   7.010  1.0436 -0.9519  1.5828
   20CHTO  C107 8156   6.339   3.260   7.001  0.0435  0.2472 -0.4929
   20CHTO   O70 8157   6.351   3.247   7.146  0.1095 -0.0780  0.2256
   20CHTO  H170 8158   6.435   3.222   7.178  0.0086 -0.4192  0.2286
   20CHTO   O57 8159   6.317   3.520   6.570  0.1174 -0.4526  0.0329
   20CHTO   C85 8160   6.179   3.558   6.544 -0.0565 -0.2628 -0.0895
   20CHTO  H157 8161   6.163   3.653   6.599 -1.2150  0.3424 -1.4369
   20CHTO   C83 8162   6.078   3.456   6.610  0.4620 -0.5100 -0.0444
   20CHTO  H155 8163   6.091   3.455   6.718 -1.1226 -0.4676  0.1521
   20CHTO   O56 8164   6.118   3.324   6.568  0.2092 -0.0113  0.0294
   20CHTO  H135 8165   6.211   3.315   6.572  0.0133 -1.5029  1.6676
   20CHTO   C81 8166   5.933   3.504   6.577 -0.3423 -0.4296  0.4156
   20CHTO  H153 8167   5.924   3.606   6.616 -0.3039  0.4298 -1.7626
   20CHTO   N14 8168   5.830   3.416   6.650 -0.1319  0.2597 -0.6871
   20CHTO  H141 8169   5.733   3.461   6.640 -1.5469 -1.4918  3.6147
   20CHTO  H142 8170   5.856   3.416   6.754 -2.7706 -2.6080  0.0566
   20CHTO   C79 8171   5.908   3.513   6.423 -0.4833  0.1766  0.6233
   20CHTO  H151 8172   5.808   3.554   6.411 -0.4975 -0.2613 -0.9069
   20CHTO   O52 8173   6.005   3.605   6.358  0.1197 -0.1507 -0.2401
   20CHTO   C86 8174   6.148   3.574   6.390 -0.2450  0.2819 -0.7126
   20CHTO  H158 8175   6.165   3.483   6.329  0.4686 -0.4319  0.5260
   20CHTO   C90 8176   6.237   3.691   6.325 -0.3388  0.8537 -0.2682
   20CHTO   O60 8177   6.375   3.664   6.344 -0.5785  0.3137  0.3252
   20CHTO  H138 8178   6.398   3.612   6.270  1.5096 -0.0128  1.1704
   20CHTO   O50 8179   5.918   3.387   6.351  0.3377  0.0382 -0.2690
   20CHTO   C73 8180   5.905   3.343   6.212  0.4967  0.9137  0.0215
   20CHTO  H145 8181   5.968   3.398   6.141 -0.5624 -0.6301 -2.1982
   20CHTO   C74 8182   5.754   3.344   6.170 -0.2162 -0.5481 -0.7720
   20CHTO  H146 8183   5.723   3.447   6.190 -0.4996 -0.8471  0.3284
   20CHTO   O54 8184   5.748   3.321   6.032  0.4892 -0.3391  0.2826
   20CHTO  H133 8185   5.661   3.291   6.013 -0.3880  2.2546  0.1051
   20CHTO   C75 8186   5.678   3.237   6.259 -0.9932  0.7536 -0.7806
   20CHTO  H147 8187   5.683   3.267   6.365 -0.3084  0.1430 -0.6307
   20CHTO   N13 8188   5.529   3.233   6.228 -0.5670  0.1150  0.1070
   20CHTO  H139 8189   5.480   3.304   6.292 -1.8694 -2.9082  2.5867
   20CHTO  H140 8190   5.494   3.134   6.255 -0.5499  0.2236  0.5230
   20CHTO   C76 8191   5.750   3.095   6.273 -0.3318  0.0669  0.2287
   20CHTO  H148 8192   5.749   3.062   6.169  2.0787  0.2930  0.0955
   20CHTO   O49 8193   5.896   3.123   6.311 -0.5831 -0.1102 -0.8778
   20CHTO   C77 8194   5.953   3.197   6.203  0.0217 -0.1159 -0.7839
   20CHTO  H149 8195   5.944   3.164   6.100 -1.1124 -0.7045 -0.5007
   20CHTO   C88 8196   6.104   3.188   6.239  0.1805 -0.0544  0.4479
   20CHTO   O58 8197   6.188   3.191   6.125 -0.3028 -0.1645  0.9418
   20CHTO  H136 8198   6.169   3.118   6.070  0.9988 -0.2889  0.6238
   20CHTO   O51 8199   5.671   2.999   6.373 -0.5480  0.5886  0.0180
   20CHTO   C78 8200   5.734   2.849   6.389 -0.6311  0.6978 -0.0619
   20CHTO  H150 8201   5.845   2.843   6.390 -0.6531  0.2709  0.9593
   20CHTO   C80 8202   5.676   2.740   6.298  0.0562 -0.2933 -0.1049
   20CHTO  H152 8203   5.565   2.743   6.307  0.2047  1.0177  1.4144
   20CHTO   O55 8204   5.705   2.779   6.165  0.3447  0.7374  0.1542
   20CHTO  H134 8205   5.681   2.869   6.155 -0.4084  0.6181  0.8364
   20CHTO   C84 8206   5.716   2.590   6.336  0.0007  0.2675 -0.2581
   20CHTO  H156 8207   5.822   2.578   6.317 -0.1326  0.4819 -1.1832
   20CHTO   N15 8208   5.642   2.488   6.252 -0.4428  0.2473  0.0224
   20CHTO  H143 8209   5.559   2.441   6.301  0.0406 -0.6438 -0.0195
   20CHTO  H144 8210   5.610   2.524   6.157 -0.8984 -0.7489 -0.2125
   20CHTO   C87 8211   5.693   2.564   6.486 -0.6986 -0.3972 -0.3050
   20CHTO  H159 8212   5.588   2.570   6.516 -0.1152  0.8994  1.6207
   20CHTO   O53 8213   5.770   2.672   6.553 -0.3042 -0.2374  0.1837
   20CHTO   C82 8214   5.696   2.794   6.531 -0.0443  0.0113 -0.3468
   20CHTO  H154 8215   5.591   2.773   6.550  0.1600 -0.4587  0.3017
   20CHTO   C89 8216   5.747   2.895   6.634  0.4458  0.0227  0.0469
   20CHTO   O59 8217   5.752   2.844   6.767  0.1299 -0.2246 -0.3039
   20CHTO  H137 8218   5.796   2.899   6.829  0.2871 -0.9823  0.2704
   20CHTO   O45 8219   5.786   2.417   6.527 -0.7834  0.1603 -0.1978
   20CHTO   C67 8220   5.790   2.391   6.671 -0.5063 -0.3704 -0.4948
   20CHTO  H124 8221   5.807   2.487   6.721  0.3110 -0.9309  0.3205
   20CHTO   C65 8222   5.655   2.330   6.728  0.1533 -0.0897 -0.6065
   20CHTO  H122 8223   5.606   2.296   6.637 -0.4081 -3.3632  0.8641
   20CHTO   O44 8224   5.582   2.447   6.780  0.3924  0.2342  0.1710
   20CHTO  H102 8225   5.492   2.423   6.785  0.3624 -0.3238 -2.4126
   20CHTO   C63 8226   5.678   2.200   6.816  1.2589 -0.4110 -0.1015
   20CHTO  H120 8227   5.706   2.121   6.747 -1.9579 -0.2449 -1.7145
   20CHTO   N11 8228   5.549   2.142   6.869  0.2887 -0.4372 -0.0130
   20CHTO  H108 8229   5.566   2.050   6.921 -0.0018  0.3389  1.4923
   20CHTO  H109 8230   5.492   2.213   6.926 -1.4645 -1.6353 -0.2088
   20CHTO   C61 8231   5.790   2.233   6.916  0.7522 -0.4445 -0.1413
   20CHTO  H118 8232   5.809   2.145   6.979 -1.6937 -0.2661  0.8760
   20CHTO   O40 8233   5.916   2.276   6.865 -0.4200  0.2081  0.6459
   20CHTO   C68 8234   5.912   2.295   6.714 -0.3089 -0.9067  1.0153
   20CHTO  H125 8235   5.901   2.191   6.679 -0.8266 -0.4382 -0.2569
   20CHTO   C72 8236   6.054   2.338   6.670 -0.3271  0.6280 -0.6056
   20CHTO   O48 8237   6.099   2.451   6.751 -0.1157  0.3195  0.0528
   20CHTO  H105 8238   6.181   2.431   6.793  0.1451 -0.4992 -0.8484
   20CHTO   O38 8239   5.755   2.344   7.005  0.3495  0.3157 -0.3320
   20CHTO   C55 8240   5.822   2.351   7.136  0.7439 -0.1866 -0.0502
   20CHTO  H112 8241   5.930   2.339   7.119  0.6524 -0.6754 -0.3042
   20CHTO   C56 8242   5.763   2.240   7.238 -0.7884 -1.2539 -0.1197
   20CHTO  H113 8243   5.654   2.255   7.230 -0.4037  1.6556 -0.1164
   20CHTO   O42 8244   5.790   2.104   7.197  0.1224 -0.6697 -0.0916
   20CHTO  H100 8245   5.719   2.054   7.233 -0.1351  0.6579  1.2958
   20CHTO   C57 8246   5.810   2.258   7.387 -0.3797  0.1311 -0.3025
   20CHTO  H114 8247   5.918   2.245   7.394 -0.5586 -1.3983 -0.3795
   20CHTO   N10 8248   5.745   2.183   7.500 -0.2218 -0.3736  0.3223
   20CHTO  H106 8249   5.721   2.086   7.459 -1.5959  0.8207 -1.8534
   20CHTO  H107 8250   5.819   2.178   7.578 -1.3927 -0.3233  1.4516
   20CHTO   C58 8251   5.787   2.411   7.427 -0.6107  0.1119  0.4839
   20CHTO  H115 8252   5.680   2.437   7.415 -0.2657  0.4786 -2.2379
   20CHTO   O37 8253   5.861   2.497   7.333  0.9847 -0.2077  0.1550
   20CHTO   C59 8254   5.803   2.489   7.207 -0.3451  0.1850  0.0161
   20CHTO  H116 8255   5.698   2.518   7.206  0.3147  2.6850 -2.1906
   20CHTO   C70 8256   5.864   2.606   7.119  0.6636  0.4497  0.3619
   20CHTO   O46 8257   5.804   2.632   6.987 -0.3453 -0.2136 -0.2088
   20CHTO  H103 8258   5.813   2.552   6.940  1.2445  1.0958 -2.2230
   20CHTO   O39 8259   5.851   2.457   7.576  0.5602  0.1883  0.2316
   20CHTO   C60 8260   5.866   2.598   7.595 -0.0136 -0.7565 -0.0234
   20CHTO  H117 8261   5.869   2.656   7.503 -3.2586 -0.3923  0.0523
   20CHTO   C62 8262   5.742   2.651   7.686 -0.3723 -0.9739  0.4508
   20CHTO  H119 8263   5.652   2.634   7.622  1.9651 -1.2164 -2.9140
   20CHTO   O43 8264   5.732   2.571   7.801  0.2188 -0.3546 -0.2609
   20CHTO  H101 8265   5.714   2.482   7.780  0.1593 -0.6100  0.8216
   20CHTO   C66 8266   5.749   2.809   7.713 -0.5531  1.4104 -0.7089
   20CHTO  H123 8267   5.740   2.863   7.619  1.8659  2.4016 -0.4160
   20CHTO   N12 8268   5.626   2.852   7.778  0.3289  0.2241 -0.4653
   20CHTO  H110 8269   5.631   2.882   7.882  0.9721  0.6343 -0.6097
   20CHTO  H111 8270   5.541   2.787   7.764  0.3269  0.1110  0.0300
   20CHTO   C69 8271   5.876   2.844   7.783 -0.2725 -0.7861  0.2403
   20CHTO  H126 8272   5.865   2.788   7.878  0.3554 -2.4193 -0.6292
   20CHTO   O41 8273   6.005   2.788   7.699 -0.1265  0.0883  0.4570
   20CHTO   C64 8274   5.999   2.630   7.669  0.1237 -0.1466  0.0785
   20CHTO  H121 8275   6.005   2.572   7.764  1.5811  3.5959  2.3631
   20CHTO   C71 8276   6.127   2.602   7.584 -0.0578 -0.3344 -0.0390
   20CHTO   O47 8277   6.155   2.466   7.588 -0.9456 -1.0817 -0.3383
   20CHTO  H104 8278   6.123   2.416   7.661  1.4844 -1.3032  0.6516
   20CHTO   O34 8279   5.898   2.983   7.818  0.0735  0.0150 -0.1672
   20CHTO   C49 8280   5.921   3.142   7.823 -0.1396  0.1941  0.3212
   20CHTO   H91 8281   5.910   3.174   7.927  1.2327  1.1326  0.1949
   20CHTO   C47 8282   5.812   3.204   7.737 -0.4447  0.2728 -0.0583
   20CHTO   H89 8283   5.834   3.313   7.747 -1.7886  0.6719 -1.3017
   20CHTO   O33 8284   5.682   3.184   7.792  0.0567  0.1239  0.2059
   20CHTO   H70 8285   5.676   3.098   7.830  2.3165 -0.0895  0.1934
   20CHTO   C45 8286   5.825   3.154   7.581  0.2094 -0.1017 -1.2119
   20CHTO   H87 8287   5.767   3.062   7.568  3.0156 -2.0528 -0.3059
   20CHTO    N8 8288   5.772   3.254   7.497 -0.6305  0.5908 -0.1649
   20CHTO   H75 8289   5.682   3.213   7.454  0.0663 -1.7800  0.5980
   20CHTO   H76 8290   5.848   3.297   7.433  0.0718  1.4285  1.1933
   20CHTO   C43 8291   5.969   3.105   7.546 -0.4422 -0.7339 -0.1200
   20CHTO   H85 8292   5.976   3.004   7.585 -0.0662 -0.6109  0.1340
   20CHTO   O29 8293   6.064   3.195   7.617  0.2493 -0.0879  0.2218
   20CHTO   C50 8294   6.054   3.183   7.763  0.6841 -0.6049  0.1425
   20CHTO   H92 8295   6.129   3.106   7.787  0.9751 -0.7024 -1.0156
   20CHTO   C54 8296   6.109   3.314   7.835 -0.4818  0.1262 -0.0534
   20CHTO   O36 8297   6.217   3.382   7.774  0.0962 -0.2972  0.0954
   20CHTO   H72 8298   6.201   3.469   7.803  0.5317 -0.5761  1.2236
   20CHTO   O27 8299   5.992   3.094   7.404  0.0454  0.7802 -0.1227
   20CHTO   C37 8300   5.970   3.010   7.286 -0.0585  0.3765 -0.4535
   20CHTO   H79 8301   5.895   2.933   7.309  0.5344  0.4492  1.8373
   20CHTO   C38 8302   5.904   3.097   7.176  0.3418 -0.2552 -0.4340
   20CHTO   H80 8303   5.945   3.199   7.188 -0.1418 -0.2068  0.8593
   20CHTO   O31 8304   5.762   3.105   7.204  0.0049  0.4431 -0.2654
   20CHTO   H68 8305   5.748   3.180   7.257  1.7146  2.1812 -2.1847
   20CHTO   C39 8306   5.933   3.037   7.027  0.1107  0.5503 -0.1543
   20CHTO   H81 8307   5.853   2.966   7.005  0.6271  0.1534 -0.7736
   20CHTO    N7 8308   5.926   3.161   6.944  0.4415 -0.4337  0.7503
   20CHTO   H73 8309   5.981   3.240   6.994  0.1051  0.9700 -1.0652
   20CHTO   H74 8310   5.935   3.150   6.837  1.2324  2.2346  0.4959
   20CHTO   C40 8311   6.070   2.970   7.011 -0.3235  0.0749  0.5853
   20CHTO   H82 8312   6.149   3.045   7.007  0.1685 -0.5122 -1.4169
   20CHTO   O26 8313   6.089   2.879   7.123  0.5643  0.1438  0.6697
   20CHTO   C41 8314   6.105   2.951   7.238  0.5230 -0.6144 -0.5670
   20CHTO   H83 8315   6.165   3.041   7.220  0.3083 -0.6013 -1.2295
   20CHTO   C52 8316   6.172   2.864   7.355  0.2431 -0.0942 -0.1676
   20CHTO   O35 8317   6.309   2.784   7.317  0.1630  0.6226 -1.2223
   20CHTO   H71 8318   6.365   2.777   7.391  0.4983 -0.7106 -1.5835
   20CHTO   O28 8319   6.072   2.886   6.889 -0.1653  0.7082 -0.2325
   20CHTO   C42 8320   6.184   2.854   6.812 -0.0523 -0.5674  0.5280
   20CHTO   H84 8321   6.148   2.775   6.746  0.3372 -0.0180 -0.3497
   20CHTO   C44 8322   6.313   2.796   6.884 -0.8244  0.2512  0.1812
   20CHTO   H86 8323   6.362   2.875   6.940 -1.5638 -0.3240  1.6553
   20CHTO   O32 8324   6.284   2.675   6.964  0.0450 -0.2063  0.3001
   20CHTO   H69 8325   6.317   2.679   7.052  1.4534 -1.1065 -0.1630
   20CHTO   C48 8326   6.417   2.761   6.774  0.3424 -0.0797 -0.5814
   20CHTO   H90 8327   6.385   2.677   6.713 -1.6503 -0.8784  1.4732
   20CHTO    N9 8328   6.551   2.713   6.834  0.1442  0.5759 -0.1745
   20CHTO   H77 8329   6.569   2.776   6.921 -0.5755  0.0648  0.3531
   20CHTO   H78 8330   6.546   2.612   6.873  0.0532  0.4355 -0.5481
   20CHTO   C51 8331   6.452   2.885   6.680  0.3325 -0.0963  0.3660
   20CHTO   H93 8332   6.506   2.961   6.737  0.0241  1.8838 -1.8800
   20CHTO   O30 8333   6.335   2.936   6.618 -0.2526  0.1189  0.3361
   20CHTO   C46 8334   6.218   2.974   6.719 -0.3664  0.1493 -0.1137
   20CHTO   H88 8335   6.250   3.062   6.775  2.0589 -0.3107 -0.7210
   20CHTO   C53 8336   6.100   3.005   6.631  0.2233  0.2541  0.1705
   20CHTO   O72 8337   6.073   2.903   6.541  0.5094  0.4198 -0.0709
   20CHTO  H199 8338   5.990   2.860   6.539  0.6991 -0.1289  2.4401
   20CHTO   O22 8339   6.529   2.859   6.565  0.1754 -0.2315  0.5216
   20CHTO   C31 8340   6.604   2.959   6.485 -0.2138 -0.1191 -0.1188
   20CHTO   H59 8341   6.635   2.909   6.391 -0.3187 -2.3238  0.9973
   20CHTO   C29 8342   6.517   3.080   6.439  0.0165 -0.1310 -0.3457
   20CHTO   H57 8343   6.448   3.112   6.518  2.1354  3.4976  0.1110
   20CHTO   O21 8344   6.432   3.034   6.331  0.0615  0.0281  0.0574
   20CHTO   H37 8345   6.361   3.095   6.332 -0.7490 -0.8938 -0.2555
   20CHTO   C27 8346   6.604   3.202   6.387  0.8490 -0.5039  0.0835
   20CHTO   H55 8347   6.654   3.175   6.293 -0.1110 -3.1727  0.3047
   20CHTO    N5 8348   6.526   3.331   6.365  0.2958 -0.0686  0.1289
   20CHTO   H43 8349   6.476   3.340   6.270  0.8922  1.2096 -0.0749
   20CHTO   H44 8350   6.602   3.408   6.363 -0.2146  0.4429  0.4505
   20CHTO   C25 8351   6.733   3.236   6.470  0.2157 -0.6099 -0.4821
   20CHTO   H53 8352   6.697   3.279   6.565  1.6520 -0.9732  0.2429
   20CHTO   O17 8353   6.812   3.116   6.492  0.0691 -0.4650 -0.6130
   20CHTO   C32 8354   6.734   3.011   6.558  0.2642  0.0198  0.6133
   20CHTO   H60 8355   6.705   3.045   6.657  0.0176  0.3671  0.4262
   20CHTO   C36 8356   6.829   2.892   6.588  0.3856 -0.5136  0.5006
   20CHTO   O25 8357   6.881   2.843   6.463  0.4227  0.4473 -0.4892
   20CHTO   H40 8358   6.951   2.904   6.448 -1.4296  2.8776  0.4498
   20CHTO   O15 8359   6.819   3.349   6.397  0.2166  0.2811  0.0067
   20CHTO   C19 8360   6.925   3.435   6.444 -0.7373  1.1087  0.1813
   20CHTO   H47 8361   6.960   3.487   6.354 -0.5218 -0.4946 -0.6622
   20CHTO   C20 8362   6.891   3.542   6.559  0.1737  0.3004 -0.1014
   20CHTO   H48 8363   6.844   3.496   6.648 -0.2477  3.9963  1.6859
   20CHTO   O19 8364   6.794   3.633   6.516  1.2684  0.7594 -0.1203
   20CHTO   H35 8365   6.776   3.695   6.584  1.8111  1.1063 -0.2926
   20CHTO   C21 8366   7.015   3.625   6.606 -0.7568 -0.9629 -0.6590
   20CHTO   H49 8367   7.043   3.699   6.531 -0.4550  0.5139  0.8774
   20CHTO    N4 8368   6.985   3.694   6.733  0.0574 -0.0371 -0.2507
   20CHTO   H41 8369   6.943   3.627   6.807 -0.2288 -0.4436 -0.7832
   20CHTO   H42 8370   6.921   3.779   6.715  3.6174  2.7613 -0.2029
   20CHTO   C22 8371   7.141   3.537   6.629 -0.1008 -0.4520 -0.5671
   20CHTO   H50 8372   7.127   3.489   6.726 -0.7153 -0.2175 -0.5355
   20CHTO   O14 8373   7.151   3.445   6.514  0.6130 -0.2117  0.1170
   20CHTO   C23 8374   7.039   3.353   6.494  0.4521 -0.4829 -0.0397
   20CHTO   H51 8375   7.013   3.293   6.583  0.5552 -0.1552  0.2123
   20CHTO   C34 8376   7.071   3.249   6.387  0.1206 -0.2303  0.0836
   20CHTO   O23 8377   7.170   3.161   6.438 -0.3715 -0.0906 -0.6426
   20CHTO   H38 8378   7.141   3.120   6.517 -0.2426 -2.6799 -1.8677
   20CHTO   O16 8379   7.260   3.622   6.628 -0.2302 -0.0177 -0.1836
   20CHTO   C24 8380   7.377   3.543   6.702  0.1466  0.1023  0.7579
   20CHTO   H52 8381   7.353   3.438   6.715 -0.2764  0.2937  1.5185
   20CHTO   C26 8382   7.426   3.593   6.838  0.2621  0.2105  0.2444
   20CHTO   H54 8383   7.467   3.695   6.825 -0.4963  0.2511 -1.9723
   20CHTO   O20 8384   7.314   3.608   6.933  0.5426  0.3650 -0.0542
   20CHTO   H36 8385   7.263   3.684   6.914 -0.0767  0.4201  1.7375
   20CHTO   C30 8386   7.538   3.498   6.888 -0.6245 -0.1101 -0.6320
   20CHTO   H58 8387   7.499   3.402   6.922  2.0018 -1.0122 -0.0675
   20CHTO    N6 8388   7.596   3.553   7.018 -0.0817 -0.1454 -0.7532
   20CHTO   H45 8389   7.664   3.636   7.003 -2.9503  2.4309 -0.0439
   20CHTO   H46 8390   7.648   3.469   7.061 -0.6392  0.9091  2.1086
   20CHTO   C33 8391   7.654   3.470   6.782  0.5003 -0.5636  0.5947
   20CHTO   H61 8392   7.726   3.553   6.786  1.2177 -1.1813  0.6774
   20CHTO   O18 8393   7.595   3.457   6.650 -0.0566  0.0613  0.2143
   20CHTO   C28 8394   7.495   3.546   6.604 -0.4799  0.4461 -0.0406
   20CHTO   H56 8395   7.537   3.646   6.596  1.6828 -0.3890  0.5912
   20CHTO   C35 8396   7.456   3.506   6.458 -0.7681  0.2266  0.3241
   20CHTO   O24 8397   7.552   3.519   6.351  0.0879 -0.0008  0.4901
   20CHTO   H39 8398   7.640   3.533   6.382  0.1276  1.9997 -0.4672
   20CHTO    O9 8399   7.725   3.348   6.820  1.1405 -0.3316  0.7306
   20CHTO   C13 8400   7.787   3.251   6.677 -0.0513  0.0995 -1.1620
   20CHTO   H26 8401   7.868   3.314   6.633  0.5023 -0.6972 -1.2823
   20CHTO   C11 8402   7.685   3.206   6.569 -1.3256 -0.2670 -0.5293
   20CHTO   H24 8403   7.670   3.294   6.504  0.1192 -0.1345 -0.7002
   20CHTO    O8 8404   7.561   3.179   6.636 -0.1836 -0.2115 -0.0418
   20CHTO    H3 8405   7.574   3.113   6.702  1.1670  0.3754  0.2855
   20CHTO    C9 8406   7.737   3.093   6.477 -0.1725  0.2751 -0.0233
   20CHTO   H22 8407   7.835   3.124   6.439 -1.1598  1.4089 -1.6700
   20CHTO    N2 8408   7.660   3.066   6.353  0.4324 -0.2149  0.2492
   20CHTO   H10 8409   7.558   3.034   6.371  0.0562  0.4003 -0.6935
   20CHTO   H11 8410   7.709   2.987   6.299  0.1664  0.0059 -0.3212
   20CHTO    C7 8411   7.755   2.966   6.569 -0.1041 -0.2041  0.2092
   20CHTO   H20 8412   7.836   2.906   6.523  0.6063  0.5782  0.4355
   20CHTO    O4 8413   7.806   2.997   6.699 -0.1226 -0.0134  0.1724
   20CHTO   C14 8414   7.869   3.129   6.723  0.5559  0.1467  0.0485
   20CHTO   H27 8415   7.966   3.136   6.669  0.7946 -2.8431  0.0331
   20CHTO   C18 8416   7.909   3.139   6.872  0.4942 -0.0063 -0.2336
   20CHTO   O13 8417   8.001   3.241   6.923  0.1447  0.3913  0.5540
   20CHTO    H7 8418   8.037   3.288   6.850  3.0853 -0.7863  1.1851
   20CHTO    O2 8419   7.604   2.865   6.575 -0.0423  0.2524  0.1509
   20CHTO    C1 8420   7.555   2.831   6.706  0.2818 -0.3589  0.4923
   20CHTO   H14 8421   7.559   2.921   6.770  1.5440 -0.3800  0.4689
   20CHTO    C2 8422   7.623   2.711   6.790 -0.0599 -0.0258 -0.1014
   20CHTO   H15 8423   7.633   2.628   6.719  1.1855 -0.3492  0.4472
   20CHTO    O6 8424   7.755   2.741   6.834  0.0503  0.4455 -0.4747
   20CHTO    H1 8425   7.797   2.680   6.892 -1.6222 -1.5350 -1.2763
   20CHTO    C3 8426   7.529   2.667   6.917  0.0062 -0.7970  0.8339
   20CHTO   H16 8427   7.544   2.734   7.003 -2.8728  2.7204 -1.2476
   20CHTO    N1 8428   7.569   2.531   6.967  0.7182  0.0005  0.0093
   20CHTO    H8 8429   7.671   2.531   7.002  0.1192 -0.4506  1.8245
   20CHTO    H9 8430   7.548   2.455   6.893  2.8211  0.7371 -1.4141
   20CHTO    C4 8431   7.374   2.677   6.891  0.1889  0.0295  0.3231
   20CHTO   H17 8432   7.340   2.590   6.835  0.5933  1.0580 -1.6008
   20CHTO    O1 8433   7.336   2.788   6.814  0.2920 -0.9748  0.4558
   20CHTO    C5 8434   7.403   2.799   6.684  0.0940  0.2361 -0.1256
   20CHTO   H18 8435   7.403   2.705   6.628 -0.2050 -0.5304  1.1512
   20CHTO   C16 8436   7.323   2.910   6.602 -0.7834  0.1475  0.4039
   20CHTO   O11 8437   7.183   2.889   6.587  0.2056  0.5235  0.8347
   20CHTO    H5 8438   7.162   2.798   6.593  0.5437  0.3711 -0.2396
   20CHTO    O3 8439   7.310   2.697   7.020  0.1232 -0.6122  0.4590
   20CHTO    C6 8440   7.186   2.628   7.044 -0.0639 -0.3577 -0.9090
   20CHTO   H19 8441   7.165   2.560   6.961  0.9791  1.0845 -2.3817
   20CHTO    C8 8442   7.197   2.536   7.181  0.1755 -0.5155 -0.0255
   20CHTO   H21 8443   7.209   2.602   7.267  1.0458  0.6072 -0.9852
   20CHTO    O7 8444   7.312   2.447   7.172  0.1432 -0.3950  0.5043
   20CHTO    H2 8445   7.303   2.392   7.247  1.0789  0.1217  1.0049
   20CHTO   C12 8446   7.067   2.464   7.210  0.5017 -0.3859  0.5384
   20CHTO   H25 8447   7.057   2.388   7.130  0.4130  0.0627  0.1185
   20CHTO    N3 8448   7.067   2.383   7.332 -0.4185  0.0435 -0.0342
   20CHTO   H12 8449   7.075   2.448   7.419 -0.9184  0.3602 -0.2194
   20CHTO   H13 8450   6.964   2.353   7.339 -0.0845 -1.2016 -0.3007
   20CHTO   C15 8451   6.947   2.561   7.199  0.7429  0.0908 -0.0951
   20CHTO   H28 8452   6.938   2.623   7.287 -0.1257  2.5797 -1.8835
   20CHTO   O10 8453   6.812   2.475   7.181  0.0830  0.0427  0.4004
   20CHTO    H4 8454   6.736   2.515   7.219 -1.8263 -2.2761 -0.8280
   20CHTO    O5 8455   6.942   2.636   7.077 -0.2143  0.0990 -0.2920
   20CHTO   C10 8456   7.062   2.718   7.060  0.4285  0.6569  0.4492
   20CHTO   H23 8457   7.078   2.778   7.150 -0.6734  0.2284  0.9368
   20CHTO   C17 8458   7.037   2.812   6.938  0.7477  0.6936  1.0129
   20CHTO   O12 8459   7.008   2.734   6.827 -0.7634  0.1726 -0.1964
   20CHTO    H6 8460   6.946   2.785   6.780  0.2300  1.0493 -0.5776
   21GLOH   H03 8461   7.083   6.604   7.155  1.0695  0.9518 -3.0839
   21GLOH    O1 8462   7.075   6.510   7.131  0.0981  0.1400  0.1109
   21GLOH    C1 8463   7.010   6.430   7.232  0.3320 -0.1507  0.3366
   21GLOH   H02 8464   6.930   6.485   7.280  1.0602  1.4475 -0.2604
   21GLOH   H08 8465   7.080   6.420   7.315 -0.1164  0.7307  0.8184
   21GLOH    C2 8466   6.991   6.281   7.202 -0.1024 -0.6507 -0.2167
   21GLOH   H04 8467   7.085   6.225   7.219 -0.3253 -0.9769 -0.0508
   21GLOH    O2 8468   6.894   6.234   7.293  0.1177  1.1058  0.0432
   21GLOH   H05 8469   6.932   6.225   7.382 -0.5817 -0.9778  0.1615
   21GLOH    C3 8470   6.944   6.261   7.056 -0.2991 -0.3207 -0.2411
   21GLOH   H06 8471   6.846   6.309   7.053 -0.4805 -0.7142 -0.8398
   21GLOH   H07 8472   6.950   6.155   7.032 -0.5927 -0.4125  0.0874
   21GLOH    O3 8473   7.030   6.337   6.972 -0.0003  0.0843  0.3887
   21GLOH   H01 8474   7.055   6.416   7.023 -1.3506  0.1857  0.9202
   22GLOH   H03 8475   1.222   9.746   4.375 -2.4165 -0.7465 -0.5620
   22GLOH    O1 8476   1.238   9.705   4.288 -0.0166 -0.2941 -0.3648
   22GLOH    C1 8477   1.118   9.636   4.247 -0.1202 -0.0159 -0.5082
   22GLOH   H02 8478   1.132   9.613   4.141 -1.2989 -2.9523 -0.0614
   22GLOH   H08 8479   1.021   9.686   4.252 -1.8797 -3.4714  1.2348
   22GLOH    C2 8480   1.104   9.506   4.322  0.3202 -0.6066  0.0033
   22GLOH   H04 8481   1.191   9.442   4.303  0.6434 -0.7403  1.7928
   22GLOH    O2 8482   1.084   9.522   4.464 -0.0228  0.7324 -0.2301
   22GLOH   H05 8483   1.142   9.585   4.509  0.6440 -1.6000  2.3122
   22GLOH    C3 8484   0.985   9.435   4.262  0.0023  0.2617 -0.4352
   22GLOH   H06 8485   0.971   9.331   4.293 -1.8901  0.4883 -0.4706
   22GLOH   H07 8486   0.996   9.426   4.154 -0.7834 -1.4529 -0.3972
   22GLOH    O3 8487   0.859   9.505   4.288 -0.5077 -0.4051 -0.3001
   22GLOH   H01 8488   0.802   9.457   4.225 -0.2162 -0.1479 -0.7631
   23GLOH   H03 8489   7.902   7.567   4.083 -0.0767 -2.5684 -1.0413
   23GLOH    O1 8490   7.820   7.548   4.132 -0.1992 -0.2995 -0.3396
   23GLOH    C1 8491   7.769   7.417   4.101  0.3974  0.0398 -0.3205
   23GLOH   H02 8492   7.841   7.338   4.124 -0.8918 -1.5487 -1.5940
   23GLOH   H08 8493   7.748   7.406   3.994  1.8931  1.9611 -0.8387
   23GLOH    C2 8494   7.632   7.386   4.173  0.4093  0.1130  0.2701
   23GLOH   H04 8495   7.652   7.344   4.273 -5.2972  0.7270  1.8587
   23GLOH    O2 8496   7.550   7.505   4.185 -0.4336 -0.1999 -0.8821
   23GLOH   H05 8497   7.594   7.548   4.261  1.4338 -1.2120 -1.3755
   23GLOH    C3 8498   7.554   7.270   4.108  0.1129  0.3457 -0.3812
   23GLOH   H06 8499   7.526   7.296   4.006 -0.7352 -0.0770 -0.2571
   23GLOH   H07 8500   7.468   7.250   4.172 -0.4858  1.0496 -0.9631
   23GLOH    O3 8501   7.634   7.144   4.099 -0.0952 -0.0651  0.6291
   23GLOH   H01 8502   7.648   7.118   4.192  0.0937  1.9998  1.1912
   24GLOH   H03 8503   0.633   3.686   4.482 -0.0744  0.2066 -1.6048
   24GLOH    O1 8504   0.538   3.678   4.505  0.3188 -0.1038 -0.0563
   24GLOH    C1 8505   0.515   3.562   4.590  0.2108  0.5232 -0.5803
   24GLOH   H02 8506   0.411   3.560   4.623  0.8476  0.7967  1.5129
   24GLOH   H08 8507   0.572   3.567   4.682 -0.1237  0.6406 -0.3780
   24GLOH    C2 8508   0.544   3.428   4.517  0.4592 -0.0163  0.9936
   24GLOH   H04 8509   0.634   3.445   4.455 -2.3803  5.7441 -2.0059
   24GLOH    O2 8510   0.567   3.319   4.607 -0.4215  0.1811 -0.5193
   24GLOH   H05 8511   0.563   3.237   4.555  1.5207 -1.5544  1.9682
   24GLOH    C3 8512   0.425   3.395   4.424  0.0469 -0.3556  0.1810
   24GLOH   H06 8513   0.337   3.360   4.478 -0.3323  1.0154  0.4591
   24GLOH   H07 8514   0.458   3.307   4.368  0.4025  1.1358 -2.0045
   24GLOH    O3 8515   0.375   3.502   4.349 -0.6766  0.2103 -0.0958
   24GLOH   H01 8516   0.447   3.533   4.291  0.3788 -1.0085  0.5091
   25GLOH   H03 8517   5.341   5.340   2.124 -2.4098 -0.7992  0.1822
   25GLOH    O1 8518   5.357   5.393   2.204 -0.4650 -0.3564 -0.4809
   25GLOH    C1 8519   5.259   5.493   2.199  0.3485 -0.2216 -0.5703
   25GLOH   H02 8520   5.164   5.442   2.186  0.4955 -0.5342 -0.4441
   25GLOH   H08 8521   5.268   5.557   2.112 -1.5907 -0.4688 -0.9561
   25GLOH    C2 8522   5.261   5.570   2.330  0.4396  0.0428 -0.8677
   25GLOH   H04 8523   5.360   5.615   2.346  1.3932 -1.9236 -1.0621
   25GLOH    O2 8524   5.166   5.679   2.325 -0.0034 -0.0424  0.0679
   25GLOH   H05 8525   5.189   5.734   2.401  0.3736 -0.2781  0.1269
   25GLOH    C3 8526   5.229   5.471   2.446  0.1513  0.7221 -0.6888
   25GLOH   H06 8527   5.129   5.430   2.433  0.8254 -0.9821 -0.6463
   25GLOH   H07 8528   5.224   5.523   2.541 -2.5992  0.1789 -0.4923
   25GLOH    O3 8529   5.326   5.362   2.450 -0.2018 -0.0813 -0.4400
   25GLOH   H01 8530   5.356   5.365   2.358  0.0442  2.0019 -0.3172
   26GLOH   H03 8531   7.500   3.276   7.477 -0.0662 -2.2892  1.4699
   26GLOH    O1 8532   7.595   3.266   7.462  0.0018 -0.1461  0.2279
   26GLOH    C1 8533   7.645   3.204   7.575 -0.1958  1.2659 -0.2205
   26GLOH   H02 8534   7.747   3.166   7.563  0.4209  2.5186  1.0129
   26GLOH   H08 8535   7.593   3.110   7.593  3.7688 -0.9211  0.6072
   26GLOH    C2 8536   7.641   3.296   7.697 -0.9410 -0.5423 -0.0506
   26GLOH   H04 8537   7.682   3.395   7.672 -0.8480 -0.4743  0.3750
   26GLOH    O2 8538   7.506   3.322   7.739 -0.3008 -0.8548 -0.4296
   26GLOH   H05 8539   7.506   3.395   7.804 -1.0931 -0.1257 -1.2487
   26GLOH    C3 8540   7.730   3.228   7.801  0.3451  0.1374 -0.9753
   26GLOH   H06 8541   7.692   3.134   7.841  0.4529  0.3090 -0.4670
   26GLOH   H07 8542   7.723   3.299   7.883  0.5071  1.4674 -2.1108
   26GLOH    O3 8543   7.870   3.206   7.770  0.4478 -0.1323 -0.2914
   26GLOH   H01 8544   7.908   3.288   7.733 -2.2873 -0.8200 -5.0098
   27GLOH   H03 8545   2.478   2.184   6.740  2.6133 -0.5139  1.7778
   27GLOH    O1 8546   2.424   2.224   6.811  0.0017 -0.0838 -0.3804
   27GLOH    C1 8547   2.401   2.366   6.800  0.3081  0.3388  0.1452
   27GLOH   H02 8548   2.456   2.407   6.715 -1.0352  1.1242 -0.3585
   27GLOH   H08 8549   2.445   2.415   6.887 -0.1078  0.6826  0.1613
   27GLOH    C2 8550   2.254   2.420   6.784  0.2531 -0.0072  0.1537
   27GLOH   H04 8551   2.201   2.394   6.691 -0.0481 -0.7119  0.5218
   27GLOH    O2 8552   2.169   2.366   6.884  0.1466 -0.1212  0.2814
   27GLOH   H05 8553   2.204   2.277   6.903  1.3913  0.5957  1.4505
   27GLOH    C3 8554   2.257   2.569   6.791  0.0554 -0.6301  0.0467
   27GLOH   H06 8555   2.297   2.597   6.888 -1.1886  1.8502 -0.0990
   27GLOH   H07 8556   2.155   2.608   6.789 -0.2040 -1.3496 -0.8475
   27GLOH    O3 8557   2.325   2.631   6.678 -0.4108  0.1356  0.4343
   27GLOH   H01 8558   2.400   2.676   6.722 -0.0736 -0.7404  0.7777
   28GLOH   H03 8559   7.395   9.292   8.505 -1.5649  0.7052  0.1513
   28GLOH    O1 8560   7.366   9.242   8.426 -0.5753  0.5682 -0.1462
   28GLOH    C1 8561   7.262   9.149   8.470  0.2806  0.7485 -0.1187
   28GLOH   H02 8562   7.300   9.067   8.531 -1.6884 -0.2577 -0.2128
   28GLOH   H08 8563   7.209   9.115   8.381 -0.1875 -2.9266  1.4973
   28GLOH    C2 8564   7.155   9.218   8.551  0.6142  0.4239  0.1517
   28GLOH   H04 8565   7.119   9.300   8.486  0.5246  0.2239 -0.0518
   28GLOH    O2 8566   7.050   9.129   8.583  0.2973 -0.7808 -0.3229
   28GLOH   H05 8567   7.069   9.036   8.564 -2.0242 -1.2711 -0.3863
   28GLOH    C3 8568   7.213   9.278   8.680 -0.0165  0.1388 -0.1140
   28GLOH   H06 8569   7.234   9.187   8.738 -1.6991 -0.1505  0.0606
   28GLOH   H07 8570   7.151   9.332   8.751 -0.1449  0.1182 -0.2113
   28GLOH    O3 8571   7.333   9.356   8.650 -0.1372  0.4792  0.4246
   28GLOH   H01 8572   7.370   9.386   8.735  1.3916  1.1485 -0.4640
   29GLOH   H03 8573   4.313   3.651   4.291  2.0111 -1.6914 -2.3552
   29GLOH    O1 8574   4.388   3.681   4.346 -0.4274  0.1820  0.0823
   29GLOH    C1 8575   4.388   3.816   4.384 -0.2923  0.3637  0.6986
   29GLOH   H02 8576   4.373   3.876   4.294  0.7387  0.9131  0.8793
   29GLOH   H08 8577   4.487   3.846   4.420 -0.4272  1.6560  0.0378
   29GLOH    C2 8578   4.287   3.863   4.491  1.1446  1.1580  0.1469
   29GLOH   H04 8579   4.188   3.867   4.443  1.8024  1.7438 -1.1696
   29GLOH    O2 8580   4.282   3.777   4.608 -0.1054 -0.4877  0.2570
   29GLOH   H05 8581   4.270   3.687   4.575  3.7229 -0.8588 -0.3613
   29GLOH    C3 8582   4.309   4.014   4.524  0.2223  0.6483 -0.7545
   29GLOH   H06 8583   4.416   4.019   4.543 -0.1106 -0.6168  1.6139
   29GLOH   H07 8584   4.270   4.037   4.623 -0.4299 -0.9065 -0.6497
   29GLOH    O3 8585   4.279   4.114   4.419  0.6186 -0.4820 -1.0208
   29GLOH   H01 8586   4.183   4.129   4.417  0.8155  1.2046  0.7031
   30GLOH   H03 8587   6.738   8.994   5.114  0.0383  0.0052 -0.6912
   30GLOH    O1 8588   6.805   8.965   5.050  0.2083  0.6788 -0.8145
   30GLOH    C1 8589   6.764   8.835   4.992 -0.1444 -1.2732  0.4537
   30GLOH   H02 8590   6.660   8.808   5.013  0.5796 -3.5554  1.3195
   30GLOH   H08 8591   6.826   8.758   5.038  1.4037  0.5483  1.4193
   30GLOH    C2 8592   6.780   8.831   4.840  0.0145  0.3024 -0.6557
   30GLOH   H04 8593   6.726   8.914   4.793 -0.5779 -0.0241 -0.5605
   30GLOH    O2 8594   6.921   8.841   4.801  0.2753  0.8920  0.5551
   30GLOH   H05 8595   6.975   8.896   4.860 -1.6130  0.1822  3.0005
   30GLOH    C3 8596   6.717   8.703   4.790 -0.2673  0.3260  0.5640
   30GLOH   H06 8597   6.761   8.619   4.845  1.2122 -0.6500 -2.0379
   30GLOH   H07 8598   6.751   8.692   4.687  0.4228  0.3200  0.7860
   30GLOH    O3 8599   6.573   8.699   4.802 -0.3423  0.3461 -0.1939
   30GLOH   H01 8600   6.545   8.663   4.889 -1.3859 -0.7536 -0.9582
   31GLOH   H03 8601   1.543   9.173   6.307  0.0820  0.3947  0.4264
   31GLOH    O1 8602   1.470   9.135   6.255  0.2717 -0.0884  0.5147
   31GLOH    C1 8603   1.523   9.091   6.124 -0.0248  0.0503  0.9004
   31GLOH   H02 8604   1.458   9.019   6.074 -0.4129  0.6874  0.4803
   31GLOH   H08 8605   1.613   9.033   6.141  1.6576  2.7082  1.3836
   31GLOH    C2 8606   1.544   9.199   6.013 -0.5164  0.5019 -0.7220
   31GLOH   H04 8607   1.449   9.254   6.001 -1.0993 -0.0866  1.1120
   31GLOH    O2 8608   1.657   9.287   6.045  0.1137 -0.3359  0.1185
   31GLOH   H05 8609   1.637   9.326   6.131 -0.3317  0.0621 -0.1624
   31GLOH    C3 8610   1.575   9.116   5.884  0.2495 -0.1124  0.0713
   31GLOH   H06 8611   1.652   9.042   5.903 -0.3782 -0.6631  0.5043
   31GLOH   H07 8612   1.619   9.182   5.810 -0.6026  0.2865 -0.0922
   31GLOH    O3 8613   1.452   9.051   5.833 -0.5334 -0.5839 -0.2729
   31GLOH   H01 8614   1.475   9.001   5.753 -0.7410  2.1517 -2.1063
   32GLOH   H03 8615   6.549   5.569   0.503 -0.0086 -0.2486 -0.4832
   32GLOH    O1 8616   6.518   5.651   0.461  0.6161  0.2200 -0.0259
   32GLOH    C1 8617   6.551   5.631   0.325 -0.1228 -0.6392  0.2250
   32GLOH   H02 8618   6.533   5.525   0.306  0.0997 -0.6317 -0.0291
   32GLOH   H08 8619   6.658   5.644   0.309 -0.3874  0.5154 -0.6577
   32GLOH    C2 8620   6.479   5.724   0.232 -0.5111 -0.1082  1.3189
   32GLOH   H04 8621   6.473   5.821   0.284 -2.0357 -0.5853  2.0526
   32GLOH    O2 8622   6.541   5.740   0.101  0.2918 -0.1764 -0.1319
   32GLOH   H05 8623   6.478   5.786   0.042  0.7486 -1.8629 -1.9698
   32GLOH    C3 8624   6.333   5.684   0.215  0.5549  0.2467 -0.3562
   32GLOH   H06 8625   6.305   5.646   0.313  1.3833  1.8105  0.4992
   32GLOH   H07 8626   6.337   5.596   0.150 -1.7833 -2.1372  2.5811
   32GLOH    O3 8627   6.259   5.799   0.181  0.7058  0.2228 -0.3989
   32GLOH   H01 8628   6.163   5.783   0.176  0.2498  1.6093  2.7026
   33GLOH   H03 8629   4.745   4.000   6.098  2.1749 -3.0204 -2.1583
   33GLOH    O1 8630   4.744   4.044   6.012  0.6534  0.6689 -0.3393
   33GLOH    C1 8631   4.828   3.967   5.921  0.3333  0.2224  0.0672
   33GLOH   H02 8632   4.842   4.022   5.828  1.8861 -0.4606 -0.1253
   33GLOH   H08 8633   4.791   3.867   5.896  0.8896  0.4580 -1.7643
   33GLOH    C2 8634   4.966   3.962   5.988 -0.5171  0.2299 -0.1220
   33GLOH   H04 8635   4.959   3.961   6.098  1.8800 -1.2811  0.0404
   33GLOH    O2 8636   5.023   3.832   5.953 -0.3836 -0.1130  0.0180
   33GLOH   H05 8637   5.098   3.820   6.014  0.3544  5.3196  0.4241
   33GLOH    C3 8638   5.063   4.086   5.949 -0.0788  0.5172  0.4936
   33GLOH   H06 8639   5.076   4.080   5.841 -2.3648 -1.1110  0.2611
   33GLOH   H07 8640   5.159   4.064   5.994 -0.5134 -3.2690 -0.2035
   33GLOH    O3 8641   5.011   4.211   5.998  0.4186  0.2130  0.5784
   33GLOH   H01 8642   4.980   4.192   6.088 -4.1138  2.0083 -0.4797
   34GLOH   H03 8643   7.523   1.952  10.076 -1.4529 -3.4905  0.1127
   34GLOH    O1 8644   7.600   1.917  10.124 -0.1089 -0.5497  0.2509
   34GLOH    C1 8645   7.566   1.781  10.153  0.1213  0.3166 -0.2739
   34GLOH   H02 8646   7.462   1.768  10.182  0.7767 -1.2992  1.4889
   34GLOH   H08 8647   7.619   1.755  10.245 -0.2663  3.5777  0.9406
   34GLOH    C2 8648   7.599   1.693  10.031  0.5055 -0.1805  0.7622
   34GLOH   H04 8649   7.708   1.686  10.021  0.1143 -1.9575 -2.8817
   34GLOH    O2 8650   7.545   1.565  10.063  0.3947  0.1068  0.5335
   34GLOH   H05 8651   7.597   1.525  10.135  0.1874 -0.6346  0.2840
   34GLOH    C3 8652   7.554   1.749   9.892  0.1456 -0.6572  0.6822
   34GLOH   H06 8653   7.446   1.754   9.879  0.3526  0.0514 -0.8845
   34GLOH   H07 8654   7.587   1.678   9.816 -0.1777  1.0454 -1.0738
   34GLOH    O3 8655   7.614   1.880   9.857  0.1377 -0.2467 -0.3946
   34GLOH   H01 8656   7.709   1.859   9.852  0.1743 -0.2598  0.2791
   35GLOH   H03 8657   1.415   3.544   1.238 -0.9246 -0.2320 -0.0650
   35GLOH    O1 8658   1.463   3.460   1.225  0.4753  0.5817 -0.2992
   35GLOH    C1 8659   1.388   3.351   1.274 -0.2492 -0.6312 -0.3454
   35GLOH   H02 8660   1.450   3.262   1.280  1.1054  0.2953 -0.2404
   35GLOH   H08 8661   1.307   3.325   1.206 -2.7505  0.1680  2.2402
   35GLOH    C2 8662   1.321   3.386   1.410 -0.0595 -0.8038  0.3318
   35GLOH   H04 8663   1.269   3.482   1.397  2.7833  0.8525  0.7116
   35GLOH    O2 8664   1.235   3.290   1.454 -0.1123  0.0143  0.5013
   35GLOH   H05 8665   1.158   3.344   1.479 -0.1341  0.6702 -0.9498
   35GLOH    C3 8666   1.435   3.421   1.509  0.8135 -1.0082 -0.7647
   35GLOH   H06 8667   1.378   3.431   1.601 -1.1489  0.4505 -2.0891
   35GLOH   H07 8668   1.459   3.525   1.486 -0.5757 -0.5199 -0.0640
   35GLOH    O3 8669   1.552   3.337   1.524 -0.6640  0.0801  0.3078
   35GLOH   H01 8670   1.631   3.365   1.474 -0.9809  1.0487  0.3283
   36GLOH   H03 8671   5.233   8.978   6.733 -0.6887 -0.1919  1.4216
   36GLOH    O1 8672   5.164   8.921   6.695  0.2792 -0.2977 -0.2560
   36GLOH    C1 8673   5.224   8.787   6.690 -0.2936  0.2762  0.4307
   36GLOH   H02 8674   5.163   8.713   6.742 -1.7479  0.2648 -1.2510
   36GLOH   H08 8675   5.325   8.784   6.732  0.9120  2.4545 -2.1692
   36GLOH    C2 8676   5.241   8.750   6.539  0.2512 -0.0850 -0.4020
   36GLOH   H04 8677   5.154   8.787   6.482  0.4324  1.0800  0.0504
   36GLOH    O2 8678   5.353   8.822   6.482 -0.1388  0.3120 -0.7858
   36GLOH   H05 8679   5.318   8.902   6.440  0.5161  0.9403 -0.1564
   36GLOH    C3 8680   5.259   8.596   6.515 -0.1429 -0.2185 -0.2420
   36GLOH   H06 8681   5.344   8.565   6.576  0.2896  0.2798 -0.5861
   36GLOH   H07 8682   5.296   8.568   6.417  1.2107 -1.1677  0.5208
   36GLOH    O3 8683   5.137   8.522   6.541 -0.0677  0.6256 -0.3350
   36GLOH   H01 8684   5.096   8.507   6.454 -0.5335  1.7207 -0.3127
   37GLOH   H03 8685   6.400   4.474  -0.110  0.2968 -1.4948  0.4413
   37GLOH    O1 8686   6.312   4.463  -0.070 -0.0684 -0.4198 -0.0218
   37GLOH    C1 8687   6.312   4.555   0.036 -0.3325 -0.5839 -0.2587
   37GLOH   H02 8688   6.303   4.658   0.000  2.2332  0.5421  2.1723
   37GLOH   H08 8689   6.402   4.560   0.096 -0.9993 -1.7414  0.8716
   37GLOH    C2 8690   6.187   4.526   0.128 -0.9400 -0.3842  0.1638
   37GLOH   H04 8691   6.196   4.420   0.156  0.4135 -0.0372  1.0929
   37GLOH    O2 8692   6.181   4.619   0.244 -1.0035 -0.4234 -0.2086
   37GLOH   H05 8693   6.128   4.576   0.313 -3.1666  1.7159 -0.4373
   37GLOH    C3 8694   6.055   4.545   0.048  0.3538 -0.2672 -0.1095
   37GLOH   H06 8695   6.055   4.643   0.001 -0.8178  0.5906  1.6367
   37GLOH   H07 8696   5.970   4.540   0.116  0.3085  0.2572 -0.1246
   37GLOH    O3 8697   6.044   4.453  -0.055  0.1980 -0.2459 -0.7113
   37GLOH   H01 8698   6.137   4.440  -0.083  0.8662  1.6703  0.5118
   38GLOH   H03 8699   0.695   8.327   5.979  0.8325 -0.9374 -1.5677
   38GLOH    O1 8700   0.611   8.284   5.957 -0.1071 -0.0181  0.1221
   38GLOH    C1 8701   0.599   8.278   5.817  0.3109  0.1223  0.1269
   38GLOH   H02 8702   0.583   8.379   5.780 -2.4073 -1.6865 -3.9982
   38GLOH   H08 8703   0.513   8.223   5.780  0.3210 -0.6860  1.2706
   38GLOH    C2 8704   0.725   8.222   5.751  0.0632  0.3139  0.3640
   38GLOH   H04 8705   0.760   8.133   5.805  0.4569  1.0200  1.2773
   38GLOH    O2 8706   0.717   8.191   5.614  0.0338 -0.2265  0.3069
   38GLOH   H05 8707   0.634   8.144   5.597 -0.6814  0.8996  0.5993
   38GLOH    C3 8708   0.852   8.315   5.778  0.0321  0.4774  0.3951
   38GLOH   H06 8709   0.832   8.400   5.712 -2.2474  0.7103  1.3446
   38GLOH   H07 8710   0.938   8.262   5.739 -1.0878 -1.3421  0.3351
   38GLOH    O3 8711   0.873   8.348   5.913  0.7672 -0.2835 -0.1571
   38GLOH   H01 8712   0.924   8.431   5.918  0.2690 -0.0221  0.8041
   39GLOH   H03 8713   8.508   3.373   6.325  1.0594 -2.3097  0.9575
   39GLOH    O1 8714   8.525   3.342   6.235  0.0827 -0.1638 -0.0075
   39GLOH    C1 8715   8.603   3.450   6.184  0.1659  0.1487 -0.3408
   39GLOH   H02 8716   8.647   3.433   6.085  0.3556 -1.0875 -0.0548
   39GLOH   H08 8717   8.689   3.468   6.248 -0.8498  0.0712  1.0587
   39GLOH    C2 8718   8.522   3.577   6.189  0.9620 -0.3650  0.8157
   39GLOH   H04 8719   8.489   3.605   6.290  1.9230  1.8615  0.5420
   39GLOH    O2 8720   8.615   3.683   6.149 -0.0190  0.0079 -0.2949
   39GLOH   H05 8721   8.689   3.692   6.211 -0.3672 -0.1991  0.1565
   39GLOH    C3 8722   8.398   3.559   6.100  0.1905 -0.1674 -0.8227
   39GLOH   H06 8723   8.331   3.490   6.151 -0.7015  0.1290 -1.5557
   39GLOH   H07 8724   8.427   3.508   6.008 -1.1324  0.3472 -1.5432
   39GLOH    O3 8725   8.327   3.679   6.062 -0.1665 -0.2806 -0.2324
   39GLOH   H01 8726   8.303   3.732   6.140  0.8944  0.9403 -0.7274
   40GLOH   H03 8727   1.391   7.102   2.566  0.6742 -1.3495 -1.8452
   40GLOH    O1 8728   1.424   7.181   2.520 -0.4942  0.1838 -0.0875
   40GLOH    C1 8729   1.367   7.183   2.384 -0.3518  0.1021 -0.1169
   40GLOH   H02 8730   1.382   7.278   2.332  2.4616 -0.9225 -1.3026
   40GLOH   H08 8731   1.261   7.158   2.372 -0.5446  0.8655 -0.0139
   40GLOH    C2 8732   1.434   7.066   2.305 -0.3246  0.5768 -0.1331
   40GLOH   H04 8733   1.419   6.975   2.364 -1.1340  0.4960 -0.4567
   40GLOH    O2 8734   1.374   7.048   2.173  0.1577  0.0945  0.0947
   40GLOH   H05 8735   1.366   6.955   2.147  1.8188 -0.2024  0.6255
   40GLOH    C3 8736   1.585   7.091   2.297  0.3963 -0.3393 -0.5690
   40GLOH   H06 8737   1.609   7.194   2.271 -2.1394  0.1458 -1.1738
   40GLOH   H07 8738   1.634   7.028   2.223  1.2106 -1.3770  0.8131
   40GLOH    O3 8739   1.644   7.068   2.426  0.4435  0.1806 -0.1103
   40GLOH   H01 8740   1.629   7.148   2.480  1.0942  0.2758 -0.0657
   41GLOH   H03 8741   8.475   6.786   5.023 -0.3273 -1.1396  0.3726
   41GLOH    O1 8742   8.547   6.746   4.971  0.2207  0.1576  0.1185
   41GLOH    C1 8743   8.575   6.824   4.854  0.5557 -0.0317 -0.7824
   41GLOH   H02 8744   8.683   6.817   4.852  0.6167  0.4740  0.2874
   41GLOH   H08 8745   8.561   6.931   4.870  1.0080 -0.0215 -0.4469
   41GLOH    C2 8746   8.527   6.757   4.723  0.3153  0.4847  0.9984
   41GLOH   H04 8747   8.422   6.726   4.736  0.2615 -0.8377 -2.0568
   41GLOH    O2 8748   8.531   6.858   4.620  0.0608 -0.0854 -0.5176
   41GLOH   H05 8749   8.605   6.917   4.643 -1.7880  1.2261  2.3825
   41GLOH    C3 8750   8.613   6.639   4.678 -1.0340 -0.0590 -0.4553
   41GLOH   H06 8751   8.574   6.605   4.582 -0.9426  1.5365 -1.0742
   41GLOH   H07 8752   8.599   6.553   4.744 -1.8657 -1.1145 -1.9455
   41GLOH    O3 8753   8.750   6.672   4.662  0.3592  0.2217  0.9521
   41GLOH   H01 8754   8.774   6.635   4.575  1.5413 -1.2246  1.8623
   42GLOH   H03 8755   5.166   9.806   4.440 -2.5019 -4.1030  0.3381
   42GLOH    O1 8756   5.197   9.790   4.349 -0.5972 -0.0862  0.1351
   42GLOH    C1 8757   5.188   9.914   4.273 -0.0502 -0.7454 -0.2596
   42GLOH   H02 8758   5.095   9.968   4.293  0.0048 -1.2495  1.4644
   42GLOH   H08 8759   5.179   9.901   4.165 -3.3814 -0.7435 -0.0410
   42GLOH    C2 8760   5.310  10.009   4.298 -0.2461 -0.1313 -0.4432
   42GLOH   H04 8761   5.297  10.095   4.231  1.0837  0.0942 -0.4277
   42GLOH    O2 8762   5.294  10.070   4.430 -0.5234 -0.0140 -0.5188
   42GLOH   H05 8763   5.348  10.011   4.486 -0.7168 -0.0815 -0.4029
   42GLOH    C3 8764   5.450   9.953   4.263  0.2674 -0.1668  0.2502
   42GLOH   H06 8765   5.441   9.855   4.311  1.2552 -1.2235 -1.6614
   42GLOH   H07 8766   5.535  10.005   4.307  1.9821 -1.5783 -1.3093
   42GLOH    O3 8767   5.479   9.931   4.124  0.2456 -0.2658 -0.3099
   42GLOH   H01 8768   5.462   9.837   4.105 -0.7765 -0.0881 -0.2749
   43GLOH   H03 8769   5.789   1.023   9.357 -0.1080 -0.1333  0.1482
   43GLOH    O1 8770   5.752   1.019   9.266  0.5466  0.2662 -0.1327
   43GLOH    C1 8771   5.606   1.004   9.284 -0.2509 -0.0733  0.1811
   43GLOH   H02 8772   5.585   0.898   9.273  0.1264 -0.0850 -0.4372
   43GLOH   H08 8773   5.558   1.045   9.195  3.3314  2.3752 -0.7370
   43GLOH    C2 8774   5.555   1.077   9.413 -0.3695 -0.0668 -0.1541
   43GLOH   H04 8775   5.603   1.175   9.408 -1.4540  0.4187 -1.3284
   43GLOH    O2 8776   5.418   1.079   9.437  0.0666 -0.2190  0.3306
   43GLOH   H05 8777   5.387   1.168   9.415  1.3134  0.0765 -0.2605
   43GLOH    C3 8778   5.612   1.009   9.534  0.1930 -0.3277 -0.3378
   43GLOH   H06 8779   5.588   0.903   9.529 -1.0922 -0.0549 -0.2231
   43GLOH   H07 8780   5.557   1.046   9.621  0.0732  0.4372 -0.7285
   43GLOH    O3 8781   5.750   1.046   9.548 -0.3546 -0.3200  0.5041
   43GLOH   H01 8782   5.757   1.109   9.622 -0.4082  0.9100 -0.5354
   44GLOH   H03 8783   0.938   2.746   0.137  0.3543 -0.0013 -0.6232
   44GLOH    O1 8784   0.931   2.839   0.107  0.0076  0.1615 -0.0427
   44GLOH    C1 8785   1.069   2.890   0.106  0.5063  0.2995 -0.2150
   44GLOH   H02 8786   1.135   2.811   0.072 -0.7594 -0.7835 -0.2091
   44GLOH   H08 8787   1.098   2.905   0.210  2.3727  0.2545 -0.7188
   44GLOH    C2 8788   1.074   3.021   0.029  0.6465  0.0929 -0.0988
   44GLOH   H04 8789   1.008   3.101   0.065  0.9053  0.3170 -0.1242
   44GLOH    O2 8790   1.212   3.079   0.035  0.5484  0.7028  0.3143
   44GLOH   H05 8791   1.226   3.147   0.103  1.7743  1.0089 -0.2119
   44GLOH    C3 8792   1.033   3.007  -0.113  0.5207  0.6589  0.2103
   44GLOH   H06 8793   1.109   2.945  -0.161 -2.0326 -1.5669 -1.1692
   44GLOH   H07 8794   1.028   3.103  -0.164 -1.1776  0.4834  0.0175
   44GLOH    O3 8795   0.907   2.931  -0.124 -0.0061 -0.2780  0.0940
   44GLOH   H01 8796   0.891   2.906  -0.031  0.8680  0.8769  0.5743
   45GLOH   H03 8797   5.943   5.867   1.847 -0.7524  0.3518 -0.1527
   45GLOH    O1 8798   6.014   5.932   1.858 -0.1625 -0.3399  0.1399
   45GLOH    C1 8799   6.110   5.868   1.947  0.0035  0.4744  0.0684
   45GLOH   H02 8800   6.194   5.934   1.966  1.1709 -0.2958 -2.1482
   45GLOH   H08 8801   6.151   5.783   1.892 -0.7043  0.3578 -0.2971
   45GLOH    C2 8802   6.035   5.833   2.081 -0.2806 -0.1657 -0.1900
   45GLOH   H04 8803   5.957   5.762   2.050  0.1732 -0.5957 -0.3679
   45GLOH    O2 8804   6.117   5.764   2.183 -0.3457 -0.2446  1.0342
   45GLOH   H05 8805   6.053   5.701   2.220 -1.5581  0.2657 -0.1124
   45GLOH    C3 8806   5.965   5.947   2.143 -0.0144 -0.5661  0.0275
   45GLOH   H06 8807   6.034   6.031   2.141 -0.3549 -0.3028 -1.5743
   45GLOH   H07 8808   5.927   5.919   2.242 -2.8739 -1.0333 -1.1510
   45GLOH    O3 8809   5.855   5.987   2.065  0.5192  0.1720  0.0693
   45GLOH   H01 8810   5.895   6.007   1.978 -1.1907 -0.8017 -0.9718
   46GLOH   H03 8811   9.427   3.878   7.932 -0.7976  0.2512 -0.4705
   46GLOH    O1 8812   9.383   3.911   8.013 -0.0656  0.2726 -0.0719
   46GLOH    C1 8813   9.478   3.997   8.078  0.0972 -0.1126  0.0807
   46GLOH   H02 8814   9.511   3.953   8.172  0.0871  1.2298  0.7261
   46GLOH   H08 8815   9.431   4.094   8.093 -0.6044 -0.1888 -1.5999
   46GLOH    C2 8816   9.609   4.013   7.998  0.5953  0.1345  0.2961
   46GLOH   H04 8817   9.576   4.083   7.920 -1.2120 -0.1802  0.7483
   46GLOH    O2 8818   9.706   4.082   8.071 -0.5128  0.2206 -0.0425
   46GLOH   H05 8819   9.762   4.018   8.119 -1.2130  0.7652  1.5406
   46GLOH    C3 8820   9.639   3.880   7.919 -0.4864 -0.1198  0.4579
   46GLOH   H06 8821   9.640   3.798   7.991 -1.3221  0.6746  1.3670
   46GLOH   H07 8822   9.742   3.888   7.885 -0.4630  0.0745  0.5751
   46GLOH    O3 8823   9.549   3.869   7.806 -0.2230 -0.0671 -0.3253
   46GLOH   H01 8824   9.538   3.775   7.780  0.6264 -0.4062  0.5129
   47GLOH   H03 8825   9.692   6.026   9.625  1.1863  2.7233 -2.0134
   47GLOH    O1 8826   9.684   5.965   9.550  0.2744  0.0134  0.1814
   47GLOH    C1 8827   9.748   6.028   9.435 -0.1803 -0.1996 -0.1780
   47GLOH   H02 8828   9.768   5.961   9.352  2.1574  2.5451 -1.9512
   47GLOH   H08 8829   9.841   6.071   9.473  0.1779 -0.4463 -0.7662
   47GLOH    C2 8830   9.653   6.137   9.381 -0.1781 -0.0351  0.5576
   47GLOH   H04 8831   9.672   6.220   9.451  1.8177 -0.8038  0.9351
   47GLOH    O2 8832   9.701   6.185   9.252 -0.2949 -0.3356  0.3721
   47GLOH   H05 8833   9.669   6.129   9.178 -0.7715  2.3726 -1.5278
   47GLOH    C3 8834   9.503   6.097   9.369 -0.1451  0.0631  0.4794
   47GLOH   H06 8835   9.507   5.990   9.349 -0.0671  0.3513 -1.0986
   47GLOH   H07 8836   9.461   6.132   9.274 -1.0342  1.6048  1.4293
   47GLOH    O3 8837   9.422   6.113   9.488  0.0307  0.1716  0.6608
   47GLOH   H01 8838   9.330   6.114   9.455  1.0195  0.1540 -2.2584
   48GLOH   H03 8839   0.725   7.415   0.831  0.3695 -1.5958 -0.8389
   48GLOH    O1 8840   0.646   7.434   0.777  0.0710 -0.8173 -0.1354
   48GLOH    C1 8841   0.635   7.344   0.660 -0.1765  0.5410  0.1153
   48GLOH   H02 8842   0.532   7.324   0.629 -0.4932 -0.9228  2.0356
   48GLOH   H08 8843   0.680   7.249   0.689 -0.7087  1.4168  4.1180
   48GLOH    C2 8844   0.718   7.384   0.539 -0.3208 -0.2615 -0.4855
   48GLOH   H04 8845   0.709   7.493   0.527  2.7566 -0.0107 -0.8037
   48GLOH    O2 8846   0.854   7.346   0.571 -0.2926  0.3046 -0.1473
   48GLOH   H05 8847   0.885   7.414   0.633  0.6108 -0.8392  0.6885
   48GLOH    C3 8848   0.670   7.308   0.413 -0.6032  1.1376  0.5741
   48GLOH   H06 8849   0.748   7.309   0.337 -1.5998 -0.2986 -0.4906
   48GLOH   H07 8850   0.583   7.357   0.368 -1.6120 -1.8442 -0.8146
   48GLOH    O3 8851   0.646   7.165   0.446 -0.5060  0.5658  0.3178
   48GLOH   H01 8852   0.729   7.116   0.433 -0.6051  0.0228  1.6797
   49GLOH   H03 8853   4.540   8.831   9.699 -0.4699 -0.2018 -0.0915
   49GLOH    O1 8854   4.549   8.927   9.716 -0.4409 -0.2410  0.1188
   49GLOH    C1 8855   4.568   8.949   9.854 -0.3882  0.3145 -0.2110
   49GLOH   H02 8856   4.554   9.055   9.874  1.3233  0.1293  2.2071
   49GLOH   H08 8857   4.671   8.923   9.880 -0.2379  1.9723  0.8721
   49GLOH    C2 8858   4.487   8.865   9.955 -0.2600 -0.3258 -0.3457
   49GLOH   H04 8859   4.378   8.875   9.951 -0.6055 -3.8788 -1.6941
   49GLOH    O2 8860   4.514   8.725   9.927  0.7121 -0.6917 -0.1151
   49GLOH   H05 8861   4.496   8.714   9.832 -0.9358  1.3642 -0.0813
   49GLOH    C3 8862   4.534   8.905  10.099 -0.4839  0.4638  0.3931
   49GLOH   H06 8863   4.642   8.919  10.091 -0.6886  1.5644 -0.5508
   49GLOH   H07 8864   4.520   8.823  10.169  0.2357  0.1661  0.2012
   49GLOH    O3 8865   4.475   9.033  10.131  0.0484  0.2643  0.4034
   49GLOH   H01 8866   4.379   9.029  10.114  0.2418 -1.7333 -0.2886
   50GLOH   H03 8867   3.111   8.721   1.256  1.3820 -0.2866 -1.5246
   50GLOH    O1 8868   3.021   8.714   1.220  0.8018 -0.2834 -0.0962
   50GLOH    C1 8869   2.919   8.728   1.317 -0.5984  0.2453  0.4079
   50GLOH   H02 8870   2.826   8.696   1.269 -2.1053  2.2078  1.9564
   50GLOH   H08 8871   2.904   8.831   1.348 -3.5838 -0.3087  1.0415
   50GLOH    C2 8872   2.928   8.631   1.438  0.2767 -0.2188  0.4127
   50GLOH   H04 8873   2.947   8.530   1.399  1.1104 -1.0191  2.7746
   50GLOH    O2 8874   3.044   8.668   1.519 -0.3170  0.1964  0.3588
   50GLOH   H05 8875   3.062   8.763   1.507 -1.2074 -0.1754 -4.9438
   50GLOH    C3 8876   2.801   8.634   1.522  0.6201  0.1266  0.3492
   50GLOH   H06 8877   2.781   8.732   1.567  0.9837  0.4713 -0.2362
   50GLOH   H07 8878   2.815   8.571   1.610  0.4939 -0.8748 -0.3409
   50GLOH    O3 8879   2.690   8.581   1.447  0.3589  0.0076 -0.0618
   50GLOH   H01 8880   2.604   8.626   1.456 -1.1993 -2.7782 -0.2671
   51GLOH   H03 8881   1.426   0.517   3.801  0.0210  1.1034 -3.5530
   51GLOH    O1 8882   1.472   0.593   3.841 -0.2457 -0.0795 -0.8936
   51GLOH    C1 8883   1.455   0.601   3.982  0.4569  0.5186  0.9839
   51GLOH   H02 8884   1.455   0.503   4.030  0.3540  0.7104  1.3750
   51GLOH   H08 8885   1.360   0.650   4.000  1.0216  0.4984  4.3728
   51GLOH    C2 8886   1.561   0.691   4.041 -0.3653 -0.2279 -0.7380
   51GLOH   H04 8887   1.533   0.796   4.026  0.2742 -0.2015 -1.8607
   51GLOH    O2 8888   1.563   0.666   4.180 -0.4594 -0.3874  0.5369
   51GLOH   H05 8889   1.503   0.727   4.226  1.9332  2.1116  0.4612
   51GLOH    C3 8890   1.701   0.672   3.982 -0.0448 -0.1999 -0.0986
   51GLOH   H06 8891   1.739   0.572   4.003 -1.9089 -1.3137 -1.8354
   51GLOH   H07 8892   1.762   0.740   4.041 -0.4987  0.0802  0.0535
   51GLOH    O3 8893   1.693   0.704   3.839 -0.2013 -0.0582 -0.5406
   51GLOH   H01 8894   1.621   0.647   3.805  1.0970 -1.0923 -1.5852
   52GLOH   H03 8895   5.800   9.367   8.126 -0.1331 -0.3952 -0.1114
   52GLOH    O1 8896   5.831   9.434   8.063 -0.2981  0.1609  0.3956
   52GLOH    C1 8897   5.869   9.361   7.941 -0.3830  0.1264 -0.1989
   52GLOH   H02 8898   5.964   9.402   7.908 -0.7447  2.1038  1.1203
   52GLOH   H08 8899   5.794   9.370   7.862 -3.0408  2.6654  2.4471
   52GLOH    C2 8900   5.895   9.208   7.959 -0.1547  0.1146  0.6391
   52GLOH   H04 8901   5.959   9.197   8.048  1.1665 -2.2464 -0.5736
   52GLOH    O2 8902   5.778   9.125   7.998 -0.7566  0.0652 -0.2036
   52GLOH   H05 8903   5.701   9.136   7.940 -0.1232  1.7921 -0.7469
   52GLOH    C3 8904   5.951   9.144   7.828  0.0119  0.3273  0.2136
   52GLOH   H06 8905   5.874   9.147   7.751 -0.2680  0.0185  0.4792
   52GLOH   H07 8906   5.951   9.036   7.846 -1.2502  0.8708  3.9515
   52GLOH    O3 8907   6.068   9.212   7.782 -0.1057  0.0192  0.3860
   52GLOH   H01 8908   6.130   9.206   7.857 -1.7126 -2.5047  1.5828
   53GLOH   H03 8909   4.993   0.550   2.783 -1.0789  2.3441  0.9249
   53GLOH    O1 8910   5.082   0.577   2.813  0.0763 -0.1387 -0.1196
   53GLOH    C1 8911   5.077   0.604   2.956  0.2719 -0.0154 -0.8746
   53GLOH   H02 8912   5.011   0.530   3.002  2.8579 -1.5060  0.5777
   53GLOH   H08 8913   5.042   0.706   2.972 -0.0124 -0.3918  1.0059
   53GLOH    C2 8914   5.211   0.592   3.033  0.7615 -0.7686  0.2217
   53GLOH   H04 8915   5.273   0.681   3.020 -1.3069  0.3731 -2.2858
   53GLOH    O2 8916   5.198   0.583   3.177 -0.5877  0.7007  0.0642
   53GLOH   H05 8917   5.159   0.494   3.187  0.7109  0.2261  0.9216
   53GLOH    C3 8918   5.294   0.476   2.979 -0.2237  0.2251 -0.0289
   53GLOH   H06 8919   5.242   0.383   3.002 -2.9566  1.1017 -2.3477
   53GLOH   H07 8920   5.383   0.472   3.043 -0.8157 -0.1135  0.7844
   53GLOH    O3 8921   5.332   0.481   2.838 -0.1286 -0.5715 -0.4918
   53GLOH   H01 8922   5.247   0.508   2.799 -0.0089 -1.0700 -1.1020
   54GLOH   H03 8923   9.697   5.088   8.909 -0.2476  2.5923 -1.3718
   54GLOH    O1 8924   9.767   5.106   8.975 -0.2783 -0.2962 -0.4986
   54GLOH    C1 8925   9.887   5.058   8.921  0.3073 -0.0180  0.3821
   54GLOH   H02 8926   9.949   5.147   8.909 -0.3052  0.7029  2.3600
   54GLOH   H08 8927   9.880   5.008   8.824  0.2260  0.8412 -0.0620
   54GLOH    C2 8928   9.960   4.962   9.018 -0.4028 -0.4011  0.5641
   54GLOH   H04 8929   9.890   4.879   9.036 -1.1557 -0.6375 -2.9912
   54GLOH    O2 8930  10.083   4.930   8.953 -0.1379 -0.1606 -0.6382
   54GLOH   H05 8931  10.067   4.906   8.860  2.8920 -1.7347 -0.8595
   54GLOH    C3 8932   9.988   5.029   9.154 -0.0757  0.7556 -0.8584
   54GLOH   H06 8933   9.901   5.079   9.198  0.5249  0.6337  0.4976
   54GLOH   H07 8934  10.063   5.106   9.141  2.3088 -1.0753  1.5066
   54GLOH    O3 8935  10.035   4.936   9.253  0.0933 -1.0505  0.0116
   54GLOH   H01 8936  10.069   4.987   9.329  3.3739  0.2043 -2.1794
   55GLOH   H03 8937   4.615   6.543   2.533 -0.7951 -0.2129  0.1667
   55GLOH    O1 8938   4.641   6.479   2.463 -0.2033  0.3615 -0.1431
   55GLOH    C1 8939   4.665   6.357   2.527 -0.4683  0.0023 -0.4001
   55GLOH   H02 8940   4.664   6.281   2.449 -1.7120 -0.3864 -0.0149
   55GLOH   H08 8941   4.580   6.338   2.593  0.2092  1.2140  0.8699
   55GLOH    C2 8942   4.800   6.363   2.610  0.1502  0.2162  0.1962
   55GLOH   H04 8943   4.814   6.456   2.668 -0.7846 -0.5272  1.6572
   55GLOH    O2 8944   4.801   6.254   2.701 -0.0727  0.7180  0.0327
   55GLOH   H05 8945   4.722   6.261   2.757 -0.4015 -2.5800  0.0965
   55GLOH    C3 8946   4.922   6.333   2.529 -0.5616  0.2042 -0.2437
   55GLOH   H06 8947   4.915   6.235   2.481 -0.6559  0.4900 -0.8138
   55GLOH   H07 8948   5.013   6.336   2.590  0.1981 -0.4392 -1.3180
   55GLOH    O3 8949   4.948   6.422   2.423  0.4651  0.3692 -0.3731
   55GLOH   H01 8950   4.879   6.409   2.356 -0.5109 -0.5122  0.7846
   56GLOH   H03 8951   9.052   7.667   3.904  3.4152  1.0859  1.1332
   56GLOH    O1 8952   9.066   7.722   3.825  0.5061 -0.0274 -0.2124
   56GLOH    C1 8953   9.172   7.656   3.758 -0.8920 -0.5141  0.1693
   56GLOH   H02 8954   9.157   7.548   3.759 -0.9787 -0.4999  0.3703
   56GLOH   H08 8955   9.260   7.681   3.818 -2.3425  1.1111  1.6731
   56GLOH    C2 8956   9.209   7.706   3.615  0.3909  0.0062 -0.0771
   56GLOH   H04 8957   9.210   7.816   3.615  1.6231 -0.0042  0.3832
   56GLOH    O2 8958   9.330   7.646   3.569 -0.8363  0.4672 -0.4592
   56GLOH   H05 8959   9.396   7.672   3.636 -0.6728  0.0164 -0.4425
   56GLOH    C3 8960   9.091   7.654   3.528 -0.2147 -0.4462 -0.0116
   56GLOH   H06 8961   9.107   7.673   3.421 -0.5753 -2.3287 -0.4122
   56GLOH   H07 8962   8.994   7.697   3.555 -0.5800 -1.5494  0.4651
   56GLOH    O3 8963   9.078   7.517   3.539  0.0031 -0.5178  0.1803
   56GLOH   H01 8964   8.983   7.499   3.533 -0.2170  0.6493 -0.0284
   57GLOH   H03 8965   5.845   3.490   8.941  0.6830  0.0626  0.4159
   57GLOH    O1 8966   5.828   3.584   8.964  0.1408  0.0571  0.0523
   57GLOH    C1 8967   5.910   3.629   9.075  0.3732 -0.2480 -0.3788
   57GLOH   H02 8968   5.882   3.731   9.099 -1.9143 -0.9975  0.1808
   57GLOH   H08 8969   6.018   3.631   9.056  0.0823  1.1372 -2.0178
   57GLOH    C2 8970   5.886   3.544   9.203  0.2875  0.3897 -0.4303
   57GLOH   H04 8971   5.917   3.446   9.163 -0.6169 -0.4417  0.8873
   57GLOH    O2 8972   5.981   3.592   9.303  0.5390  0.3102  0.3111
   57GLOH   H05 8973   6.055   3.528   9.305  0.3221  0.0373 -0.3799
   57GLOH    C3 8974   5.743   3.545   9.257  0.0991 -0.1498  0.1106
   57GLOH   H06 8975   5.704   3.646   9.243 -0.9076 -0.7648 -1.7680
   57GLOH   H07 8976   5.737   3.516   9.361  0.0767  0.2753  0.2307
   57GLOH    O3 8977   5.659   3.460   9.184 -0.0100  0.2518 -0.4423
   57GLOH   H01 8978   5.629   3.513   9.107  0.7949  1.5070  0.1020
   58GLOH   H03 8979   0.569   4.767   7.381  1.1580 -0.4927 -0.7568
   58GLOH    O1 8980   0.550   4.674   7.401  0.5953 -0.2172 -0.0222
   58GLOH    C1 8981   0.661   4.594   7.438  0.1328  0.7257  0.1357
   58GLOH   H02 8982   0.616   4.498   7.464  0.8617 -0.2451 -2.1035
   58GLOH   H08 8983   0.720   4.624   7.525  1.5440 -0.2278 -0.4999
   58GLOH    C2 8984   0.747   4.571   7.314 -0.2551 -0.4005  0.1678
   58GLOH   H04 8985   0.770   4.663   7.259  1.2026  0.3448  1.9449
   58GLOH    O2 8986   0.865   4.496   7.354  0.5313 -0.1364 -0.1260
   58GLOH   H05 8987   0.934   4.559   7.380  1.8713 -1.2991 -0.7802
   58GLOH    C3 8988   0.664   4.485   7.219 -0.5172 -0.2729  0.4518
   58GLOH   H06 8989   0.577   4.543   7.191 -0.1326 -0.7333 -1.7767
   58GLOH   H07 8990   0.631   4.394   7.269  0.1104 -0.6878  0.1265
   58GLOH    O3 8991   0.722   4.440   7.097 -0.0970 -0.1830 -0.5813
   58GLOH   H01 8992   0.676   4.490   7.027  0.6205  1.0287 -0.1955
   59GLOH   H03 8993   4.002   1.383   3.041 -2.2024 -1.8493  2.1988
   59GLOH    O1 8994   4.025   1.301   2.995  0.5039  0.0293  0.0226
   59GLOH    C1 8995   3.978   1.312   2.863 -0.6779  0.2240  0.2495
   59GLOH   H02 8996   3.985   1.217   2.809  0.1956  0.1430  0.4909
   59GLOH   H08 8997   4.045   1.372   2.801 -0.5500  2.0298  2.1131
   59GLOH    C2 8998   3.833   1.369   2.837  0.2489 -0.1679  0.5728
   59GLOH   H04 8999   3.812   1.367   2.729 -2.5287  0.9359  1.0357
   59GLOH    O2 9000   3.730   1.292   2.906 -0.2429  0.3413  0.1163
   59GLOH   H05 9001   3.728   1.198   2.883  1.2302  0.3361 -0.0674
   59GLOH    C3 9002   3.837   1.520   2.876  0.0850  0.0582 -0.0118
   59GLOH   H06 9003   3.872   1.512   2.979 -3.9250 -2.9624  1.2830
   59GLOH   H07 9004   3.738   1.564   2.866 -0.7625 -1.7213  0.2039
   59GLOH    O3 9005   3.937   1.587   2.796 -0.0543 -0.0403  0.0364
   59GLOH   H01 9006   3.949   1.669   2.847  1.0361 -0.4487  0.4517
   60GLOH   H03 9007   3.028   1.065   3.488  1.6790 -0.0526  1.5248
   60GLOH    O1 9008   3.076   1.111   3.417 -0.4111 -0.1090  0.0472
   60GLOH    C1 9009   2.987   1.152   3.315 -0.3974 -0.2844  0.2626
   60GLOH   H02 9010   2.923   1.068   3.288  1.8268 -1.6425 -0.9421
   60GLOH   H08 9011   3.047   1.161   3.225 -1.3512 -0.6264 -0.4169
   60GLOH    C2 9012   2.909   1.283   3.330  0.3829  0.5167  0.1335
   60GLOH   H04 9013   2.978   1.367   3.345 -0.7108  1.4126  0.2734
   60GLOH    O2 9014   2.832   1.306   3.211  0.4726 -0.0343 -0.3799
   60GLOH   H05 9015   2.886   1.295   3.130  0.9915  0.9197 -0.1753
   60GLOH    C3 9016   2.830   1.282   3.464 -0.0405 -0.0257 -0.7584
   60GLOH   H06 9017   2.784   1.184   3.475 -4.2183  1.8959 -0.0453
   60GLOH   H07 9018   2.752   1.358   3.452 -0.7906  0.1049  3.9965
   60GLOH    O3 9019   2.904   1.325   3.578  0.1402 -0.5837 -0.0718
   60GLOH   H01 9020   2.975   1.261   3.594  0.2818 -0.2085  0.7896
   61GLOH   H03 9021   0.676   2.996   5.031 -0.7764 -1.0425 -1.9798
   61GLOH    O1 9022   0.762   3.024   4.995 -0.2150 -0.2094 -0.0611
   61GLOH    C1 9023   0.728   3.139   4.910  0.0833 -0.5545  0.1190
   61GLOH   H02 9024   0.683   3.212   4.977 -1.4773 -1.4775  0.1062
   61GLOH   H08 9025   0.660   3.115   4.829 -0.6811  1.1960  0.2395
   61GLOH    C2 9026   0.859   3.189   4.841  0.7170 -0.1318 -0.1077
   61GLOH   H04 9027   0.908   3.101   4.798 -1.4225 -2.4543  2.0867
   61GLOH    O2 9028   0.825   3.287   4.737 -0.0282 -0.3324  0.5801
   61GLOH   H05 9029   0.731   3.286   4.712 -0.1323 -1.5196  1.0237
   61GLOH    C3 9030   0.963   3.247   4.948  0.7265  0.8091  0.2244
   61GLOH   H06 9031   0.981   3.159   5.011 -1.4167  1.1588  1.3525
   61GLOH   H07 9032   0.911   3.323   5.006 -1.5464 -1.8096  1.6993
   61GLOH    O3 9033   1.084   3.294   4.883  0.4304 -0.0931  0.0488
   61GLOH   H01 9034   1.071   3.277   4.787  0.2421  0.9470 -0.1088
   62GLOH   H03 9035   8.183   2.481   7.343  0.2998 -0.9556  0.3081
   62GLOH    O1 9036   8.129   2.524   7.411  0.4562  0.2675 -0.3308
   62GLOH    C1 9037   8.190   2.562   7.535 -0.0867 -1.0118  0.1562
   62GLOH   H02 9038   8.189   2.670   7.551  0.5246 -0.6739 -1.8605
   62GLOH   H08 9039   8.297   2.541   7.536  0.4370  1.5106  0.3049
   62GLOH    C2 9040   8.102   2.503   7.649  0.2758  0.1964 -0.0629
   62GLOH   H04 9041   8.084   2.395   7.640 -1.5310  0.3919  0.9197
   62GLOH    O2 9042   8.184   2.522   7.768 -0.0569  0.0301  0.2572
   62GLOH   H05 9043   8.193   2.435   7.810  1.9641 -0.2711 -0.7431
   62GLOH    C3 9044   7.970   2.581   7.666  0.1002 -0.4906  0.2965
   62GLOH   H06 9045   7.905   2.513   7.721 -0.8975  0.5173  0.3803
   62GLOH   H07 9046   7.919   2.595   7.571  1.0426 -2.6536 -0.5833
   62GLOH    O3 9047   7.982   2.701   7.740  0.1780  0.6760 -0.1450
   62GLOH   H01 9048   8.054   2.679   7.802 -0.1436 -1.1350 -0.3858
   63GLOH   H03 9049   8.128   0.516   1.141 -0.3350 -1.0460 -1.0943
   63GLOH    O1 9050   8.070   0.458   1.193  0.2013 -0.3092  0.3523
   63GLOH    C1 9051   7.949   0.528   1.228 -0.4546 -0.5110 -0.2262
   63GLOH   H02 9052   7.894   0.564   1.141  0.9792  2.0982 -0.1006
   63GLOH   H08 9053   7.974   0.619   1.283 -1.3405  0.9323 -2.1649
   63GLOH    C2 9054   7.858   0.448   1.316  0.0489 -0.5179  0.0948
   63GLOH   H04 9055   7.862   0.347   1.273 -0.5925  0.4579 -2.3483
   63GLOH    O2 9056   7.904   0.455   1.453  0.6644 -0.3306  0.2671
   63GLOH   H05 9057   7.938   0.365   1.465  1.6881 -0.2059 -1.5267
   63GLOH    C3 9058   7.717   0.493   1.311 -0.4766  0.1605  0.2119
   63GLOH   H06 9059   7.693   0.573   1.381  1.0059  0.0243  0.8741
   63GLOH   H07 9060   7.655   0.407   1.338  0.5932 -1.0690 -1.2252
   63GLOH    O3 9061   7.665   0.536   1.183 -0.1815 -0.0239 -0.7912
   63GLOH   H01 9062   7.580   0.581   1.199 -0.2085  1.0607 -3.7519
   64GLOH   H03 9063   4.792   7.100   2.334 -0.5479  1.7481 -0.0756
   64GLOH    O1 9064   4.697   7.086   2.349 -0.3216 -0.0166 -0.2643
   64GLOH    C1 9065   4.607   7.097   2.233 -0.6064  0.0161 -0.0456
   64GLOH   H02 9066   4.506   7.123   2.267 -0.5298  0.2237  0.0279
   64GLOH   H08 9067   4.591   7.004   2.180  0.2898  0.8767 -1.8679
   64GLOH    C2 9068   4.649   7.212   2.132  1.0361 -0.1574 -0.2472
   64GLOH   H04 9069   4.752   7.236   2.163  0.8989 -1.4467  1.2943
   64GLOH    O2 9070   4.656   7.154   1.994  0.1126 -0.2317 -0.4883
   64GLOH   H05 9071   4.648   7.226   1.929 -2.6491  0.6778  0.8124
   64GLOH    C3 9072   4.554   7.336   2.140 -0.4493  0.1825  0.5193
   64GLOH   H06 9073   4.545   7.378   2.241  1.0625  1.2799  0.2136
   64GLOH   H07 9074   4.450   7.307   2.120 -0.3988  0.6099 -0.3733
   64GLOH    O3 9075   4.591   7.439   2.046 -0.2272  0.3828 -0.2792
   64GLOH   H01 9076   4.687   7.452   2.052 -0.5713  3.1810 -0.4492
   65GLOH   H03 9077   1.723   7.549   0.400 -1.1929 -3.0369 -3.5532
   65GLOH    O1 9078   1.645   7.603   0.379  0.1518  0.7160  0.3150
   65GLOH    C1 9079   1.683   7.738   0.375 -0.0120  0.3879  0.0585
   65GLOH   H02 9080   1.709   7.770   0.275  1.5815  0.6422  0.5376
   65GLOH   H08 9081   1.776   7.743   0.432  0.5942 -0.3426 -0.8513
   65GLOH    C2 9082   1.578   7.830   0.435  0.3495 -0.4155  0.1312
   65GLOH   H04 9083   1.564   7.825   0.544 -3.1911 -1.1452 -0.2957
   65GLOH    O2 9084   1.607   7.969   0.412  0.6088 -0.5080  0.5732
   65GLOH   H05 9085   1.608   7.975   0.315 -0.0891 -2.1591  0.4604
   65GLOH    C3 9086   1.434   7.814   0.374 -0.1654  0.4325 -0.2054
   65GLOH   H06 9087   1.426   7.861   0.276 -2.1529 -1.5913 -1.0460
   65GLOH   H07 9088   1.368   7.876   0.436 -0.6651 -0.1426 -0.1647
   65GLOH    O3 9089   1.388   7.681   0.378  0.7565 -0.3393  0.1747
   65GLOH   H01 9090   1.467   7.624   0.371  1.3754  0.6096 -0.7278
   66GLOH   H03 9091   3.460   4.808   8.329  1.1454  2.1665  0.5170
   66GLOH    O1 9092   3.512   4.775   8.253 -0.1072  0.1011  0.4913
   66GLOH    C1 9093   3.527   4.882   8.160  0.8513  0.4642  0.1170
   66GLOH   H02 9094   3.534   4.980   8.207  1.6630  1.3900 -1.8405
   66GLOH   H08 9095   3.441   4.884   8.094  0.9676 -0.8695 -0.0869
   66GLOH    C2 9096   3.658   4.874   8.076 -0.0380  0.2488  0.6207
   66GLOH   H04 9097   3.744   4.915   8.130  1.6036 -1.4312 -0.6729
   66GLOH    O2 9098   3.666   4.740   8.023 -0.2860  0.1350 -0.3750
   66GLOH   H05 9099   3.709   4.677   8.083 -1.5299 -2.6211 -2.2718
   66GLOH    C3 9100   3.639   4.955   7.948 -0.4031 -0.2856  0.1004
   66GLOH   H06 9101   3.565   4.918   7.877  0.7706 -0.7208 -0.9127
   66GLOH   H07 9102   3.731   4.953   7.890 -0.3800 -1.4309  0.1649
   66GLOH    O3 9103   3.625   5.092   7.977  0.1257  0.5025  0.2657
   66GLOH   H01 9104   3.616   5.143   7.895  1.1519  2.3818  1.3034
   67GLOH   H03 9105   7.641   4.824   9.334  0.6112  1.0198 -1.2187
   67GLOH    O1 9106   7.650   4.889   9.407 -0.1485 -0.4693  0.2230
   67GLOH    C1 9107   7.544   4.982   9.393 -0.8826  0.0571  0.5417
   67GLOH   H02 9108   7.466   4.938   9.331  0.7290 -0.7726 -0.9469
   67GLOH   H08 9109   7.589   5.064   9.337  3.1684 -1.3764  1.5053
   67GLOH    C2 9110   7.503   5.049   9.528 -0.5395 -0.0058 -0.0275
   67GLOH   H04 9111   7.470   4.972   9.599 -0.2699  0.3815  0.5200
   67GLOH    O2 9112   7.614   5.118   9.592  0.0335 -0.2989  0.1168
   67GLOH   H05 9113   7.635   5.087   9.681  0.6757  1.0337  0.4420
   67GLOH    C3 9114   7.384   5.145   9.514  0.6857  0.8979  0.7433
   67GLOH   H06 9115   7.414   5.244   9.481 -0.2830  1.6358  2.0157
   67GLOH   H07 9116   7.348   5.164   9.616 -0.5567  0.8902  0.3143
   67GLOH    O3 9117   7.275   5.100   9.429 -0.6486  0.1234 -0.1120
   67GLOH   H01 9118   7.218   5.042   9.483 -0.0128  1.1514  1.7178
   68GLOH   H03 9119   7.183   4.003   9.416  0.3992  0.4458  1.7612
   68GLOH    O1 9120   7.240   3.945   9.362 -0.4976  0.6083  0.6329
   68GLOH    C1 9121   7.317   4.032   9.274 -0.7327 -0.0118  0.3324
   68GLOH   H02 9122   7.313   4.138   9.299  0.3172 -0.2022  1.3199
   68GLOH   H08 9123   7.285   4.021   9.170 -0.6964 -0.3648  0.3588
   68GLOH    C2 9124   7.467   4.010   9.270 -0.0560  0.5430 -0.1097
   68GLOH   H04 9125   7.512   4.079   9.197  1.6254 -2.7217 -2.2415
   68GLOH    O2 9126   7.530   4.033   9.396  0.4703 -0.7512 -0.0194
   68GLOH   H05 9127   7.473   4.005   9.471 -3.1482  2.3601 -1.4645
   68GLOH    C3 9128   7.488   3.858   9.236  0.0535 -0.4497  0.3177
   68GLOH   H06 9129   7.420   3.836   9.154  0.3001  0.8046 -0.2376
   68GLOH   H07 9130   7.460   3.799   9.322 -2.0925  0.0376 -0.0333
   68GLOH    O3 9131   7.621   3.825   9.191  0.3698 -0.4227  0.6391
   68GLOH   H01 9132   7.664   3.769   9.258  0.2115  0.1146  1.1902
   69GLOH   H03 9133   0.720   2.546   8.752 -0.7088 -0.4000 -0.4334
   69GLOH    O1 9134   0.676   2.630   8.730  0.0891  0.2341  0.3837
   69GLOH    C1 9135   0.635   2.701   8.854  0.4531  0.2448  0.5556
   69GLOH   H02 9136   0.561   2.778   8.833  0.3444 -0.4660 -1.9083
   69GLOH   H08 9137   0.722   2.750   8.898  0.7022  1.3376 -1.0774
   69GLOH    C2 9138   0.570   2.598   8.951 -0.1604  0.1322  0.0852
   69GLOH   H04 9139   0.521   2.525   8.886  0.8139 -0.4766  0.0268
   69GLOH    O2 9140   0.666   2.517   9.013 -0.2932 -0.3847  0.1345
   69GLOH   H05 9141   0.728   2.571   9.065 -0.4006  0.0837 -0.2291
   69GLOH    C3 9142   0.471   2.662   9.046 -0.3271 -0.1785  0.8614
   69GLOH   H06 9143   0.525   2.722   9.119  0.1757  0.3396  0.0821
   69GLOH   H07 9144   0.423   2.580   9.099  0.2481  0.3003  2.1181
   69GLOH    O3 9145   0.364   2.739   8.987  0.2122  0.5970 -0.0198
   69GLOH   H01 9146   0.365   2.837   8.989  1.6074  0.5887  0.1309
   70GLOH   H03 9147   6.777   6.492   9.307 -0.2676  0.1051 -0.5364
   70GLOH    O1 9148   6.839   6.443   9.250  0.3549  0.1827  0.0716
   70GLOH    C1 9149   6.826   6.483   9.116 -0.0783 -0.7240  0.7223
   70GLOH   H02 9150   6.827   6.592   9.105  1.2646 -0.6882  1.1736
   70GLOH   H08 9151   6.728   6.450   9.082  0.1747 -0.8746  0.1336
   70GLOH    C2 9152   6.930   6.421   9.021  0.2233 -0.2980  0.4036
   70GLOH   H04 9153   6.934   6.466   8.920  0.9934 -1.5154 -0.1129
   70GLOH    O2 9154   7.061   6.445   9.072 -0.0398  0.1716  0.4281
   70GLOH   H05 9155   7.058   6.430   9.168  0.0799  0.8789  0.5435
   70GLOH    C3 9156   6.899   6.276   9.007 -0.0951  1.4748  0.5073
   70GLOH   H06 9157   6.904   6.228   9.104 -1.2199  1.0313  0.3501
   70GLOH   H07 9158   6.969   6.227   8.939 -1.9191  1.9290 -1.7456
   70GLOH    O3 9159   6.773   6.261   8.947 -0.2149 -0.1402  0.1617
   70GLOH   H01 9160   6.726   6.190   8.994 -1.1368 -0.9172 -1.8401
   71GLOH   H03 9161   9.231   8.280   9.360  2.2505  0.6668 -0.7186
   71GLOH    O1 9162   9.254   8.281   9.265  0.1476  0.8447 -1.2523
   71GLOH    C1 9163   9.352   8.178   9.254 -0.3229  0.2636 -0.6239
   71GLOH   H02 9164   9.324   8.091   9.314 -0.5665  0.3881 -0.5565
   71GLOH   H08 9165   9.451   8.207   9.288  1.4046 -3.6932 -1.9169
   71GLOH    C2 9166   9.374   8.147   9.100 -0.3766 -0.2870 -0.1042
   71GLOH   H04 9167   9.413   8.234   9.044  0.2405  0.5346  1.5709
   71GLOH    O2 9168   9.482   8.054   9.080  0.1762  0.1098  0.3424
   71GLOH   H05 9169   9.555   8.079   9.139 -0.4893 -1.5058  1.8775
   71GLOH    C3 9170   9.250   8.086   9.029  0.0992  0.0505  0.3814
   71GLOH   H06 9171   9.234   7.985   9.066 -1.0273  0.0238 -0.1590
   71GLOH   H07 9172   9.274   8.072   8.924 -1.0139  4.2644 -0.5306
   71GLOH    O3 9173   9.138   8.173   9.041  0.3403 -0.4241 -0.1493
   71GLOH   H01 9174   9.094   8.162   9.127 -0.5312 -0.8005 -0.6309
   72GLOH   H03 9175   4.646   8.664   8.561  0.5965  0.1031  1.7710
   72GLOH    O1 9176   4.730   8.704   8.531 -0.0274  0.0836 -0.0121
   72GLOH    C1 9177   4.803   8.763   8.643  0.2456 -0.0734  0.4910
   72GLOH   H02 9178   4.845   8.691   8.713 -0.3236  0.3833  1.3065
   72GLOH   H08 9179   4.738   8.826   8.703 -0.7714 -0.2819 -0.3805
   72GLOH    C2 9180   4.916   8.854   8.591 -0.5095 -0.3364  0.3837
   72GLOH   H04 9181   4.872   8.950   8.560  0.6729 -0.3574 -1.4477
   72GLOH    O2 9182   5.007   8.883   8.705  0.0455  0.3699 -0.0847
   72GLOH   H05 9183   5.026   8.978   8.701  0.2247  0.2813 -2.5317
   72GLOH    C3 9184   4.992   8.793   8.471  0.2709  0.0528  0.7514
   72GLOH   H06 9185   5.035   8.695   8.491 -0.2572 -0.1405  0.9471
   72GLOH   H07 9186   5.076   8.859   8.450 -0.7209  0.9025 -0.6375
   72GLOH    O3 9187   4.904   8.778   8.358 -0.0725 -0.0014  0.9310
   72GLOH   H01 9188   4.821   8.747   8.398 -0.9876 -2.2278 -2.5139
   73GLOH   H03 9189   5.758   1.358   6.261 -0.4314 -0.2087  2.0276
   73GLOH    O1 9190   5.849   1.388   6.280  0.0553 -0.1114 -0.2816
   73GLOH    C1 9191   5.894   1.504   6.212 -0.2813 -0.2253  0.2274
   73GLOH   H02 9192   5.808   1.557   6.170 -0.1598  0.3565  0.7042
   73GLOH   H08 9193   5.961   1.486   6.128 -0.3357  2.5220 -0.4631
   73GLOH    C2 9194   5.978   1.606   6.296  0.4818 -0.2635 -0.3237
   73GLOH   H04 9195   6.076   1.564   6.325  0.5349  0.9418  1.3417
   73GLOH    O2 9196   5.981   1.731   6.225  0.3789 -0.6709 -0.3133
   73GLOH   H05 9197   6.038   1.705   6.150  0.7441  1.2481 -0.7202
   73GLOH    C3 9198   5.911   1.625   6.434  0.5161  0.4255 -0.1750
   73GLOH   H06 9199   5.807   1.654   6.422  0.1921 -0.3376  0.7494
   73GLOH   H07 9200   5.971   1.700   6.485 -0.9522  0.4487  1.5498
   73GLOH    O3 9201   5.917   1.494   6.498  0.0680 -0.1893  0.2942
   73GLOH   H01 9202   5.870   1.431   6.440  1.6271 -4.1255  3.0715
   74GLOH   H03 9203   8.566   4.778   4.693 -1.8849 -2.0729 -0.2066
   74GLOH    O1 9204   8.589   4.744   4.781  0.4110 -0.1225  0.0039
   74GLOH    C1 9205   8.470   4.665   4.820  0.1646 -0.0737 -0.5993
   74GLOH   H02 9206   8.443   4.587   4.749 -0.5215 -0.6313  0.2587
   74GLOH   H08 9207   8.395   4.742   4.835  0.9120  0.8417 -1.4752
   74GLOH    C2 9208   8.493   4.593   4.955 -0.4260  0.0682 -0.1161
   74GLOH   H04 9209   8.512   4.677   5.022  1.3245 -0.5348  0.1854
   74GLOH    O2 9210   8.373   4.526   5.000  0.3542 -0.4156  0.7436
   74GLOH   H05 9211   8.354   4.450   4.943 -2.0557  2.7846 -2.9734
   74GLOH    C3 9212   8.616   4.507   4.962  0.0920 -0.2217 -0.5924
   74GLOH   H06 9213   8.623   4.410   4.912  1.7718 -0.7765  0.6602
   74GLOH   H07 9214   8.630   4.484   5.068 -1.3209  0.8571 -0.1440
   74GLOH    O3 9215   8.728   4.574   4.910 -0.0243  0.5935  0.0876
   74GLOH   H01 9216   8.698   4.645   4.849  0.0046 -0.2950 -0.9682
   75GLOH   H03 9217   0.959   3.558   2.358  0.7271 -0.0192 -0.2561
   75GLOH    O1 9218   0.963   3.461   2.361 -0.2115 -0.0338  0.5542
   75GLOH    C1 9219   0.989   3.420   2.498  0.6153  0.1307 -0.4027
   75GLOH   H02 9220   0.990   3.311   2.503 -1.5520  0.1923  1.7010
   75GLOH   H08 9221   0.914   3.452   2.569  1.6590 -1.0531  1.2800
   75GLOH    C2 9222   1.118   3.476   2.560  0.4840 -0.2029 -0.0389
   75GLOH   H04 9223   1.109   3.585   2.576  0.0237 -0.5367  2.1664
   75GLOH    O2 9224   1.120   3.416   2.688 -0.5547 -0.0695 -0.5426
   75GLOH   H05 9225   1.049   3.445   2.748  0.8417  0.8828  0.6847
   75GLOH    C3 9226   1.247   3.453   2.474  0.0009  0.2619  0.6140
   75GLOH   H06 9227   1.234   3.497   2.375  1.4321 -0.8783 -0.0878
   75GLOH   H07 9228   1.250   3.346   2.458  0.2797  0.1701  1.2954
   75GLOH    O3 9229   1.372   3.498   2.533 -0.0905  0.3489  0.2696
   75GLOH   H01 9230   1.441   3.431   2.521 -1.9994 -1.4217 -1.1893
   76GLOH   H03 9231   5.891   7.176   4.013  2.6345 -1.0130 -0.0604
   76GLOH    O1 9232   5.885   7.193   3.917 -0.6144 -0.5730  0.1331
   76GLOH    C1 9233   6.011   7.192   3.861 -0.1726 -0.2931  0.0249
   76GLOH   H02 9234   6.007   7.139   3.766 -4.1524 -3.9063  2.0408
   76GLOH   H08 9235   6.082   7.136   3.921 -0.0496 -1.5432 -1.2767
   76GLOH    C2 9236   6.074   7.338   3.855 -0.1925  0.4170  0.0418
   76GLOH   H04 9237   6.060   7.382   3.955  0.5658 -0.3204  0.4841
   76GLOH    O2 9238   6.218   7.327   3.836  0.2634  0.1815 -0.3720
   76GLOH   H05 9239   6.264   7.330   3.922 -1.4183  0.8910  0.5274
   76GLOH    C3 9240   6.007   7.402   3.732 -0.4642  0.5573  0.7858
   76GLOH   H06 9241   5.905   7.367   3.715  0.0211 -0.5791  0.1694
   76GLOH   H07 9242   6.063   7.380   3.642 -2.5616 -0.0010 -0.4083
   76GLOH    O3 9243   5.996   7.550   3.730 -0.0153 -0.1629  0.6359
   76GLOH   H01 9244   6.086   7.587   3.733  0.2914 -0.9651  1.4871
   77GLOH   H03 9245   5.894   0.970   9.194  1.4049  1.5930  2.3331
   77GLOH    O1 9246   5.972   0.964   9.137 -0.7386 -0.1253 -0.5732
   77GLOH    C1 9247   6.083   1.012   9.221  0.7709  0.2982 -0.9061
   77GLOH   H02 9248   6.133   0.932   9.275  0.5213  0.8585  0.1717
   77GLOH   H08 9249   6.042   1.069   9.304  0.6267 -2.1839  0.7787
   77GLOH    C2 9250   6.191   1.096   9.150  0.6509 -0.7620 -0.0581
   77GLOH   H04 9251   6.145   1.196   9.145  0.9609 -0.6706 -1.3593
   77GLOH    O2 9252   6.310   1.115   9.227 -0.0254  0.4189  0.5924
   77GLOH   H05 9253   6.283   1.166   9.306 -1.7305  0.4171  0.0452
   77GLOH    C3 9254   6.224   1.046   9.006  0.0531 -0.6862  0.1528
   77GLOH   H06 9255   6.280   0.954   9.022  0.8116 -0.2090  0.2793
   77GLOH   H07 9256   6.295   1.120   8.968 -1.4539  0.5798 -0.2154
   77GLOH    O3 9257   6.105   1.016   8.931 -0.3183 -0.5188 -0.0941
   77GLOH   H01 9258   6.039   0.971   8.987 -1.3933 -0.3383 -1.2031
   78GLOH   H03 9259   8.113   1.384   1.851  2.0330 -1.6135  1.0100
   78GLOH    O1 9260   8.084   1.413   1.939  0.0548  0.2661 -0.2216
   78GLOH    C1 9261   8.205   1.388   2.016  0.0391 -1.0894  0.4191
   78GLOH   H02 9262   8.283   1.461   1.996 -1.6965  1.0090  1.1481
   78GLOH   H08 9263   8.248   1.288   2.005  1.4004 -0.3768 -1.0498
   78GLOH    C2 9264   8.179   1.402   2.168  0.2025  0.0222 -0.2654
   78GLOH   H04 9265   8.100   1.330   2.191 -0.5388  1.0648  0.5241
   78GLOH    O2 9266   8.304   1.363   2.241  0.3625 -0.8075  0.2318
   78GLOH   H05 9267   8.374   1.429   2.227 -0.8512  0.7873  1.4893
   78GLOH    C3 9268   8.133   1.548   2.200 -0.5501 -0.6388  0.2003
   78GLOH   H06 9269   8.209   1.609   2.151 -2.4457  0.7676 -1.0493
   78GLOH   H07 9270   8.127   1.568   2.307  1.4176  0.1381  0.1966
   78GLOH    O3 9271   8.019   1.590   2.126  0.1117  0.1850 -0.1022
   78GLOH   H01 9272   8.023   1.553   2.036 -0.1967  0.0004 -0.0374
   79GLOH   H03 9273   0.669   9.999   9.265 -2.5943  0.6502  1.3561
   79GLOH    O1 9274   0.709   9.974   9.350 -0.3260  0.0109  0.1464
   79GLOH    C1 9275   0.722   9.831   9.350  0.6234 -0.1464 -0.1149
   79GLOH   H02 9276   0.757   9.793   9.254 -0.2424  0.0604 -0.5155
   79GLOH   H08 9277   0.624   9.794   9.380 -0.0086  0.6277 -1.1958
   79GLOH    C2 9278   0.820   9.771   9.455  0.2327 -0.2658 -0.2363
   79GLOH   H04 9279   0.783   9.801   9.554 -2.4149  0.8387 -1.5058
   79GLOH    O2 9280   0.812   9.629   9.449 -0.1922  0.3745 -0.2006
   79GLOH   H05 9281   0.848   9.592   9.531  0.8325  1.8511  0.0257
   79GLOH    C3 9282   0.962   9.831   9.441 -0.0767  0.0067 -0.0277
   79GLOH   H06 9283   0.952   9.937   9.464 -1.3110 -0.7734  3.2811
   79GLOH   H07 9284   0.997   9.818   9.339 -0.0025  0.6357 -0.0817
   79GLOH    O3 9285   1.062   9.778   9.534  0.2199 -0.0341  0.4000
   79GLOH   H01 9286   1.110   9.861   9.549  0.2751  0.0643 -0.3185
   80GLOH   H03 9287   7.418   1.225   2.459  1.4584 -1.2932 -1.8361
   80GLOH    O1 9288   7.373   1.141   2.481  0.2714 -0.0237  0.8802
   80GLOH    C1 9289   7.380   1.107   2.621  1.0569  0.4298  0.1182
   80GLOH   H02 9290   7.286   1.055   2.638  1.2296  0.2731  0.6133
   80GLOH   H08 9291   7.375   1.198   2.680  0.6656  0.5001 -0.0191
   80GLOH    C2 9292   7.500   1.019   2.673 -0.2298 -0.2666  0.6482
   80GLOH   H04 9293   7.594   1.068   2.644 -1.1697  0.5529 -1.0692
   80GLOH    O2 9294   7.488   1.013   2.816 -0.1285 -0.2830 -0.4767
   80GLOH   H05 9295   7.574   1.015   2.861 -0.5191 -0.4822  0.2919
   80GLOH    C3 9296   7.499   0.876   2.616  0.7432  0.0570 -0.7045
   80GLOH   H06 9297   7.394   0.847   2.630  0.5269  1.9695  2.1034
   80GLOH   H07 9298   7.568   0.823   2.682  0.5002 -0.6570 -1.0139
   80GLOH    O3 9299   7.543   0.869   2.480 -0.7802 -1.1045  0.2766
   80GLOH   H01 9300   7.461   0.861   2.428 -1.2208 -0.5060  0.8685
   81GLOH   H03 9301   4.952   3.191   5.176  0.8319  0.1893  0.0806
   81GLOH    O1 9302   4.899   3.225   5.101  0.1832  0.0537  0.4770
   81GLOH    C1 9303   4.770   3.249   5.160 -0.6195 -0.0079 -0.5356
   81GLOH   H02 9304   4.763   3.316   5.245 -1.3467 -0.6778 -0.0540
   81GLOH   H08 9305   4.729   3.153   5.192  1.2568  0.1684  2.5022
   81GLOH    C2 9306   4.672   3.311   5.057  0.2917  0.9095  0.0927
   81GLOH   H04 9307   4.664   3.253   4.964  0.0997  0.4467  0.3985
   81GLOH    O2 9308   4.533   3.326   5.102 -0.2824 -0.1062 -0.0804
   81GLOH   H05 9309   4.484   3.380   5.038  0.1313  0.2957 -0.0549
   81GLOH    C3 9310   4.724   3.447   5.009 -0.1762 -0.0617 -0.4784
   81GLOH   H06 9311   4.658   3.490   4.934 -2.6991  0.2889  1.8745
   81GLOH   H07 9312   4.819   3.419   4.964  1.6470  1.5887  2.2125
   81GLOH    O3 9313   4.729   3.548   5.113  0.0809 -0.4776  0.2488
   81GLOH   H01 9314   4.751   3.638   5.082 -0.8604 -0.2510  0.2276
   82GLOH   H03 9315   2.753   4.512   2.741 -0.7522  0.9343 -1.7730
   82GLOH    O1 9316   2.699   4.543   2.816  0.5710  0.1898 -0.4806
   82GLOH    C1 9317   2.693   4.686   2.804 -0.0957 -0.8659 -0.6328
   82GLOH   H02 9318   2.608   4.714   2.741 -1.3708 -2.0218  0.5359
   82GLOH   H08 9319   2.786   4.716   2.757  0.1337 -1.3381 -0.4836
   82GLOH    C2 9320   2.685   4.752   2.943  0.1833 -0.2264 -0.9680
   82GLOH   H04 9321   2.782   4.729   2.990 -0.7753 -0.1972  1.0681
   82GLOH    O2 9322   2.690   4.888   2.947 -0.0228  0.1922  0.1679
   82GLOH   H05 9323   2.612   4.913   2.896 -0.7432 -1.2691  0.5271
   82GLOH    C3 9324   2.572   4.701   3.037 -0.5427  0.7768 -0.4782
   82GLOH   H06 9325   2.471   4.725   3.005 -0.5725  0.2857 -0.7496
   82GLOH   H07 9326   2.594   4.754   3.130  1.4319 -1.7685  0.5814
   82GLOH    O3 9327   2.586   4.562   3.061 -0.3753 -0.2337 -0.1101
   82GLOH   H01 9328   2.632   4.536   2.979  0.1497  0.5496 -0.0648
   83GLOH   H03 9329   5.523   8.242   4.910 -0.1878 -1.0317  0.5723
   83GLOH    O1 9330   5.551   8.265   5.000  0.1806 -0.0232  0.2007
   83GLOH    C1 9331   5.446   8.339   5.052  1.0129  0.3415 -0.4384
   83GLOH   H02 9332   5.431   8.310   5.156  0.6735  0.9507 -0.3106
   83GLOH   H08 9333   5.356   8.324   4.993  0.0564  0.0763  1.0649
   83GLOH    C2 9334   5.473   8.489   5.059  0.1427  0.2009 -0.3149
   83GLOH   H04 9335   5.555   8.501   5.131 -0.5370 -0.7544  0.6253
   83GLOH    O2 9336   5.493   8.536   4.922 -0.0608  0.0520  0.2516
   83GLOH   H05 9337   5.556   8.609   4.918 -0.6404  0.5685  0.4634
   83GLOH    C3 9338   5.346   8.560   5.116  0.9244 -0.0789  0.2274
   83GLOH   H06 9339   5.270   8.552   5.038  1.2382 -1.1968  0.0191
   83GLOH   H07 9340   5.375   8.663   5.137  3.8302 -0.7505 -0.2091
   83GLOH    O3 9341   5.282   8.507   5.233  0.4331 -0.3900  0.1617
   83GLOH   H01 9342   5.346   8.502   5.306  2.9754  3.7699 -1.5935
   84GLOH   H03 9343   1.766   8.081   5.410 -1.4864  0.9476  0.9647
   84GLOH    O1 9344   1.768   8.027   5.492  0.2772 -0.4710  0.0204
   84GLOH    C1 9345   1.707   8.115   5.595 -0.5440 -0.8564 -0.3929
   84GLOH   H02 9346   1.693   8.066   5.691 -1.5092  1.1791  0.5231
   84GLOH   H08 9347   1.609   8.149   5.563 -1.2199 -1.9665  0.5046
   84GLOH    C2 9348   1.800   8.240   5.625 -0.3256 -0.3690  0.3160
   84GLOH   H04 9349   1.825   8.295   5.533  1.9812 -1.0197  0.5373
   84GLOH    O2 9350   1.723   8.331   5.705  0.0383  0.4679 -0.2161
   84GLOH   H05 9351   1.699   8.286   5.788  1.2731  1.7289  0.8431
   84GLOH    C3 9352   1.933   8.199   5.697  0.3588  0.5560  0.8503
   84GLOH   H06 9353   1.964   8.105   5.651  0.9255  0.5407  1.2541
   84GLOH   H07 9354   1.915   8.177   5.803  1.9577 -2.5261  0.5243
   84GLOH    O3 9355   2.022   8.309   5.682 -0.0280  0.4726 -0.0914
   84GLOH   H01 9356   2.110   8.275   5.707 -1.1597 -0.8119  2.2947
   85GLOH   H03 9357   7.546   6.576   9.533  0.4747  1.5408 -2.0810
   85GLOH    O1 9358   7.620   6.602   9.591 -0.1114 -0.5528 -0.2998
   85GLOH    C1 9359   7.647   6.745   9.572 -0.8083  0.3005  0.8994
   85GLOH   H02 9360   7.707   6.786   9.653  0.4647  1.0904 -0.4294
   85GLOH   H08 9361   7.556   6.804   9.565 -0.0149  1.6411  1.7130
   85GLOH    C2 9362   7.712   6.775   9.439  0.3161 -0.2266  0.7305
   85GLOH   H04 9363   7.648   6.747   9.354 -0.5072  0.5070  1.1015
   85GLOH    O2 9364   7.726   6.917   9.434  0.7352  0.0943  0.7794
   85GLOH   H05 9365   7.709   6.949   9.344  1.1835  0.5556  0.8551
   85GLOH    C3 9366   7.837   6.689   9.428 -1.0749 -0.9345 -0.7835
   85GLOH   H06 9367   7.819   6.589   9.387  1.4591 -0.5398 -3.0371
   85GLOH   H07 9368   7.870   6.681   9.532  0.7121  1.9909 -1.0704
   85GLOH    O3 9369   7.938   6.742   9.338  0.4468  0.8244 -0.4025
   85GLOH   H01 9370   8.016   6.687   9.357 -0.5125 -0.9858 -1.6678
   86GLOH   H03 9371   4.765   3.188   6.247 -1.5104  0.3749  0.5073
   86GLOH    O1 9372   4.771   3.205   6.343 -0.6271  0.3076  0.4683
   86GLOH    C1 9373   4.651   3.266   6.390 -0.7827  0.7690 -0.1288
   86GLOH   H02 9374   4.586   3.190   6.433 -0.2786  0.4864  0.1444
   86GLOH   H08 9375   4.608   3.315   6.303  0.0564  4.4635  1.3908
   86GLOH    C2 9376   4.678   3.381   6.487  0.2821  0.4264 -0.2444
   86GLOH   H04 9377   4.719   3.463   6.427  0.1893  0.8504  0.2602
   86GLOH    O2 9378   4.558   3.417   6.548 -0.2783 -0.0985  0.2551
   86GLOH   H05 9379   4.518   3.342   6.596  0.8406 -1.2269 -0.5299
   86GLOH    C3 9380   4.785   3.342   6.588 -0.1154  0.0385  0.9929
   86GLOH   H06 9381   4.878   3.323   6.536 -0.9916  3.6443 -2.0836
   86GLOH   H07 9382   4.759   3.249   6.639 -1.5805 -0.0313  0.1461
   86GLOH    O3 9383   4.810   3.441   6.686 -0.4908 -0.4626  0.2683
   86GLOH   H01 9384   4.796   3.522   6.633  0.5130  0.7387  1.7805
   87GLOH   H03 9385   3.521   2.784   1.196  0.9302  1.1897 -0.5683
   87GLOH    O1 9386   3.542   2.831   1.279  0.2806  0.4888 -0.0012
   87GLOH    C1 9387   3.488   2.750   1.381 -0.4283  0.7534 -0.3148
   87GLOH   H02 9388   3.523   2.650   1.356 -1.9071  0.0382  0.4314
   87GLOH   H08 9389   3.379   2.745   1.374 -0.4966 -0.7765  1.3299
   87GLOH    C2 9390   3.544   2.784   1.521 -0.6886  0.2452  0.0957
   87GLOH   H04 9391   3.543   2.891   1.546 -1.4445  0.2750 -0.0559
   87GLOH    O2 9392   3.460   2.714   1.619 -0.4847 -0.3067  0.5506
   87GLOH   H05 9393   3.473   2.753   1.707  2.3163 -0.5034  0.2531
   87GLOH    C3 9394   3.693   2.726   1.537  0.2537  0.0762  0.5499
   87GLOH   H06 9395   3.698   2.621   1.510  1.9957  0.4288 -0.6160
   87GLOH   H07 9396   3.705   2.724   1.645  0.0317  2.2938  0.6355
   87GLOH    O3 9397   3.792   2.796   1.464 -0.1741 -0.1165  0.4339
   87GLOH   H01 9398   3.824   2.868   1.522 -1.5860 -0.1569  1.2778
   88GLOH   H03 9399   0.703   6.857   4.411 -1.2793 -0.4626  0.0891
   88GLOH    O1 9400   0.720   6.928   4.475 -0.4091 -0.7997  0.2383
   88GLOH    C1 9401   0.689   7.053   4.404  0.4684  0.2344 -0.4789
   88GLOH   H02 9402   0.685   7.130   4.482  0.8493  0.4295 -0.6484
   88GLOH   H08 9403   0.590   7.039   4.361  0.2325 -3.5119  1.1033
   88GLOH    C2 9404   0.795   7.086   4.293  0.3489 -0.2007  0.2169
   88GLOH   H04 9405   0.807   7.010   4.214  2.9854  1.4996 -1.0944
   88GLOH    O2 9406   0.745   7.206   4.235 -0.0775  0.1584 -0.3259
   88GLOH   H05 9407   0.673   7.199   4.171  0.2205 -2.2744 -0.4186
   88GLOH    C3 9408   0.936   7.106   4.350  0.5789  0.6835  0.1607
   88GLOH   H06 9409   0.940   7.195   4.413  0.5865 -0.1909  1.4085
   88GLOH   H07 9410   1.000   7.123   4.263  0.4405 -1.2380 -0.3431
   88GLOH    O3 9411   0.975   6.989   4.422 -0.2849 -0.4977  0.0364
   88GLOH   H01 9412   0.905   6.970   4.487  1.9028  0.3633  2.7228
   89GLOH   H03 9413   1.528   5.200   4.739 -0.1492 -0.4122  0.1920
   89GLOH    O1 9414   1.596   5.268   4.757 -0.1263 -0.4068  0.0878
   89GLOH    C1 9415   1.540   5.393   4.795  0.1035  0.0091  0.2836
   89GLOH   H02 9416   1.447   5.411   4.741 -0.8044  0.1939  1.8853
   89GLOH   H08 9417   1.612   5.469   4.766 -0.2188  0.0700 -0.3741
   89GLOH    C2 9418   1.504   5.401   4.947  0.3119  0.5759  0.3873
   89GLOH   H04 9419   1.582   5.387   5.023  0.1991 -3.0596 -0.0860
   89GLOH    O2 9420   1.441   5.531   4.973  0.1895  0.0895 -0.3967
   89GLOH   H05 9421   1.388   5.530   5.054 -3.1797  0.5067 -2.5105
   89GLOH    C3 9422   1.404   5.285   4.975  0.8116 -0.2746  0.0288
   89GLOH   H06 9423   1.391   5.283   5.083 -0.7103 -2.0059 -0.1788
   89GLOH   H07 9424   1.451   5.192   4.942 -2.4489 -2.0678  0.3258
   89GLOH    O3 9425   1.280   5.298   4.902 -0.1469 -0.3612  0.0333
   89GLOH   H01 9426   1.227   5.223   4.935 -0.4110  1.0495  2.9876
   90GLOH   H03 9427   6.499   2.077   2.485 -0.0725  0.3422 -0.0139
   90GLOH    O1 9428   6.496   2.173   2.500 -0.1961  0.2524  0.5390
   90GLOH    C1 9429   6.363   2.220   2.507  0.5407  0.5762 -0.0186
   90GLOH   H02 9430   6.302   2.197   2.420 -1.4197  2.2609  0.8529
   90GLOH   H08 9431   6.352   2.329   2.514  0.0251  0.6007 -1.1521
   90GLOH    C2 9432   6.300   2.153   2.631 -0.0162  0.1506  0.6720
   90GLOH   H04 9433   6.330   2.048   2.618 -0.1481  0.2545 -0.6309
   90GLOH    O2 9434   6.338   2.208   2.759 -0.2524 -0.0287  0.4607
   90GLOH   H05 9435   6.300   2.153   2.830  0.0427  1.6853  1.9778
   90GLOH    C3 9436   6.147   2.152   2.606  0.4752  0.2254 -0.8335
   90GLOH   H06 9437   6.100   2.087   2.680  0.0377  2.1372  0.5742
   90GLOH   H07 9438   6.138   2.102   2.509  0.0888 -1.1867 -0.0798
   90GLOH    O3 9439   6.078   2.280   2.594 -0.8108 -0.2663 -0.3872
   90GLOH   H01 9440   6.120   2.346   2.652  1.7462 -1.2423 -1.0494
   91GLOH   H03 9441   0.333   1.321   2.115  0.9669 -1.8864  2.0391
   91GLOH    O1 9442   0.360   1.409   2.149  0.4156 -0.5786 -0.7612
   91GLOH    C1 9443   0.364   1.503   2.043 -0.0814 -0.1515  0.4976
   91GLOH   H02 9444   0.448   1.489   1.976  0.7709  0.8309  1.3346
   91GLOH   H08 9445   0.371   1.605   2.083  3.0663 -0.1752  0.0665
   91GLOH    C2 9446   0.241   1.505   1.950  0.6555 -0.0120 -0.4440
   91GLOH   H04 9447   0.154   1.553   1.999  2.3258  2.9543 -0.2776
   91GLOH    O2 9448   0.274   1.593   1.838  0.5142 -0.0516 -0.8684
   91GLOH   H05 9449   0.311   1.675   1.875  1.4588 -0.7689 -0.1871
   91GLOH    C3 9450   0.213   1.372   1.887 -0.1356 -1.0713  0.6683
   91GLOH   H06 9451   0.311   1.350   1.845 -0.0516  1.2193 -0.4450
   91GLOH   H07 9452   0.146   1.376   1.801  2.1064  1.4651 -1.0600
   91GLOH    O3 9453   0.173   1.268   1.979  0.1948 -0.2997  0.2226
   91GLOH   H01 9454   0.154   1.186   1.929 -3.2377  0.6799 -0.2123
   92GLOH   H03 9455   2.165   0.765   7.769  0.0696 -0.7291  1.8285
   92GLOH    O1 9456   2.248   0.785   7.815  1.1067  0.3904 -0.4320
   92GLOH    C1 9457   2.231   0.746   7.949 -0.6594 -0.2313  0.1158
   92GLOH   H02 9458   2.309   0.785   8.014  0.5208  0.9368 -1.9382
   92GLOH   H08 9459   2.249   0.639   7.937  0.4025  0.2206 -2.8234
   92GLOH    C2 9460   2.089   0.760   8.013 -0.1510 -0.2465 -0.8460
   92GLOH   H04 9461   2.016   0.693   7.965  1.9730 -2.2512 -1.3863
   92GLOH    O2 9462   2.091   0.719   8.150  0.4467  0.1034  0.3456
   92GLOH   H05 9463   2.047   0.633   8.158  0.2868  0.1534 -0.0120
   92GLOH    C3 9464   2.053   0.912   7.998  0.2683  0.2492 -0.4887
   92GLOH   H06 9465   2.060   0.947   7.895 -1.6722  0.8735 -0.4266
   92GLOH   H07 9466   2.131   0.967   8.051 -0.9231  1.9136 -0.4188
   92GLOH    O3 9467   1.924   0.946   8.048 -0.1405 -0.8880 -0.0500
   92GLOH   H01 9468   1.889   0.876   8.106  0.1769  0.3064  1.6145
   93GLOH   H03 9469   8.012   0.259   8.418  0.7593  0.0185  0.2026
   93GLOH    O1 9470   8.075   0.234   8.348  0.2045  0.4241 -0.4357
   93GLOH    C1 9471   8.195   0.184   8.401  0.2113 -0.3677 -0.1420
   93GLOH   H02 9472   8.230   0.093   8.353  2.2324 -0.8908  2.2212
   93GLOH   H08 9473   8.175   0.156   8.505  1.2526 -0.8778 -0.0748
   93GLOH    C2 9474   8.318   0.278   8.394 -0.1615 -0.0119 -0.0550
   93GLOH   H04 9475   8.284   0.376   8.432 -0.5803 -1.1079  2.4740
   93GLOH    O2 9476   8.424   0.231   8.485 -0.1475 -0.5336  0.0688
   93GLOH   H05 9477   8.491   0.184   8.434 -2.5389 -1.5290 -2.2890
   93GLOH    C3 9478   8.358   0.296   8.249  0.4309 -0.1546  0.1426
   93GLOH   H06 9479   8.269   0.323   8.192 -0.4398 -0.7792  1.1611
   93GLOH   H07 9480   8.392   0.199   8.213  0.1800 -0.1500 -0.1041
   93GLOH    O3 9481   8.458   0.394   8.226 -0.0667 -0.5156  0.3254
   93GLOH   H01 9482   8.490   0.433   8.310  0.7512 -0.9385  0.2162
   94GLOH   H03 9483   5.237   0.518   1.889  1.9652 -1.9043  1.0489
   94GLOH    O1 9484   5.288   0.597   1.913 -0.0517 -0.0164 -0.7587
   94GLOH    C1 9485   5.261   0.651   2.044  0.6003  0.0255  0.1354
   94GLOH   H02 9486   5.343   0.706   2.090 -0.9884  2.8854 -0.3140
   94GLOH   H08 9487   5.235   0.570   2.112  3.0628 -0.9017  0.0218
   94GLOH    C2 9488   5.143   0.750   2.044  0.4492  0.0734 -0.3004
   94GLOH   H04 9489   5.055   0.698   2.004  0.0277  0.2602  0.3760
   94GLOH    O2 9490   5.107   0.798   2.179 -0.5541 -0.0034 -0.4867
   94GLOH   H05 9491   5.189   0.801   2.232 -0.0783 -1.3359 -1.1361
   94GLOH    C3 9492   5.185   0.865   1.957  0.3823 -0.9275  0.4030
   94GLOH   H06 9493   5.105   0.939   1.959 -1.6215 -2.9953 -0.9670
   94GLOH   H07 9494   5.190   0.822   1.857 -2.1333 -0.9898  0.2739
   94GLOH    O3 9495   5.309   0.918   2.001  0.2971  0.3026  0.8692
   94GLOH   H01 9496   5.306   0.934   2.097  0.7095  2.1995  0.5920
   95GLOH   H03 9497   6.428   2.073   2.151 -0.8469  0.9166 -2.8905
   95GLOH    O1 9498   6.348   2.093   2.203  0.5604 -0.1320 -0.2409
   95GLOH    C1 9499   6.235   2.123   2.130  0.7030  0.4379 -0.4848
   95GLOH   H02 9500   6.233   2.080   2.030  0.7958 -0.2069 -0.2135
   95GLOH   H08 9501   6.230   2.230   2.114  1.2898  0.2798 -1.7381
   95GLOH    C2 9502   6.114   2.083   2.212  0.7233  0.2718  0.4227
   95GLOH   H04 9503   6.099   2.149   2.298 -1.2834  0.3679  0.0280
   95GLOH    O2 9504   6.000   2.096   2.124  0.0350  0.0626  0.0852
   95GLOH   H05 9505   5.972   2.190   2.121 -1.8700 -0.5289 -2.2548
   95GLOH    C3 9506   6.120   1.937   2.268  0.0745 -0.0790  0.7928
   95GLOH   H06 9507   6.113   1.872   2.181 -0.5023  0.8678  0.1219
   95GLOH   H07 9508   6.028   1.928   2.325  0.0167 -1.3336  0.5301
   95GLOH    O3 9509   6.231   1.911   2.344 -0.0403  0.0499  0.1282
   95GLOH   H01 9510   6.302   1.964   2.303  0.5345  1.1592  2.4732
   96GLOH   H03 9511   1.547   0.957   2.296  0.1111 -0.6101 -0.3864
   96GLOH    O1 9512   1.629   1.006   2.276 -0.2606  0.0528 -0.3171
   96GLOH    C1 9513   1.735   0.975   2.364 -0.1874 -0.5919 -0.3952
   96GLOH   H02 9514   1.703   1.001   2.465  0.9441 -1.2032  0.1194
   96GLOH   H08 9515   1.828   1.025   2.337 -0.3802  1.1447  2.0181
   96GLOH    C2 9516   1.766   0.827   2.356  0.0410 -0.1083 -0.8718
   96GLOH   H04 9517   1.674   0.779   2.393  0.7760 -0.2682  0.8039
   96GLOH    O2 9518   1.792   0.781   2.219  0.0332  0.3762  0.5826
   96GLOH   H05 9519   1.848   0.702   2.224 -0.3570 -0.0960 -2.0149
   96GLOH    C3 9520   1.874   0.793   2.467 -0.0867 -0.0432  0.4201
   96GLOH   H06 9521   1.952   0.857   2.426  0.3751 -0.2580  0.9662
   96GLOH   H07 9522   1.908   0.689   2.464 -0.7505 -0.2418 -1.0305
   96GLOH    O3 9523   1.840   0.840   2.598 -0.5756 -0.3678  0.3394
   96GLOH   H01 9524   1.871   0.933   2.607  1.3858 -0.9301 -0.3868
   97GLOH   H03 9525   7.052   6.013   4.747  1.5081  0.8236  0.1709
   97GLOH    O1 9526   7.105   5.938   4.713 -0.1354 -0.0702 -0.4547
   97GLOH    C1 9527   7.101   5.960   4.569 -0.3782  0.3806 -0.4815
   97GLOH   H02 9528   7.025   6.036   4.550 -1.7776 -0.6978  0.6819
   97GLOH   H08 9529   7.075   5.866   4.521  1.7328 -0.1381 -0.6469
   97GLOH    C2 9530   7.233   6.014   4.509  0.3819 -0.3473 -0.3908
   97GLOH   H04 9531   7.312   5.937   4.513 -0.3238 -1.1441 -1.4137
   97GLOH    O2 9532   7.210   6.044   4.374  0.5161  0.1371  0.2933
   97GLOH   H05 9533   7.206   5.963   4.320  1.6489  0.2904 -0.0319
   97GLOH    C3 9534   7.290   6.129   4.594 -0.3535  0.3877 -0.7988
   97GLOH   H06 9535   7.221   6.213   4.592 -0.6249  0.2941  2.2602
   97GLOH   H07 9536   7.381   6.163   4.546  0.1744 -1.8112 -1.3864
   97GLOH    O3 9537   7.318   6.082   4.726  0.1179  0.2033 -0.0405
   97GLOH   H01 9538   7.296   5.988   4.712 -2.4975  1.1214 -2.6226
   98GLOH   H03 9539   4.718   0.102   9.487 -1.7399  0.1981  1.3605
   98GLOH    O1 9540   4.705   0.197   9.505  0.2927  0.7414  0.0629
   98GLOH    C1 9541   4.652   0.218   9.640 -0.4861 -0.3592  0.5993
   98GLOH   H02 9542   4.618   0.120   9.672 -1.9148  0.0375  0.3057
   98GLOH   H08 9543   4.563   0.280   9.638  0.1609  0.5469 -0.9059
   98GLOH    C2 9544   4.755   0.270   9.737 -0.0239 -0.7286 -0.2542
   98GLOH   H04 9545   4.693   0.315   9.817 -0.9409  0.9313 -1.8747
   98GLOH    O2 9546   4.828   0.168   9.800 -0.3162  0.7057 -0.4245
   98GLOH   H05 9547   4.788   0.080   9.791 -2.3192  1.6659 -0.9107
   98GLOH    C3 9548   4.843   0.379   9.670 -0.4129 -0.2335  0.9458
   98GLOH   H06 9549   4.901   0.325   9.596  0.5711  1.5314  0.4129
   98GLOH   H07 9550   4.908   0.418   9.748  0.3033 -0.3306  0.3983
   98GLOH    O3 9551   4.773   0.491   9.619  0.4370 -0.5543 -0.0460
   98GLOH   H01 9552   4.838   0.563   9.630  0.0824 -0.5841  2.3627
   99GLOH   H03 9553   4.564   9.447   0.439 -0.6696 -1.8680  0.3921
   99GLOH    O1 9554   4.517   9.451   0.354  0.3691 -0.5404 -0.1515
   99GLOH    C1 9555   4.489   9.314   0.316  0.1029 -0.6963  0.3537
   99GLOH   H02 9556   4.411   9.299   0.242  0.6990 -2.9190  0.1251
   99GLOH   H08 9557   4.452   9.254   0.399  0.0821 -0.6609  0.3687
   99GLOH    C2 9558   4.616   9.242   0.272  0.0532  0.3174 -0.3793
   99GLOH   H04 9559   4.693   9.273   0.344 -0.3219 -3.2283  1.6420
   99GLOH    O2 9560   4.602   9.098   0.282 -0.3363 -0.0606  0.0546
   99GLOH   H05 9561   4.542   9.067   0.212 -0.2940  1.1092 -0.5182
   99GLOH    C3 9562   4.685   9.285   0.136 -0.2881 -0.2277  0.3976
   99GLOH   H06 9563   4.786   9.243   0.135 -1.0230 -2.0248  0.0281
   99GLOH   H07 9564   4.702   9.392   0.142  1.5675 -0.4295 -0.6042
   99GLOH    O3 9565   4.620   9.244   0.022  0.0033 -0.1419  0.1100
   99GLOH   H01 9566   4.561   9.169   0.040  1.8105 -1.6669 -0.1909
  100GLOH   H03 9567   1.313   4.075   3.837  0.6255  0.1592  1.6298
  100GLOH    O1 9568   1.301   4.172   3.825  0.4884 -0.0692 -0.2079
  100GLOH    C1 9569   1.419   4.233   3.892 -0.6940 -0.9862 -0.1215
  100GLOH   H02 9570   1.429   4.332   3.848  1.6939 -0.8793  0.5967
  100GLOH   H08 9571   1.505   4.171   3.865 -0.6346 -0.3321 -1.4307
  100GLOH    C2 9572   1.400   4.246   4.048  0.0472 -0.1129 -0.1127
  100GLOH   H04 9573   1.374   4.150   4.094  0.4384  0.7953  2.0842
  100GLOH    O2 9574   1.523   4.295   4.110 -0.3518  0.1423  0.0841
  100GLOH   H05 9575   1.512   4.318   4.203  1.8808  2.2509 -0.1200
  100GLOH    C3 9576   1.283   4.350   4.086  0.1439 -0.0686  1.0210
  100GLOH   H06 9577   1.308   4.443   4.036  1.5350 -0.3083  1.2442
  100GLOH   H07 9578   1.277   4.377   4.191 -1.0859 -0.9210  1.1753
  100GLOH    O3 9579   1.163   4.295   4.031 -0.5849 -0.0246 -0.4537
  100GLOH   H01 9580   1.194   4.250   3.950  1.7969 -0.1400  0.4804
  101GLOH   H03 9581   4.339   8.711   4.486  2.8353  0.3373 -0.1035
  101GLOH    O1 9582   4.333   8.643   4.554  0.0180  0.7895  0.1571
  101GLOH    C1 9583   4.220   8.555   4.522  0.0124 -0.3297 -0.4452
  101GLOH   H02 9584   4.126   8.598   4.556  0.2406 -0.3867  0.2679
  101GLOH   H08 9585   4.235   8.458   4.570 -0.1918 -0.3359 -0.3925
  101GLOH    C2 9586   4.190   8.520   4.371 -0.0502  0.2014 -0.1318
  101GLOH   H04 9587   4.095   8.467   4.378 -0.3862  0.6321 -1.3073
  101GLOH    O2 9588   4.170   8.642   4.290 -0.2416 -0.4175 -0.6135
  101GLOH   H05 9589   4.202   8.639   4.198 -0.3805 -1.2802 -0.6358
  101GLOH    C3 9590   4.284   8.417   4.299  0.7863  0.3661  0.1176
  101GLOH   H06 9591   4.380   8.468   4.305  0.2738  1.1656  1.6744
  101GLOH   H07 9592   4.258   8.421   4.193  1.4489  2.8022  0.0166
  101GLOH    O3 9593   4.277   8.285   4.358 -0.7387  0.1040 -0.0557
  101GLOH   H01 9594   4.329   8.232   4.295 -0.0498  1.0032 -0.2698
  102GLOH   H03 9595   8.747   4.930  -0.069 -1.8802 -0.5342 -0.3595
  102GLOH    O1 9596   8.796   4.864  -0.018 -0.3881  0.2912 -0.6946
  102GLOH    C1 9597   8.796   4.888   0.126  0.4219 -0.0701  0.2652
  102GLOH   H02 9598   8.833   4.812   0.195 -0.1606 -1.1897 -0.6296
  102GLOH   H08 9599   8.691   4.890   0.157  0.4964  0.8359  0.4804
  102GLOH    C2 9600   8.853   5.028   0.164 -0.4116 -0.4241 -0.5122
  102GLOH   H04 9601   8.792   5.102   0.110 -0.2779 -1.6857 -2.4371
  102GLOH    O2 9602   8.848   5.053   0.308 -0.2830 -0.5372  0.3242
  102GLOH   H05 9603   8.892   5.135   0.334  0.3978 -0.5896 -0.6700
  102GLOH    C3 9604   8.998   5.054   0.111  0.4965  0.3529  0.2167
  102GLOH   H06 9605   9.015   5.162   0.113  0.9774  0.2722  1.5431
  102GLOH   H07 9606   9.005   5.019   0.008  3.3673  0.9921  0.1463
  102GLOH    O3 9607   9.095   4.981   0.189 -0.1846  0.1723  0.0199
  102GLOH   H01 9608   9.100   4.889   0.157 -0.0990 -0.1117  0.8369
  103GLOH   H03 9609   7.898   5.999   5.365  0.5647 -0.6224 -2.0530
  103GLOH    O1 9610   7.987   5.982   5.400  0.0023 -0.0190 -0.2777
  103GLOH    C1 9611   7.960   5.953   5.538 -0.4930  0.2736  0.2571
  103GLOH   H02 9612   7.919   5.854   5.556 -0.8388  0.8984  3.0681
  103GLOH   H08 9613   7.890   6.029   5.570 -1.1873  0.8391 -2.5152
  103GLOH    C2 9614   8.083   5.963   5.625  0.7910  0.0200 -0.0395
  103GLOH   H04 9615   8.108   6.070   5.628  0.2373  0.1209  1.0401
  103GLOH    O2 9616   8.044   5.933   5.758 -0.1767  0.7529 -0.7918
  103GLOH   H05 9617   7.949   5.933   5.775 -0.1596  1.0249 -0.6923
  103GLOH    C3 9618   8.198   5.886   5.564  0.3068  0.2921 -0.0077
  103GLOH   H06 9619   8.170   5.782   5.551  0.1083  0.6087 -2.1765
  103GLOH   H07 9620   8.284   5.884   5.632 -0.3376 -0.2314  0.7909
  103GLOH    O3 9621   8.233   5.941   5.437 -0.5138 -0.3234  0.4103
  103GLOH   H01 9622   8.150   5.978   5.403  1.4266  0.7903 -3.4312
  104GLOH   H03 9623   5.872   1.366   8.538  1.3964 -3.9092  0.4951
  104GLOH    O1 9624   5.891   1.407   8.624  0.7912 -0.8067 -0.7965
  104GLOH    C1 9625   5.891   1.318   8.736 -0.0646 -0.3131 -0.0829
  104GLOH   H02 9626   5.930   1.218   8.714 -1.8575 -0.8434 -0.9506
  104GLOH   H08 9627   5.786   1.307   8.761 -0.0804 -1.4062 -0.6119
  104GLOH    C2 9628   5.959   1.380   8.856  0.0763 -0.8905 -0.3271
  104GLOH   H04 9629   5.916   1.475   8.891 -0.3186 -1.1691 -0.0554
  104GLOH    O2 9630   5.955   1.284   8.960 -0.4514  0.9375 -0.1072
  104GLOH   H05 9631   6.017   1.320   9.026  0.8639 -0.9624 -0.2664
  104GLOH    C3 9632   6.106   1.409   8.831 -1.0028 -0.4043  0.5294
  104GLOH   H06 9633   6.112   1.482   8.750  0.7682  1.3210  2.1335
  104GLOH   H07 9634   6.155   1.318   8.797  3.4990  2.6878 -1.8132
  104GLOH    O3 9635   6.181   1.469   8.935  0.6325 -0.1236  0.6083
  104GLOH   H01 9636   6.275   1.445   8.931  0.6941 -0.0106  1.2987
  105GLOH   H03 9637  -0.107   2.192   1.121  0.8570  0.2846  0.3137
  105GLOH    O1 9638  -0.147   2.196   1.032  0.0016  0.0605  0.6882
  105GLOH    C1 9639  -0.075   2.293   0.950  0.7028  0.5866  0.1466
  105GLOH   H02 9640  -0.065   2.385   1.008  1.8140  1.4451 -1.3679
  105GLOH   H08 9641  -0.140   2.308   0.865  1.1206 -0.2609 -0.3351
  105GLOH    C2 9642   0.074   2.248   0.914 -0.1765 -0.0050 -0.3897
  105GLOH   H04 9643   0.125   2.204   1.001  0.2770 -0.8482 -1.0719
  105GLOH    O2 9644   0.075   2.143   0.814  0.1930  0.1807  0.1999
  105GLOH   H05 9645  -0.015   2.111   0.794  0.3574  0.1285 -0.4508
  105GLOH    C3 9646   0.146   2.371   0.869  0.6744  0.3193 -0.6543
  105GLOH   H06 9647   0.077   2.419   0.800 -1.0641 -1.3483 -0.1035
  105GLOH   H07 9648   0.236   2.340   0.815  0.9445 -0.2615  0.1220
  105GLOH    O3 9649   0.180   2.462   0.976 -0.0527  0.4233  0.1177
  105GLOH   H01 9650   0.109   2.528   0.987 -0.5428  0.5485 -3.3110
  106GLOH   H03 9651   8.002   3.884   8.491 -2.7945  0.3513  0.4562
  106GLOH    O1 9652   8.009   3.951   8.562 -0.4097  0.2077  0.3970
  106GLOH    C1 9653   8.027   3.881   8.685  0.5392  0.3125 -0.4454
  106GLOH   H02 9654   8.081   3.789   8.663  0.1083 -0.1537  0.4243
  106GLOH   H08 9655   7.935   3.856   8.737  1.0499 -1.0220 -0.1498
  106GLOH    C2 9656   8.098   3.971   8.783 -0.0670 -0.0545 -0.4923
  106GLOH   H04 9657   8.038   4.063   8.792  0.7673  0.5050 -0.5722
  106GLOH    O2 9658   8.118   3.900   8.907  0.7957  0.5039 -0.1060
  106GLOH   H05 9659   8.036   3.908   8.959 -0.3725  0.8250 -1.9278
  106GLOH    C3 9660   8.238   4.002   8.714 -0.0249 -0.1518  0.0357
  106GLOH   H06 9661   8.279   3.908   8.677  0.2722  1.3448 -3.6536
  106GLOH   H07 9662   8.319   4.043   8.774 -1.1545  0.1887  1.3265
  106GLOH    O3 9663   8.221   4.090   8.602  0.7405  0.1177  0.0674
  106GLOH   H01 9664   8.136   4.070   8.558  0.4441 -0.3665  0.8479
  107GLOH   H03 9665   0.198   1.378   7.798 -0.4027  0.7710 -0.6050
  107GLOH    O1 9666   0.276   1.387   7.857 -0.6523 -0.1811 -0.1140
  107GLOH    C1 9667   0.353   1.484   7.787  0.2002  0.0185 -0.4879
  107GLOH   H02 9668   0.394   1.439   7.696 -0.0986 -1.0823 -0.0875
  107GLOH   H08 9669   0.440   1.508   7.848 -0.4227 -0.9494  0.7964
  107GLOH    C2 9670   0.265   1.604   7.743  0.0648 -0.0954 -0.2675
  107GLOH   H04 9671   0.228   1.656   7.833 -1.4467 -1.4312 -0.0991
  107GLOH    O2 9672   0.349   1.702   7.677 -0.2036  0.2136 -0.1659
  107GLOH   H05 9673   0.310   1.788   7.656 -1.6579 -0.4682 -0.3450
  107GLOH    C3 9674   0.141   1.569   7.654 -0.6549 -0.3218 -0.0807
  107GLOH   H06 9675   0.169   1.547   7.550  1.2059  1.1909  0.0735
  107GLOH   H07 9676   0.080   1.658   7.641  0.1049 -0.3100 -4.2569
  107GLOH    O3 9677   0.062   1.469   7.716  0.1284 -0.1242  0.1530
  107GLOH   H01 9678   0.062   1.393   7.654 -2.0537 -0.3316  0.3475
  108GLOH   H03 9679   0.729   0.295   5.061 -1.2486  0.9658  1.9103
  108GLOH    O1 9680   0.819   0.272   5.089 -0.5056  0.6857 -0.6223
  108GLOH    C1 9681   0.838   0.134   5.046  0.3204  0.3577 -0.1806
  108GLOH   H02 9682   0.772   0.127   4.960 -2.2363  0.4536  1.7282
  108GLOH   H08 9683   0.800   0.080   5.132 -1.6075  1.4833 -0.2851
  108GLOH    C2 9684   0.977   0.084   5.007  0.6413  0.2454 -0.4743
  108GLOH   H04 9685   1.055   0.096   5.084 -0.2782  1.8968  0.2255
  108GLOH    O2 9686   0.953  -0.064   4.993  0.0065 -0.1685 -0.2480
  108GLOH   H05 9687   0.934  -0.112   5.075  1.0211 -0.8073 -0.3705
  108GLOH    C3 9688   1.029   0.151   4.885  0.2402 -0.0705 -0.0343
  108GLOH   H06 9689   0.981   0.113   4.794  0.1822  1.5461 -0.6916
  108GLOH   H07 9690   1.135   0.129   4.870  0.3465  0.4503 -0.0570
  108GLOH    O3 9691   1.020   0.293   4.897  0.1007  0.0698 -0.0352
  108GLOH   H01 9692   0.935   0.304   4.943  0.0795  0.3697 -0.1398
  109GLOH   H03 9693   5.067   1.021   0.947  1.0333  0.9235 -0.2885
  109GLOH    O1 9694   5.109   0.990   0.864  0.3044 -0.0806 -0.2893
  109GLOH    C1 9695   5.057   1.072   0.755 -0.3842 -0.2792 -0.8438
  109GLOH   H02 9696   4.948   1.084   0.761 -0.2879  0.0659  0.3313
  109GLOH   H08 9697   5.073   1.015   0.664 -2.1660 -1.1126 -0.6731
  109GLOH    C2 9698   5.133   1.210   0.753 -0.5190 -0.4806  0.5456
  109GLOH   H04 9699   5.241   1.195   0.741 -0.2624 -0.1552  2.3089
  109GLOH    O2 9700   5.074   1.292   0.651 -0.0020 -0.4319 -0.1420
  109GLOH   H05 9701   5.068   1.243   0.568  3.5586 -2.4578  0.6848
  109GLOH    C3 9702   5.110   1.270   0.889  0.4166 -0.2642  1.6792
  109GLOH   H06 9703   5.159   1.207   0.964  0.5476 -1.5489  0.5371
  109GLOH   H07 9704   5.002   1.257   0.905 -0.0430  0.9195 -0.3749
  109GLOH    O3 9705   5.153   1.403   0.913  0.3429  0.6995 -0.4059
  109GLOH   H01 9706   5.105   1.452   0.843  0.3396  2.4850  0.8216
  110GLOH   H03 9707   7.458   6.926   7.979  0.5028  0.2276  0.4310
  110GLOH    O1 9708   7.401   7.003   7.960 -0.1619 -0.3644 -0.0358
  110GLOH    C1 9709   7.484   7.114   8.001 -0.7289 -0.5975 -0.4544
  110GLOH   H02 9710   7.571   7.122   7.936 -1.2527  2.2303 -0.8672
  110GLOH   H08 9711   7.521   7.107   8.103 -0.9106  2.3074 -0.1509
  110GLOH    C2 9712   7.407   7.247   7.996 -0.0457  0.2534  0.4979
  110GLOH   H04 9713   7.308   7.226   8.039 -0.5713  2.4581  0.4348
  110GLOH    O2 9714   7.491   7.333   8.084 -0.0841 -0.0656  0.1997
  110GLOH   H05 9715   7.584   7.305   8.076  0.0360  1.0242 -3.0330
  110GLOH    C3 9716   7.401   7.306   7.855  0.4949  0.0905  0.0341
  110GLOH   H06 9717   7.400   7.224   7.783  1.2068 -0.5470  0.7424
  110GLOH   H07 9718   7.488   7.368   7.833 -1.2688  2.3788 -0.7454
  110GLOH    O3 9719   7.274   7.384   7.845 -0.4151 -0.7410 -0.0175
  110GLOH   H01 9720   7.285   7.448   7.917  0.5423 -1.8447  0.8513
  111GLOH   H03 9721   6.235   4.549   2.637 -0.3651 -1.5942 -0.9106
  111GLOH    O1 9722   6.158   4.597   2.600 -0.3103 -0.9735 -0.2316
  111GLOH    C1 9723   6.059   4.498   2.567  0.7664  0.0055 -0.5011
  111GLOH   H02 9724   6.051   4.481   2.460  0.1106 -1.5876 -0.2087
  111GLOH   H08 9725   5.961   4.532   2.601  0.5755 -0.2178 -0.8348
  111GLOH    C2 9726   6.084   4.362   2.638 -0.0741 -0.3867  0.0621
  111GLOH   H04 9727   6.082   4.372   2.747  0.3936  0.1664  0.0244
  111GLOH    O2 9728   5.977   4.278   2.591  0.3937 -0.6901 -0.0978
  111GLOH   H05 9729   5.913   4.331   2.542 -1.2293 -0.7525  1.8700
  111GLOH    C3 9730   6.217   4.305   2.584  0.3716 -0.1839 -0.0060
  111GLOH   H06 9731   6.195   4.285   2.479 -0.2208  1.6161 -0.2484
  111GLOH   H07 9732   6.235   4.211   2.636  0.7599 -0.2097 -0.1857
  111GLOH    O3 9733   6.327   4.399   2.581 -0.9915  0.5648  0.4643
  111GLOH   H01 9734   6.409   4.346   2.589 -0.2741  1.4830 -0.5906
  112GLOH   H03 9735   3.989   8.445   4.816  0.8926  2.0373  0.1935
  112GLOH    O1 9736   4.077   8.403   4.816 -0.0593 -0.0248  0.0617
  112GLOH    C1 9737   4.151   8.480   4.907 -0.5678 -0.0672 -0.0079
  112GLOH   H02 9738   4.173   8.576   4.860 -1.1987 -0.1448 -0.4597
  112GLOH   H08 9739   4.252   8.442   4.924 -0.1794  0.4058 -1.2268
  112GLOH    C2 9740   4.087   8.497   5.044  0.0682 -0.0605 -0.5922
  112GLOH   H04 9741   4.136   8.580   5.097 -1.0559  0.3149 -0.1444
  112GLOH    O2 9742   3.945   8.534   5.044  0.2865 -0.3775  0.7674
  112GLOH   H05 9743   3.918   8.566   4.956 -1.4772 -2.7876  0.3659
  112GLOH    C3 9744   4.112   8.366   5.125  0.1847  0.0919 -0.0575
  112GLOH   H06 9745   4.073   8.287   5.062  0.3340  0.3998 -0.5396
  112GLOH   H07 9746   4.060   8.355   5.220 -0.4759 -0.3988 -0.4795
  112GLOH    O3 9747   4.250   8.354   5.141  0.1411 -0.0423  0.0106
  112GLOH   H01 9748   4.266   8.276   5.198 -1.1787 -0.5551 -0.2936
  113GLOH   H03 9749   2.596   9.721   5.504 -1.7380 -1.8057  0.1380
  113GLOH    O1 9750   2.640   9.670   5.575 -0.2517 -0.0612  0.5184
  113GLOH    C1 9751   2.716   9.563   5.514 -0.0186 -0.2500 -0.6927
  113GLOH   H02 9752   2.786   9.605   5.442 -1.6662  0.0002 -2.1716
  113GLOH   H08 9753   2.663   9.497   5.446  1.7847 -1.3189 -1.0848
  113GLOH    C2 9754   2.793   9.493   5.627  0.1014  0.3100  0.5158
  113GLOH   H04 9755   2.717   9.464   5.702  0.2646 -0.8757  0.2277
  113GLOH    O2 9756   2.858   9.370   5.582  0.1636  0.5939  0.0062
  113GLOH   H05 9757   2.807   9.336   5.507  1.8771  1.6039 -1.6465
  113GLOH    C3 9758   2.893   9.583   5.698 -0.3430 -0.4525 -0.0831
  113GLOH   H06 9759   2.947   9.523   5.771 -1.7936 -1.1121  0.4638
  113GLOH   H07 9760   2.845   9.662   5.755  3.5003  1.2002  1.0770
  113GLOH    O3 9761   2.986   9.645   5.604 -0.1543 -0.0000 -0.0001
  113GLOH   H01 9762   3.075   9.631   5.641  0.5186 -1.6591 -2.1583
  114GLOH   H03 9763   9.280   1.942   0.016 -1.2791  1.0029 -2.5628
  114GLOH    O1 9764   9.347   1.885  -0.025  0.8227  0.5409  1.3130
  114GLOH    C1 9765   9.326   1.756   0.036 -0.1634 -0.4427 -0.1319
  114GLOH   H02 9766   9.417   1.696   0.037 -0.1997 -0.4968  1.8263
  114GLOH   H08 9767   9.250   1.701  -0.020 -2.0704  2.0372 -0.0653
  114GLOH    C2 9768   9.288   1.757   0.187  0.1386  0.1707 -0.7465
  114GLOH   H04 9769   9.376   1.787   0.245  0.3733 -1.3779 -0.2792
  114GLOH    O2 9770   9.186   1.859   0.212 -0.0529 -0.3003  0.3240
  114GLOH   H05 9771   9.106   1.822   0.171  1.4305 -3.6825  0.2657
  114GLOH    C3 9772   9.235   1.619   0.231 -0.5311  0.1913 -0.3722
  114GLOH   H06 9773   9.144   1.593   0.176 -1.0535 -0.3397  0.7446
  114GLOH   H07 9774   9.210   1.630   0.336  0.2093 -1.2051 -0.0429
  114GLOH    O3 9775   9.340   1.523   0.214  0.5957  0.6139 -0.1557
  114GLOH   H01 9776   9.299   1.445   0.257  1.0960  1.6699  2.3151
  115GLOH   H03 9777   4.533   5.580   0.794  0.0143  2.0361 -1.5803
  115GLOH    O1 9778   4.625   5.594   0.765  0.5418  0.2941 -0.7836
  115GLOH    C1 9779   4.645   5.559   0.626  0.0093  0.1960 -0.3929
  115GLOH   H02 9780   4.747   5.591   0.604 -0.4981  2.7265  0.7767
  115GLOH   H08 9781   4.576   5.616   0.563  0.6010 -0.6703 -1.8509
  115GLOH    C2 9782   4.640   5.406   0.609  0.3487  0.0538  0.6641
  115GLOH   H04 9783   4.539   5.375   0.639  0.7846 -1.1901  0.8773
  115GLOH    O2 9784   4.654   5.369   0.469  0.2990 -0.7543  0.0664
  115GLOH   H05 9785   4.727   5.423   0.433 -0.2780  0.1930  0.3170
  115GLOH    C3 9786   4.742   5.334   0.692  0.2716 -0.0397 -0.9577
  115GLOH   H06 9787   4.838   5.377   0.667  0.1809 -0.9476 -2.9667
  115GLOH   H07 9788   4.744   5.229   0.663  2.7099 -0.8299  1.8966
  115GLOH    O3 9789   4.718   5.339   0.831  0.7164  0.9949  0.0103
  115GLOH   H01 9790   4.628   5.370   0.848  0.3856  0.9309 -1.6052
  116GLOH   H03 9791   6.520   4.800   7.237 -0.8784  0.3140  0.1874
  116GLOH    O1 9792   6.478   4.818   7.151 -0.2449 -0.1612 -0.2279
  116GLOH    C1 9793   6.378   4.918   7.167 -0.2084 -0.0084  0.0548
  116GLOH   H02 9794   6.332   4.922   7.266 -0.9369  1.9407 -0.3360
  116GLOH   H08 9795   6.300   4.906   7.092 -2.1804  0.7311  1.9373
  116GLOH    C2 9796   6.427   5.064   7.150 -0.4240 -0.2900  0.7859
  116GLOH   H04 9797   6.451   5.078   7.044  1.5870 -3.1658  0.8092
  116GLOH    O2 9798   6.322   5.159   7.179  0.2906 -0.0362  0.5382
  116GLOH   H05 9799   6.361   5.247   7.167  0.1857  0.2166  1.8668
  116GLOH    C3 9800   6.557   5.109   7.227  0.4142 -0.5385 -0.6506
  116GLOH   H06 9801   6.595   5.206   7.197  0.6036  0.5121  2.8116
  116GLOH   H07 9802   6.635   5.047   7.184 -0.0115 -0.7226 -1.1651
  116GLOH    O3 9803   6.545   5.096   7.367 -0.2041 -0.1357 -0.3212
  116GLOH   H01 9804   6.461   5.136   7.399  0.5669  2.4368 -1.3532
  117GLOH   H03 9805   2.718   5.832   3.560  0.1841 -0.5801 -0.6175
  117GLOH    O1 9806   2.800   5.880   3.537 -0.0246  0.1926  0.2211
  117GLOH    C1 9807   2.864   5.943   3.652  0.3974  0.1803  0.3088
  117GLOH   H02 9808   2.881   5.860   3.720  0.6291 -0.6539 -0.7608
  117GLOH   H08 9809   2.799   6.016   3.700  2.5391  1.4112  1.3811
  117GLOH    C2 9810   3.008   5.999   3.629  0.2941 -0.2447 -0.3546
  117GLOH   H04 9811   2.993   6.080   3.556 -1.5699 -1.5493 -1.4874
  117GLOH    O2 9812   3.057   6.062   3.741 -0.2264  0.6583 -0.0677
  117GLOH   H05 9813   3.092   6.143   3.701 -0.5609 -0.1746 -2.0793
  117GLOH    C3 9814   3.099   5.895   3.567 -0.2189 -0.3321  0.0580
  117GLOH   H06 9815   3.194   5.946   3.550 -0.0326 -1.6950 -3.3593
  117GLOH   H07 9816   3.058   5.873   3.469  0.3762  0.8156 -0.4633
  117GLOH    O3 9817   3.118   5.777   3.646 -0.3117 -0.3539  0.1506
  117GLOH   H01 9818   3.211   5.747   3.642  0.0311  0.1067  3.2988
  118GLOH   H03 9819   5.721   5.952  10.194  1.3998 -0.4870  0.7707
  118GLOH    O1 9820   5.794   5.932  10.131  0.3630  0.1326 -0.6627
  118GLOH    C1 9821   5.736   5.843  10.033 -0.7351  0.1861 -0.2210
  118GLOH   H02 9822   5.715   5.743  10.071  0.7736  0.2085  0.6819
  118GLOH   H08 9823   5.802   5.829   9.948 -0.1155  0.9562  0.1289
  118GLOH    C2 9824   5.602   5.885   9.972 -0.4864 -0.0887 -0.4086
  118GLOH   H04 9825   5.561   5.796   9.923 -0.6209 -0.0934 -0.2868
  118GLOH    O2 9826   5.512   5.932  10.071  0.1628 -0.2218 -0.1058
  118GLOH   H05 9827   5.536   6.022  10.099 -3.6668  0.4520  1.2861
  118GLOH    C3 9828   5.627   5.987   9.861  0.3026 -0.3285 -1.3753
  118GLOH   H06 9829   5.641   6.090   9.896 -0.9627 -0.3079 -0.9075
  118GLOH   H07 9830   5.529   5.993   9.815 -0.7321 -0.1323  0.8198
  118GLOH    O3 9831   5.732   5.952   9.766 -0.4125 -0.1159 -0.3114
  118GLOH   H01 9832   5.738   5.859   9.739  1.5370 -0.2750  0.6089
  119GLOH   H03 9833   7.196   0.167   5.010 -0.6066  0.0895 -0.2918
  119GLOH    O1 9834   7.120   0.115   4.977 -0.7408 -0.1102  0.3269
  119GLOH    C1 9835   7.017   0.151   5.065  1.3705 -1.0113 -0.0039
  119GLOH   H02 9836   6.923   0.115   5.024 -0.9311  2.8153  1.6256
  119GLOH   H08 9837   7.003   0.259   5.065 -1.2833 -1.3311  1.0786
  119GLOH    C2 9838   7.020   0.102   5.212 -0.0993 -0.2637 -0.4764
  119GLOH   H04 9839   7.095   0.157   5.270 -1.3083 -1.2491  2.0810
  119GLOH    O2 9840   6.887   0.125   5.275  0.3057 -0.4993  0.2404
  119GLOH   H05 9841   6.886   0.070   5.356  1.5910  0.7382  1.1288
  119GLOH    C3 9842   7.067  -0.045   5.220  0.4623 -0.3405  0.6504
  119GLOH   H06 9843   7.164  -0.054   5.171  1.1504  0.9000  1.7414
  119GLOH   H07 9844   6.991  -0.107   5.173  0.9379 -0.9069  0.6239
  119GLOH    O3 9845   7.082  -0.086   5.362  0.4296  0.0547 -0.0021
  119GLOH   H01 9846   7.135  -0.027   5.420  0.6240 -2.5045  2.4990
  120GLOH   H03 9847   1.901   9.234   4.024 -2.3675 -1.3559  1.3445
  120GLOH    O1 9848   1.892   9.212   3.929  0.7881 -0.1349  0.7010
  120GLOH    C1 9849   1.768   9.140   3.921  0.0648  0.1986 -0.9179
  120GLOH   H02 9850   1.735   9.108   3.822 -1.6666 -0.3781 -0.1749
  120GLOH   H08 9851   1.682   9.196   3.958  1.4507  0.6641  1.6942
  120GLOH    C2 9852   1.763   9.020   4.013  0.0842  0.1129  0.5909
  120GLOH   H04 9853   1.824   8.942   3.965 -0.6657  0.4943 -1.0153
  120GLOH    O2 9854   1.834   9.049   4.139  0.1854  0.0860  0.4272
  120GLOH   H05 9855   1.784   9.099   4.205  1.1693  0.3352  0.9937
  120GLOH    C3 9856   1.617   8.975   4.042 -0.8791  0.3969  1.4924
  120GLOH   H06 9857   1.555   8.979   3.952 -0.5829  0.1566  1.2758
  120GLOH   H07 9858   1.566   9.049   4.104 -0.0351  0.9269  1.5709
  120GLOH    O3 9859   1.612   8.846   4.101 -0.5272 -0.2442  0.4651
  120GLOH   H01 9860   1.660   8.782   4.046 -2.3131 -1.4331  0.2293
  121ACOH    H4 9861   4.261   4.433   3.949 -0.9179 -2.1684  1.7815
  121ACOH    O2 9862   4.200   4.498   3.988 -0.0939 -0.2372 -0.0797
  121ACOH    C2 9863   4.171   4.461   4.115 -0.0573 -0.5519 -0.3603
  121ACOH    O1 9864   4.202   4.352   4.164 -0.2755 -0.1398 -0.4089
  121ACOH    C1 9865   4.108   4.569   4.193  0.3965  0.3295  0.5209
  121ACOH    H1 9866   4.027   4.613   4.135  0.3244 -0.8534 -0.2933
  121ACOH    H2 9867   4.182   4.645   4.220  0.3697  0.9286 -1.0749
  121ACOH    H3 9868   4.064   4.529   4.285  0.2996  1.3412  0.9178
  122ACOH    H4 9869   4.853   1.662   7.999 -1.1953 -0.5597  0.4877
  122ACOH    O2 9870   4.859   1.699   7.909  1.0884 -0.2985  0.7170
  122ACOH    C2 9871   4.884   1.609   7.814 -0.0139  0.3272  0.1532
  122ACOH    O1 9872   4.922   1.495   7.833  0.4769  0.0242 -0.0170
  122ACOH    C1 9873   4.887   1.663   7.676 -0.8568 -0.2736 -0.2469
  122ACOH    H1 9874   4.868   1.585   7.602  0.0176 -1.6203  0.9128
  122ACOH    H2 9875   4.987   1.703   7.659 -0.0767 -2.3064 -0.5591
  122ACOH    H3 9876   4.816   1.745   7.665  0.2547  0.6518 -0.5872
  123ACOH    H4 9877   9.031   1.128   7.479 -1.1606 -2.1474 -1.6908
  123ACOH    O2 9878   9.066   1.068   7.547 -0.4552 -0.5539 -0.6031
  123ACOH    C2 9879   8.961   1.021   7.620  0.1713  0.5900  0.6425
  123ACOH    O1 9880   8.842   1.017   7.581 -0.2440  0.0124  0.8827
  123ACOH    C1 9881   9.013   0.938   7.728  0.4973  0.5165 -0.0052
  123ACOH    H1 9882   8.963   0.966   7.821  2.0369  0.2349  0.9129
  123ACOH    H2 9883   9.121   0.951   7.732  0.4474  0.6483  0.8772
  123ACOH    H3 9884   9.006   0.833   7.699 -0.7478  0.8135 -0.8649
  124ACOH    H4 9885   5.046   4.191   5.318  0.1554  0.4067  0.3199
  124ACOH    O2 9886   5.132   4.153   5.341  0.0547  0.0301  0.0806
  124ACOH    C2 9887   5.107   4.054   5.431  0.6706 -0.5443  0.2882
  124ACOH    O1 9888   5.003   4.018   5.481 -0.2633 -0.0770 -0.7761
  124ACOH    C1 9889   5.229   3.977   5.458  0.5463  0.1826 -0.7726
  124ACOH    H1 9890   5.270   3.936   5.366 -0.2020 -1.0660 -0.5687
  124ACOH    H2 9891   5.206   3.901   5.533 -3.7162  0.3606 -1.7500
  124ACOH    H3 9892   5.311   4.038   5.495  1.4561 -2.3615  1.5366
  125ACOH    H4 9893   6.614   3.852   7.836 -0.0435 -1.0372 -0.6033
  125ACOH    O2 9894   6.593   3.880   7.745 -0.0395 -0.2085 -0.3530
  125ACOH    C2 9895   6.487   3.806   7.704  0.1307 -0.4259 -0.3968
  125ACOH    O1 9896   6.434   3.708   7.757  0.0923  0.3727 -0.0670
  125ACOH    C1 9897   6.450   3.843   7.564 -0.5669 -0.0132  1.3357
  125ACOH    H1 9898   6.474   3.948   7.552 -1.5656  0.4472  3.1579
  125ACOH    H2 9899   6.348   3.817   7.537 -0.9934  0.8086  2.1376
  125ACOH    H3 9900   6.521   3.786   7.505  0.2775  3.2320 -0.8832
  126ACOH    H4 9901   4.661   8.102   7.270 -0.6943 -0.3889 -0.4102
  126ACOH    O2 9902   4.672   8.017   7.316 -0.0986  0.1352  0.4397
  126ACOH    C2 9903   4.803   8.015   7.350  0.2659  0.7274 -0.0820
  126ACOH    O1 9904   4.891   8.058   7.274 -0.5233  0.4874  0.1869
  126ACOH    C1 9905   4.812   7.928   7.467 -0.1798  0.2171  0.3985
  126ACOH    H1 9906   4.813   7.825   7.432 -0.2229  0.0803  0.7921
  126ACOH    H2 9907   4.727   7.935   7.535 -0.7632  1.0487 -0.4050
  126ACOH    H3 9908   4.897   7.956   7.529 -0.6661  1.0779  0.6894
  127ACOH    H4 9909   6.127   9.103   1.292 -1.9423  0.4956 -1.0987
  127ACOH    O2 9910   6.177   9.084   1.211  0.4715 -0.6447  0.5670
  127ACOH    C2 9911   6.257   9.189   1.183  0.6432 -0.3432 -1.1589
  127ACOH    O1 9912   6.229   9.307   1.210 -0.3320  0.2481 -0.0253
  127ACOH    C1 9913   6.371   9.153   1.094  0.3417 -0.5366 -0.4549
  127ACOH    H1 9914   6.365   9.052   1.055  0.9588 -1.2280  1.1783
  127ACOH    H2 9915   6.461   9.170   1.153  0.4166  1.9081 -1.1992
  127ACOH    H3 9916   6.377   9.222   1.009  0.9135 -0.4293 -0.3348
  129ACOH    H4 9917   1.834   5.869   2.871  0.8919  0.1176  1.3255
  129ACOH    O2 9918   1.827   5.772   2.861 -0.4856  0.3619 -0.2019
  129ACOH    C2 9919   1.699   5.745   2.879  0.6516  0.5665  0.4922
  129ACOH    O1 9920   1.614   5.815   2.927 -0.0530 -0.9960  0.0696
  129ACOH    C1 9921   1.682   5.606   2.879  1.0304 -0.7444 -0.2594
  129ACOH    H1 9922   1.650   5.586   2.777 -1.0103  0.2317  0.1533
  129ACOH    H2 9923   1.596   5.580   2.942 -0.2085  1.3099 -1.0639
  129ACOH    H3 9924   1.775   5.555   2.905  1.2009 -0.9162 -1.2127
  130ACOH    H4 9925   5.773   7.156   4.671 -1.2354  0.1522 -0.7698
  130ACOH    O2 9926   5.807   7.067   4.692 -0.3036  0.6293 -0.2223
  130ACOH    C2 9927   5.858   7.012   4.578  0.0229 -0.5705 -1.2954
  130ACOH    O1 9928   5.839   7.062   4.468  0.3511 -0.5395  0.2315
  130ACOH    C1 9929   5.927   6.885   4.596  0.5877 -0.8461 -0.2425
  130ACOH    H1 9930   5.907   6.835   4.691 -0.7730  1.5323  0.7807
  130ACOH    H2 9931   6.034   6.898   4.585  0.4563  0.3637 -0.1423
  130ACOH    H3 9932   5.888   6.819   4.518 -0.1327 -3.3605  2.1833
  131ACOH    H4 9933   3.280   2.843   6.846  1.1937 -0.9812 -2.2029
  131ACOH    O2 9934   3.218   2.854   6.772 -0.7076  0.5696 -0.4425
  131ACOH    C2 9935   3.227   2.743   6.695  0.0836  0.1733  0.0264
  131ACOH    O1 9936   3.269   2.638   6.729  0.5962 -0.0812  0.3604
  131ACOH    C1 9937   3.129   2.749   6.583 -0.6280 -0.4315  0.6131
  131ACOH    H1 9938   3.062   2.664   6.572  0.6659 -1.1412 -2.3368
  131ACOH    H2 9939   3.186   2.754   6.490 -2.7841  0.5964 -0.6885
  131ACOH    H3 9940   3.071   2.840   6.599  2.0379  1.4535 -0.1553
  132ACOH    H4 9941   4.619   8.193  -0.007 -0.4730  0.3654  0.3220
  132ACOH    O2 9942   4.695   8.181   0.052 -0.5284 -0.4815  0.2269
  132ACOH    C2 9943   4.652   8.104   0.153 -0.5044  0.2144  0.5159
  132ACOH    O1 9944   4.543   8.051   0.161 -0.5941 -0.1862  0.3320
  132ACOH    C1 9945   4.761   8.061   0.242 -0.3665  0.4138 -0.4200
  132ACOH    H1 9946   4.833   8.014   0.175 -2.2074  0.4422 -2.4948
  132ACOH    H2 9947   4.722   7.994   0.318 -1.8325  1.3835 -0.2734
  132ACOH    H3 9948   4.806   8.145   0.295  2.6361 -1.4526  0.0244
  134ACOH    H4 9949   6.646   5.252   6.534  0.0497 -1.1708  1.0219
  134ACOH    O2 9950   6.563   5.213   6.502 -0.2733  0.0297  0.3574
  134ACOH    C2 9951   6.586   5.084   6.483  0.1944 -0.0561  0.3199
  134ACOH    O1 9952   6.678   5.020   6.535 -0.1563  0.5909 -0.2813
  134ACOH    C1 9953   6.460   5.031   6.422 -0.3138 -0.4260  0.3420
  134ACOH    H1 9954   6.376   5.056   6.487  0.6508  3.5436  0.1909
  134ACOH    H2 9955   6.467   4.922   6.421  0.7219 -0.3856  1.8982
  134ACOH    H3 9956   6.450   5.065   6.319  1.1662 -3.0748 -0.7309
  136ACOH    H4 9957   4.241   2.577   7.246  1.3926 -0.2698  1.2511
  136ACOH    O2 9958   4.254   2.485   7.217 -0.5568 -0.3625  0.6474
  136ACOH    C2 9959   4.383   2.462   7.183 -0.2892  0.2948 -0.5385
  136ACOH    O1 9960   4.459   2.544   7.134 -0.3162 -0.6683  0.0000
  136ACOH    C1 9961   4.406   2.318   7.165  0.5654  0.3934  0.2246
  136ACOH    H1 9962   4.455   2.301   7.069 -1.3185  0.0095 -0.6782
  136ACOH    H2 9963   4.316   2.258   7.164 -0.3705  1.7535 -1.6989
  136ACOH    H3 9964   4.467   2.276   7.245 -1.4204 -0.2392  1.4189
  137ACOH    H4 9965   4.107   2.082   0.191  0.3603 -0.1668  1.0147
  137ACOH    O2 9966   4.039   2.013   0.187  0.1897  0.0587 -0.0297
  137ACOH    C2 9967   4.104   1.899   0.192  0.4645 -0.0332  0.3266
  137ACOH    O1 9968   4.217   1.876   0.228  0.3980  0.1711  0.1366
  137ACOH    C1 9969   4.012   1.784   0.157  0.2998 -0.2341 -0.1367
  137ACOH    H1 9970   3.912   1.784   0.201 -0.6027 -2.0225 -2.0722
  137ACOH    H2 9971   4.064   1.689   0.167  3.3580  1.2439 -1.3853
  137ACOH    H3 9972   3.983   1.801   0.053  1.5078  2.9463 -0.0153
  138ACOH    H4 9973   0.095   2.038   1.967 -0.3202  2.0790 -1.7277
  138ACOH    O2 9974   0.134   1.995   1.889  0.3146  0.2291 -0.4409
  138ACOH    C2 9975   0.067   2.047   1.781  0.1824 -0.1421 -0.2892
  138ACOH    O1 9976  -0.038   2.112   1.797  0.8712  0.3260  0.0477
  138ACOH    C1 9977   0.128   2.026   1.647  0.0609  0.0731  0.1682
  138ACOH    H1 9978   0.177   1.928   1.646  1.0247  0.5567 -0.6444
  138ACOH    H2 9979   0.195   2.108   1.622  0.1895  1.0353  3.4647
  138ACOH    H3 9980   0.062   2.020   1.561  0.8687 -2.1900 -0.3501
  139ACOH    H4 9981   1.581   3.218   3.430 -1.0609  0.5315 -1.5359
  139ACOH    O2 9982   1.543   3.282   3.492  0.1643  0.1961 -0.4189
  139ACOH    C2 9983   1.579   3.253   3.619  0.2919 -0.5392  0.1720
  139ACOH    O1 9984   1.640   3.155   3.655 -0.3010  0.0174  0.4035
  139ACOH    C1 9985   1.520   3.343   3.723 -0.4640 -0.3793  0.9938
  139ACOH    H1 9986   1.475   3.289   3.805  1.8517 -0.9340  1.9433
  139ACOH    H2 9987   1.440   3.395   3.670 -0.1224 -0.2775  0.5670
  139ACOH    H3 9988   1.601   3.409   3.755  0.5765 -0.0549 -2.1203
  141ACOH    H4 9989   9.565   4.949   5.524  0.3050 -0.6096 -1.5604
  141ACOH    O2 9990   9.561   4.869   5.579 -0.4073  0.4961  0.0652
  141ACOH    C2 9991   9.483   4.785   5.507 -0.2208  0.4179 -0.3302
  141ACOH    O1 9992   9.404   4.815   5.418 -0.6617 -0.1671  0.4241
  141ACOH    C1 9993   9.465   4.656   5.579 -0.0382 -0.1624  0.0561
  141ACOH    H1 9994   9.377   4.598   5.553  0.4146 -1.0421  0.4850
  141ACOH    H2 9995   9.470   4.676   5.686 -1.9605  2.2395 -0.2533
  141ACOH    H3 9996   9.550   4.591   5.559  0.3226  0.7720 -1.5909
  142ACOH    H4 9997   0.411   9.248   6.223  2.8400  1.1206 -0.4877
  142ACOH    O2 9998   0.444   9.215   6.309  0.2104  0.2933  0.2356
  142ACOH    C2 9999   0.516   9.103   6.282  0.3898 -0.2356 -0.4553
  142ACOH    O110000   0.520   9.052   6.175 -0.4287  0.2482  0.1492
  142ACOH    C110001   0.583   9.041   6.399  0.0338 -0.0008 -0.1737
  142ACOH    H110002   0.521   8.953   6.418  1.0187 -1.2221 -2.3929
  142ACOH    H210003   0.587   9.104   6.488  0.8440  0.1946 -0.3521
  142ACOH    H310004   0.678   9.000   6.367  0.1027 -1.3087  1.6623
  144ACOH    H410005   2.359   4.069   9.912 -0.5583  0.0509 -0.3565
  144ACOH    O210006   2.396   4.151   9.876  0.3369 -0.2450 -0.1387
  144ACOH    C210007   2.424   4.228   9.983 -0.2814  0.3491 -0.0991
  144ACOH    O110008   2.407   4.201  10.101  0.2947 -0.4312  0.1174
  144ACOH    C110009   2.513   4.341   9.949  0.2594 -1.0017  0.2027
  144ACOH    H110010   2.537   4.400  10.037 -0.5883 -1.0953  0.5046
  144ACOH    H210011   2.449   4.410   9.894 -1.5783 -1.8942  1.1640
  144ACOH    H310012   2.596   4.307   9.887 -0.4754 -1.8034 -0.3725
  145ACOH    H410013   4.533   5.593   1.850  0.9093 -0.6869  3.6351
  145ACOH    O210014   4.478   5.670   1.869  0.1949 -0.1010 -0.3796
  145ACOH    C210015   4.511   5.773   1.790  0.5998 -0.9162 -0.6272
  145ACOH    O110016   4.542   5.766   1.672  0.2417 -0.3706  0.0641
  145ACOH    C110017   4.438   5.891   1.841  0.2528  0.0245 -0.6484
  145ACOH    H110018   4.359   5.916   1.771  0.0004  0.7952 -0.0866
  145ACOH    H210019   4.515   5.968   1.850  0.6154 -0.3755 -0.2536
  145ACOH    H310020   4.396   5.874   1.941 -1.7398  1.5077 -1.2027
  147ACOH    H410021   4.576   3.410   4.567  0.7376 -1.0865 -1.5603
  147ACOH    O210022   4.649   3.385   4.627 -0.0192 -0.2358 -0.2689
  147ACOH    C210023   4.730   3.490   4.651  0.4367 -0.4603  0.3734
  147ACOH    O110024   4.846   3.476   4.685 -0.0482  0.1321 -0.7660
  147ACOH    C110025   4.661   3.620   4.625  0.2034  0.2767  0.3560
  147ACOH    H110026   4.726   3.693   4.674  1.4183 -1.7120  1.8026
  147ACOH    H210027   4.570   3.610   4.685  0.7418  0.3137  1.1914
  147ACOH    H310028   4.649   3.629   4.518 -1.1419 -1.8147  0.3116
  148ACOH    H410029   6.463   6.403   1.982  2.0864  0.5571 -0.1570
  148ACOH    O210030   6.454   6.497   2.003 -0.2405  0.2809  0.2276
  148ACOH    C210031   6.527   6.568   1.918  0.0358 -0.1223  0.2817
  148ACOH    O110032   6.621   6.531   1.850  0.1827 -0.1309 -0.0964
  148ACOH    C110033   6.498   6.713   1.952 -0.8719 -0.0957  0.3908
  148ACOH    H110034   6.590   6.770   1.944  0.6812 -2.0176  3.7306
  148ACOH    H210035   6.473   6.716   2.058 -1.5912 -1.3728  0.2780
  148ACOH    H310036   6.416   6.748   1.889  0.5348  0.8533 -0.9489
  149ACOH    H410037   7.054   3.146   4.605  0.2423 -0.2521  0.2310
  149ACOH    O210038   7.071   3.241   4.615  0.2260 -0.2775  0.4977
  149ACOH    C210039   7.128   3.251   4.730  0.7548 -0.0160 -0.1613
  149ACOH    O110040   7.140   3.162   4.810  0.2344  0.7071  0.1810
  149ACOH    C110041   7.156   3.389   4.763  0.3449  0.2747 -0.0680
  149ACOH    H110042   7.062   3.443   4.768 -0.4425 -0.7806 -2.5977
  149ACOH    H210043   7.225   3.435   4.692 -0.5023  0.2152 -0.9330
  149ACOH    H310044   7.195   3.391   4.865  1.4166  1.5694 -0.4945
  150ACOH    H410045   4.821   7.022   0.029  0.0102 -2.2176  1.5910
  150ACOH    O210046   4.915   6.995   0.030  0.7222  0.1013  0.3514
  150ACOH    C210047   4.982   7.101   0.058 -0.4263  0.2008 -0.5429
  150ACOH    O110048   4.954   7.217   0.025  0.0809 -0.2815  0.2173
  150ACOH    C110049   5.119   7.054   0.109  0.5828 -0.2096 -0.4117
  150ACOH    H110050   5.158   6.985   0.034  1.5215 -0.4555  0.2833
  150ACOH    H210051   5.109   7.003   0.205 -1.9901 -1.4434 -1.3182
  150ACOH    H310052   5.183   7.142   0.116  0.2322  0.1806 -1.9015
  151ACOH    H410053   5.722   1.695   8.017  1.1176 -0.8016 -0.8979
  151ACOH    O210054   5.775   1.775   8.000  0.1332 -0.0111 -0.2731
  151ACOH    C210055   5.798   1.766   7.864 -0.6013 -0.1707  0.2000
  151ACOH    O110056   5.740   1.692   7.787 -0.0923 -0.0468 -0.0299
  151ACOH    C110057   5.890   1.869   7.812  0.4106 -0.3754 -0.2742
  151ACOH    H110058   5.880   1.870   7.703 -1.7794  0.4308 -0.0986
  151ACOH    H210059   5.987   1.836   7.846  0.0603 -0.7217  0.3846
  151ACOH    H310060   5.875   1.966   7.860  1.4148 -1.5579  2.4962
  152ACOH    H410061   9.575   0.250   3.938  0.8750  0.4072  2.2162
  152ACOH    O210062   9.656   0.294   3.907  0.2407  0.0282 -0.0498
  152ACOH    C210063   9.750   0.199   3.874  0.3119  0.0972  0.1411
  152ACOH    O110064   9.735   0.083   3.834  0.1878  0.3488 -0.5070
  152ACOH    C110065   9.880   0.267   3.839  0.2243  0.1718  0.1839
  152ACOH    H110066   9.862   0.346   3.767 -0.6169 -1.2677 -1.2222
  152ACOH    H210067   9.951   0.203   3.785  0.1451 -1.0530  1.4870
  152ACOH    H310068   9.935   0.305   3.926  2.9135 -1.4937 -0.7021
  153ACOH    H410069   4.000   5.260   2.147  1.0957  0.0147 -0.7362
  153ACOH    O210070   3.941   5.335   2.127  0.1110 -0.6291 -0.2685
  153ACOH    C210071   3.949   5.407   2.242  0.1889 -0.5403 -0.1562
  153ACOH    O110072   4.022   5.389   2.333  0.4222 -0.2591  0.1329
  153ACOH    C110073   3.875   5.535   2.230 -0.1088  0.0487  0.0879
  153ACOH    H110074   3.838   5.584   2.320 -0.4513  0.4819 -0.2807
  153ACOH    H210075   3.785   5.514   2.171 -0.8918 -1.1563  1.6731
  153ACOH    H310076   3.937   5.603   2.172  0.7009 -0.1931  0.6740
  154ACOH    H410077   5.244   4.979   6.023  0.6696 -2.6344  1.6708
  154ACOH    O210078   5.300   4.960   5.945  0.1780  0.7476  0.4356
  154ACOH    C210079   5.429   4.986   5.964 -0.1352 -0.2339 -1.2465
  154ACOH    O110080   5.471   5.026   6.072 -0.0627  0.0079  0.2288
  154ACOH    C110081   5.508   4.936   5.849  0.2879  0.2184  0.0154
  154ACOH    H110082   5.453   4.948   5.755  1.2721 -1.8287 -0.8445
  154ACOH    H210083   5.542   4.834   5.867 -0.1521 -0.2970 -1.9187
  154ACOH    H310084   5.595   5.000   5.832  0.6329  0.3260  2.1247
  156ACOH    H410085   3.818   5.471   6.411 -1.0611  1.4009 -0.4407
  156ACOH    O210086   3.871   5.540   6.455 -0.0713  0.3813  0.0222
  156ACOH    C210087   3.862   5.651   6.377  0.9346 -0.2698 -0.3022
  156ACOH    O110088   3.782   5.667   6.285  0.3503  0.3043  0.4735
  156ACOH    C110089   3.951   5.754   6.426 -0.7178 -0.3908  0.3755
  156ACOH    H110090   3.928   5.844   6.368 -2.8799  0.0288  1.7902
  156ACOH    H210091   4.053   5.724   6.402 -0.2557  1.7597 -0.4442
  156ACOH    H310092   3.940   5.773   6.533 -0.6256 -1.4645  0.5818
  157ACOH    H410093   0.690   1.143   2.107  1.9347 -0.7305  2.6999
  157ACOH    O210094   0.637   1.062   2.115 -0.0564  0.2557  0.2211
  157ACOH    C210095   0.548   1.064   2.017  0.8153  0.1722  0.0548
  157ACOH    O110096   0.546   1.132   1.917  0.5211  0.3751  0.2468
  157ACOH    C110097   0.432   0.974   2.050  0.6876  0.3973  0.0694
  157ACOH    H110098   0.345   1.038   2.067  2.0572  2.0009  1.2936
  157ACOH    H210099   0.460   0.915   2.138  0.5567  1.8863  1.1419
  157ACOH    H310100   0.408   0.915   1.962 -1.0377  0.2493  0.6236
  159ACOH    H410101   5.664   3.790   6.799  0.6810  0.5095  0.0912
  159ACOH    O210102   5.753   3.754   6.809  0.3948 -0.2682 -0.1449
  159ACOH    C210103   5.751   3.668   6.915  0.2823 -0.5445 -0.5196
  159ACOH    O110104   5.664   3.636   6.992  0.2464  0.1265  0.2934
  159ACOH    C110105   5.889   3.634   6.957 -0.0289  0.3243 -0.6963
  159ACOH    H110106   5.908   3.667   7.059 -2.2497 -1.4070  0.3125
  159ACOH    H210107   5.957   3.681   6.885 -1.3660 -0.2269 -2.3658
  159ACOH    H310108   5.903   3.526   6.960 -1.4398  0.1657  1.1924
  160ACOH    H410109   5.948   2.246   2.525  2.0206  0.3333 -1.7723
  160ACOH    O210110   5.882   2.213   2.461  0.2708  0.0388  0.1190
  160ACOH    C210111   5.769   2.280   2.484  0.5787 -0.2048 -0.1947
  160ACOH    O110112   5.734   2.357   2.574  0.4053  0.0406  0.3168
  160ACOH    C110113   5.666   2.249   2.384  0.7039 -0.3634  0.5829
  160ACOH    H110114   5.604   2.331   2.350  0.2924  0.2557  2.7311
  160ACOH    H210115   5.595   2.188   2.441  0.7615  0.0125  1.0619
  160ACOH    H310116   5.703   2.188   2.301 -0.5283 -1.4154  0.7829
  161ACOH    H410117   7.927   5.594   5.387  0.3911  1.0233 -1.1122
  161ACOH    O210118   8.018   5.601   5.419 -0.1271  0.2278  0.5893
  161ACOH    C210119   8.050   5.485   5.484  0.0654  0.2780  0.5905
  161ACOH    O110120   7.972   5.398   5.525 -0.1222 -0.1253  0.2861
  161ACOH    C110121   8.199   5.467   5.517  0.8114  0.0066  0.9957
  161ACOH    H110122   8.222   5.366   5.481  0.2160 -0.5774  2.2049
  161ACOH    H210123   8.231   5.495   5.618  2.0777  2.3667 -0.0368
  161ACOH    H310124   8.254   5.541   5.459 -0.6964 -0.0305 -0.4922
  162ACOH    H410125   4.321   3.781   3.210  1.7202 -0.0348 -0.6233
  162ACOH    O210126   4.342   3.870   3.243 -0.1888  0.1889  0.0213
  162ACOH    C210127   4.373   3.864   3.370 -0.4776 -0.0150 -0.4567
  162ACOH    O110128   4.382   3.767   3.438 -0.1298  0.0543 -0.4507
  162ACOH    C110129   4.383   4.001   3.428  0.4290  0.7653  0.4434
  162ACOH    H110130   4.286   4.026   3.470  0.3889 -0.2499  0.9479
  162ACOH    H210131   4.402   4.073   3.348  0.4317  0.9882  0.6436
  162ACOH    H310132   4.453   4.006   3.511 -2.1304 -0.9325  2.7455
  163ACOH    H410133   9.598   8.229   7.802  0.5662  4.3987  0.2707
  163ACOH    O210134   9.540   8.230   7.880 -0.4397  0.3558 -0.2986
  163ACOH    C210135   9.414   8.190   7.846  0.3142 -0.1095  0.0077
  163ACOH    O110136   9.372   8.147   7.742  0.2044 -0.7393 -0.4253
  163ACOH    C110137   9.325   8.187   7.964  0.9649  0.3022 -0.4674
  163ACOH    H110138   9.247   8.111   7.955  0.0521  1.2386 -0.6182
  163ACOH    H210139   9.279   8.284   7.982  0.5838 -0.1508  1.0451
  163ACOH    H310140   9.384   8.167   8.054 -0.1121 -1.1484 -0.0575
  164ACOH    H410141   5.383   2.413   2.167 -0.9636  0.0154 -1.1960
  164ACOH    O210142   5.396   2.508   2.152 -0.3079 -0.0190 -0.8645
  164ACOH    C210143   5.528   2.528   2.136 -0.4381  0.0530  0.1988
  164ACOH    O110144   5.622   2.454   2.110 -0.4137  0.1921  0.4197
  164ACOH    C110145   5.551   2.676   2.143 -0.1350  0.3009  1.0450
  164ACOH    H110146   5.606   2.702   2.234 -0.7816  1.1331  1.1992
  164ACOH    H210147   5.459   2.734   2.136  1.1093  2.4366  1.7123
  164ACOH    H310148   5.607   2.713   2.057  0.1781 -2.7566 -0.1215
  165ACOH    H410149   2.103   3.687   3.191  2.5654  1.2546  0.7820
  165ACOH    O210150   2.067   3.764   3.239  0.4513  0.4497  0.5248
  165ACOH    C210151   2.068   3.720   3.363  0.6718  0.2986 -0.2225
  165ACOH    O110152   2.131   3.621   3.397 -0.1105  0.2404 -0.6126
  165ACOH    C110153   1.973   3.791   3.450 -0.7206 -0.4234  0.0397
  165ACOH    H110154   1.988   3.897   3.431 -1.1098  0.2736  3.3024
  165ACOH    H210155   1.997   3.763   3.553  0.7022  1.9209  0.3973
  165ACOH    H310156   1.872   3.760   3.427 -1.0431  0.6962 -0.0805
  166ACOH    H410157   2.690   8.653   3.995 -1.8793  1.4165  0.4879
  166ACOH    O210158   2.633   8.627   3.921 -0.2066  0.3892 -0.4739
  166ACOH    C210159   2.532   8.721   3.923 -0.0396 -0.2033  1.1823
  166ACOH    O110160   2.504   8.798   4.017 -0.7696 -0.3650  0.3922
  166ACOH    C110161   2.439   8.707   3.810  0.1675  0.8677 -0.9874
  166ACOH    H110162   2.467   8.615   3.758  1.6517  0.5237  0.3871
  166ACOH    H210163   2.452   8.788   3.738  1.1110  2.8970  1.4080
  166ACOH    H310164   2.332   8.704   3.833  0.9900 -4.3667  2.9888
  167ACOH    H410165   4.461   0.808   6.965 -0.8437  0.8381 -1.6517
  167ACOH    O210166   4.520   0.877   6.999 -0.2509 -0.4489  0.0037
  167ACOH    C210167   4.568   0.844   7.123  0.0795 -0.4475 -0.3160
  167ACOH    O110168   4.510   0.773   7.205  0.0518  0.2067 -0.2435
  167ACOH    C110169   4.680   0.930   7.157 -1.0120 -0.4826  0.4757
  167ACOH    H110170   4.717   0.980   7.067 -0.9172  1.6847  1.7027
  167ACOH    H210171   4.759   0.865   7.195  0.2664  0.6404 -0.2123
  167ACOH    H310172   4.659   1.004   7.234  0.5036  1.1999 -0.6587
  168ACOH    H410173   6.515   4.762   7.011  1.9577  1.9203 -0.6483
  168ACOH    O210174   6.545   4.704   6.939 -0.0163 -0.0327  0.0452
  168ACOH    C210175   6.631   4.777   6.872  0.4377 -0.3414  0.7485
  168ACOH    O110176   6.688   4.880   6.907 -0.1806  0.0364 -0.0804
  168ACOH    C110177   6.662   4.714   6.738 -0.0049 -0.1773  0.1227
  168ACOH    H110178   6.765   4.678   6.743  0.4086  0.8259 -1.0365
  168ACOH    H210179   6.654   4.787   6.658 -1.4047 -0.8325 -0.3534
  168ACOH    H310180   6.603   4.624   6.722 -1.0918  0.6049 -0.2829
  171ACOH    H410181   4.990   3.474   5.907 -0.5244 -0.9169 -0.9418
  171ACOH    O210182   5.060   3.437   5.963 -0.2642 -0.2395 -0.8207
  171ACOH    C210183   5.126   3.348   5.889 -0.0470  0.1961 -0.6239
  171ACOH    O110184   5.097   3.314   5.776 -0.2176 -0.5050 -0.4242
  171ACOH    C110185   5.242   3.289   5.964 -0.2489 -0.3192 -0.2992
  171ACOH    H110186   5.292   3.373   6.014 -2.8574  1.8812 -1.2297
  171ACOH    H210187   5.307   3.233   5.897  1.4347  0.7195  0.4257
  171ACOH    H310188   5.199   3.234   6.048 -0.6760  1.0336  0.3911
  172ACOH    H410189   5.434   3.387   7.551 -0.2380  0.8174  0.3597
  172ACOH    O210190   5.491   3.466   7.553  0.6699  0.1778  0.0979
  172ACOH    C210191   5.517   3.503   7.428  0.1970 -0.3417  1.3809
  172ACOH    O110192   5.458   3.461   7.335 -0.0221  0.0481 -0.5602
  172ACOH    C110193   5.638   3.585   7.416 -0.0422  0.5982 -0.2589
  172ACOH    H110194   5.679   3.591   7.315  0.2975  1.7573 -0.0591
  172ACOH    H210195   5.719   3.565   7.485 -0.1454 -0.8457 -0.5405
  172ACOH    H310196   5.612   3.689   7.434  1.0762  0.6177  1.3431
  173ACOH    H410197   5.401   2.636   7.382 -0.1880  1.4285  1.6952
  173ACOH    O210198   5.497   2.649   7.376 -0.1178  0.3148 -0.2605
  173ACOH    C210199   5.511   2.782   7.394  0.6350  0.2024 -0.0347
  173ACOH    O110200   5.455   2.852   7.476 -0.4510 -0.0408  0.1633
  173ACOH    C110201   5.645   2.813   7.339  0.4659 -0.8063  0.1987
  173ACOH    H110202   5.654   2.757   7.246 -2.8643 -0.5284 -0.3619
  173ACOH    H210203   5.724   2.781   7.406  1.2884  0.2193 -0.2569
  173ACOH    H310204   5.662   2.919   7.317 -1.4499 -0.6102 -0.4307
  174ACOH    H410205   1.584   0.521   1.369  1.1056  0.2667  0.6557
  174ACOH    O210206   1.611   0.530   1.276 -0.3180  0.1839  0.2138
  174ACOH    C210207   1.610   0.664   1.250  0.0880  0.2792 -0.3972
  174ACOH    O110208   1.606   0.751   1.334  0.2254 -0.0411 -0.4350
  174ACOH    C110209   1.642   0.697   1.109 -0.0659  0.0539 -0.0399
  174ACOH    H110210   1.658   0.600   1.062 -0.4018 -0.9034  1.7495
  174ACOH    H210211   1.734   0.755   1.109  0.1818 -0.3123  1.6792
  174ACOH    H310212   1.559   0.757   1.071  1.8145  1.8774 -1.3343
  175ACOH    H410213   8.228   9.629   0.272 -0.0376 -1.0402  0.5242
  175ACOH    O210214   8.134   9.638   0.292 -0.0752 -0.1014 -0.0124
  175ACOH    C210215   8.119   9.561   0.399  0.2118  0.4577 -0.6310
  175ACOH    O110216   8.206   9.513   0.468 -0.0690 -0.1087 -0.0864
  175ACOH    C110217   7.976   9.555   0.437 -0.2593 -0.1837  0.3511
  175ACOH    H110218   7.911   9.619   0.377  1.5468  0.5499 -0.8634
  175ACOH    H210219   7.966   9.590   0.540 -0.3245  0.5733  0.0885
  175ACOH    H310220   7.940   9.452   0.436  1.1326 -0.6850  0.6378
  176ACOH    H410221   3.738   4.581   6.914 -0.5276 -1.7226  0.8021
  176ACOH    O210222   3.701   4.569   6.825  0.0631  0.6040  0.2038
  176ACOH    C210223   3.683   4.687   6.759  0.2313  0.2586  0.4686
  176ACOH    O110224   3.747   4.789   6.795 -0.0708 -0.0638 -0.0433
  176ACOH    C110225   3.633   4.663   6.617 -0.0307 -0.5130 -0.1798
  176ACOH    H110226   3.719   4.652   6.550  0.7336  2.6743  0.2035
  176ACOH    H210227   3.582   4.745   6.566  1.2636 -0.5936 -1.6564
  176ACOH    H310228   3.574   4.572   6.610 -1.6084  0.3894  1.0476
  177ACOH    H410229   6.682   0.363   0.612  0.6263 -0.5599  0.7630
  177ACOH    O210230   6.754   0.330   0.555  0.1564 -0.3452  0.0417
  177ACOH    C210231   6.857   0.275   0.615  0.0084 -0.5772 -0.4872
  177ACOH    O110232   6.883   0.273   0.735 -0.2872 -0.0344  0.1757
  177ACOH    C110233   6.955   0.238   0.511  0.3323  0.3527 -0.5557
  177ACOH    H110234   7.024   0.158   0.539  0.7189  0.9238  0.1473
  177ACOH    H210235   7.012   0.328   0.493  1.0665 -0.1052 -0.5579
  177ACOH    H310236   6.904   0.198   0.424  0.9698 -1.6355 -0.0675
  178ACOH    H410237   3.088   4.487   3.145 -1.2078 -1.4652 -0.2766
  178ACOH    O210238   3.008   4.500   3.199 -0.7562 -0.1399  0.0769
  178ACOH    C210239   2.994   4.632   3.197 -0.7468  0.1552  0.0228
  178ACOH    O110240   3.057   4.717   3.129  0.0297 -0.2516 -0.3883
  178ACOH    C110241   2.876   4.663   3.287  0.5844  0.4996 -0.5102
  178ACOH    H110242   2.886   4.628   3.389  0.4127  2.0709  0.0655
  178ACOH    H210243   2.788   4.613   3.246 -0.7665  0.1541  2.6990
  178ACOH    H310244   2.862   4.771   3.289 -1.1340  0.2721  0.6338
  180ACOH    H410245   5.212   5.667   0.799  2.8721  1.4024 -1.0429
  180ACOH    O210246   5.244   5.575   0.803 -0.5225  0.1964  0.0924
  180ACOH    C210247   5.166   5.502   0.723 -0.1361 -0.0734  0.4974
  180ACOH    O110248   5.076   5.541   0.659  0.3027  0.3346  0.0089
  180ACOH    C110249   5.192   5.357   0.727 -0.0061  0.5301  0.5859
  180ACOH    H110250   5.296   5.342   0.698 -0.1885 -1.7221  1.0039
  180ACOH    H210251   5.135   5.301   0.653  4.0087 -1.8289 -0.8895
  180ACOH    H310252   5.172   5.314   0.825  1.5588  0.8675  1.0664
  181ACOH    H410253   8.689   0.563   5.759  2.0355 -2.7015 -1.8976
  181ACOH    O210254   8.774   0.593   5.796 -0.0310  0.2059  0.7256
  181ACOH    C210255   8.833   0.484   5.836  0.1338 -0.0241  0.1196
  181ACOH    O110256   8.782   0.375   5.841  0.0693 -0.4474  0.0543
  181ACOH    C110257   8.977   0.498   5.879  0.2818  0.4121 -0.2922
  181ACOH    H110258   8.976   0.583   5.946  1.3992  0.2821 -0.0980
  181ACOH    H210259   9.032   0.508   5.785  0.1019  0.4740 -0.3881
  181ACOH    H310260   9.023   0.417   5.936  0.5076  1.1149  0.5266
  182ACOH    H410261   5.386   8.824   1.431 -0.1085 -0.0808 -0.3937
  182ACOH    O210262   5.478   8.800   1.411  0.1250  0.3704  0.1194
  182ACOH    C210263   5.513   8.716   1.506 -0.9059 -0.3846  0.1739
  182ACOH    O110264   5.472   8.721   1.622  0.0863  0.0990  0.5005
  182ACOH    C110265   5.635   8.644   1.467 -1.2521  0.3066  0.2432
  182ACOH    H110266   5.614   8.545   1.427 -2.2364  1.4598 -2.2360
  182ACOH    H210267   5.693   8.630   1.558 -1.6324 -1.8876  0.1742
  182ACOH    H310268   5.697   8.706   1.402 -0.5694 -1.4085 -0.7799
  183ACOH    H410269   3.942   6.608   6.764  2.6800  2.6162 -1.9074
  183ACOH    O210270   3.906   6.596   6.675 -0.1697  0.3023 -0.5516
  183ACOH    C210271   3.997   6.660   6.602  0.6749 -0.5526  0.2164
  183ACOH    O110272   4.101   6.709   6.639 -0.4461 -0.0236 -0.3606
  183ACOH    C110273   3.929   6.681   6.472 -0.2460  0.3501 -0.2085
  183ACOH    H110274   3.837   6.734   6.498 -1.0267 -1.1165  0.0617
  183ACOH    H210275   3.903   6.585   6.427  0.9757  0.2804 -0.7889
  183ACOH    H310276   3.988   6.744   6.405 -1.1251  0.6167 -0.7342
  184ACOH    H410277   7.560   1.655   2.147  1.4411  1.3138 -0.3923
  184ACOH    O210278   7.564   1.613   2.060  0.4443  0.2843  0.0513
  184ACOH    C210279   7.551   1.710   1.973 -0.4945 -0.6930  0.3892
  184ACOH    O110280   7.541   1.828   1.994  0.9150 -0.3847  0.7655
  184ACOH    C110281   7.550   1.651   1.839 -0.3568  0.0608 -0.6228
  184ACOH    H110282   7.485   1.564   1.830  0.9130 -1.0580  0.8639
  184ACOH    H210283   7.653   1.625   1.815 -1.0286 -1.1032 -2.2754
  184ACOH    H310284   7.525   1.728   1.766  1.8951 -0.2471 -1.7539
  185ACOH    H410285   5.953   7.703   7.454  0.5808  0.9237  1.2851
  185ACOH    O210286   5.917   7.627   7.503  0.3082  0.1137 -0.1480
  185ACOH    C210287   6.014   7.580   7.584 -0.8570 -0.5217  0.3764
  185ACOH    O110288   6.121   7.630   7.610  0.0706 -0.3641  0.2490
  185ACOH    C110289   5.984   7.445   7.635  0.2005  0.4504  0.0085
  185ACOH    H110290   5.887   7.401   7.611  0.6799 -1.7268  1.9378
  185ACOH    H210291   6.004   7.440   7.742  1.0189 -0.5849 -0.1882
  185ACOH    H310292   6.054   7.374   7.591  0.0415 -0.1213  0.6777
  186ACOH    H410293   6.938   9.279   1.147  0.3990 -1.7255 -0.0492
  186ACOH    O210294   7.028   9.292   1.111  0.1600  0.0571 -0.0295
  186ACOH    C210295   7.061   9.423   1.086  0.2340 -0.7656 -0.0181
  186ACOH    O110296   6.985   9.518   1.096  0.0401 -0.0334 -0.0443
  186ACOH    C110297   7.197   9.435   1.036  0.1554 -0.9787 -0.6753
  186ACOH    H110298   7.195   9.410   0.930 -0.4914 -2.7854 -0.2631
  186ACOH    H210299   7.260   9.365   1.091 -0.2327 -1.6042 -1.0237
  186ACOH    H310300   7.241   9.535   1.038 -0.9882 -0.4559 -0.6725
  187ACOH    H410301   3.928   1.538   2.198  0.8890  0.5608  0.2595
  187ACOH    O210302   3.906   1.492   2.281 -0.2734 -0.0505 -0.3979
  187ACOH    C210303   4.006   1.410   2.303  0.4365 -0.0073 -0.0334
  187ACOH    O110304   4.104   1.373   2.236 -0.1449 -0.2569 -0.3430
  187ACOH    C110305   3.980   1.354   2.433  0.0781 -0.1410  0.3365
  187ACOH    H110306   4.006   1.424   2.513  0.4418  0.8557 -0.6492
  187ACOH    H210307   4.060   1.281   2.447  2.7950  2.2724 -2.0532
  187ACOH    H310308   3.881   1.310   2.447 -0.4014  0.5931 -0.7090
  189ACOH    H410309   7.373   7.444   1.192  1.2156  3.1793 -0.8320
  189ACOH    O210310   7.279   7.467   1.188  0.2485 -0.3089  0.0104
  189ACOH    C210311   7.217   7.394   1.089 -0.3561  0.3587  0.2660
  189ACOH    O110312   7.266   7.310   1.017  0.4708 -1.5728 -0.4936
  189ACOH    C110313   7.073   7.430   1.083 -0.5961  0.2479 -0.3664
  189ACOH    H110314   7.015   7.339   1.099  0.8474 -0.4388  1.1343
  189ACOH    H210315   7.064   7.468   0.981  0.3711 -1.0946 -0.9777
  189ACOH    H310316   7.038   7.505   1.154 -0.6592 -0.2153  0.0932
  190ACOH    H410317   6.298   3.225   2.852 -1.0223 -0.6868  0.4692
  190ACOH    O210318   6.310   3.309   2.898  0.3512 -0.2340 -0.6545
  190ACOH    C210319   6.327   3.413   2.818  0.3680 -0.2459  0.3327
  190ACOH    O110320   6.322   3.408   2.694  0.9349 -0.3739 -0.2585
  190ACOH    C110321   6.379   3.529   2.892  0.2305  0.6204  0.5616
  190ACOH    H110322   6.429   3.586   2.814 -1.0513 -0.3900 -1.0334
  190ACOH    H210323   6.449   3.497   2.968 -1.3298  0.4329  1.9388
  190ACOH    H310324   6.298   3.589   2.934 -0.1062 -0.2105  1.1151
  192ACOH    H410325   8.666   1.961   6.905  1.5306 -0.3564  0.7315
  192ACOH    O210326   8.678   2.032   6.839 -0.0742 -0.5962  0.1633
  192ACOH    C210327   8.728   1.973   6.726 -0.7404 -0.0368  0.1585
  192ACOH    O110328   8.797   1.872   6.716  0.2502  0.1213  0.2827
  192ACOH    C110329   8.722   2.066   6.611  0.6460 -0.4277 -0.3499
  192ACOH    H110330   8.659   2.149   6.644  0.5356 -0.2356 -1.0300
  192ACOH    H210331   8.679   2.021   6.521 -0.1248 -0.3108 -0.0418
  192ACOH    H310332   8.819   2.114   6.598  1.0847 -1.0210  0.7166
  193ACOH    H410333   4.968   4.614   6.091  0.0232  0.9938  0.2462
  193ACOH    O210334   4.979   4.666   6.010 -0.0583 -0.2447 -0.5699
  193ACOH    C210335   5.111   4.652   5.970  0.9738 -0.5544 -1.2138
  193ACOH    O110336   5.197   4.610   6.043 -0.1220  0.1884  0.3983
  193ACOH    C110337   5.131   4.699   5.837  0.0910 -0.1498  0.0777
  193ACOH    H110338   5.235   4.714   5.808 -0.4645 -0.0181 -1.8734
  193ACOH    H210339   5.064   4.778   5.802  1.1834  1.2775  1.1644
  193ACOH    H310340   5.110   4.614   5.772  0.3816 -0.2531  0.1191
  195ACOH    H410341   3.606   1.227   5.379  0.9539  1.5388 -0.3685
  195ACOH    O210342   3.533   1.213   5.316  0.7542  0.1286  0.1622
  195ACOH    C210343   3.573   1.271   5.199  0.0022 -0.3308  0.0598
  195ACOH    O110344   3.681   1.321   5.164  0.2845  0.2017  0.2610
  195ACOH    C110345   3.453   1.254   5.112 -0.1415  0.6538 -0.0079
  195ACOH    H110346   3.445   1.146   5.103  0.9895  0.4440  1.3984
  195ACOH    H210347   3.462   1.307   5.017 -0.8629 -1.6138 -1.3953
  195ACOH    H310348   3.365   1.284   5.168 -0.2529  0.0051  0.1701
  196ACOH    H410349   4.188   3.749   5.911 -2.0968 -2.3225  0.5091
  196ACOH    O210350   4.186   3.748   5.814  0.2057 -0.2741  0.3685
  196ACOH    C210351   4.079   3.672   5.787 -0.2177  0.0450  0.0802
  196ACOH    O110352   3.986   3.660   5.865  0.1322  0.7209  1.2088
  196ACOH    C110353   4.071   3.651   5.641  0.0233  0.1210  0.1329
  196ACOH    H110354   3.981   3.599   5.608  0.4913  0.5291 -1.8598
  196ACOH    H210355   4.160   3.601   5.603 -1.8453 -2.9450 -0.3456
  196ACOH    H310356   4.064   3.750   5.595 -0.9415  0.2355  0.5103
  197ACOH    H410357   3.680   0.435   5.078 -0.3028  0.6044 -0.7147
  197ACOH    O210358   3.620   0.475   5.144 -0.2859  0.0220 -0.3400
  197ACOH    C210359   3.704   0.521   5.237  1.1896  0.7809 -0.1860
  197ACOH    O110360   3.822   0.507   5.244 -0.2669  0.2863  0.0179
  197ACOH    C110361   3.616   0.576   5.338  0.1601 -0.0764 -0.2533
  197ACOH    H110362   3.669   0.633   5.415 -0.3522  0.9899 -0.6695
  197ACOH    H210363   3.565   0.492   5.385  1.3316 -0.7479 -0.1872
  197ACOH    H310364   3.536   0.636   5.293  0.1983 -0.5930 -1.0158
  198ACOH    H410365   6.294   7.485   6.672  0.0043 -2.0093  0.3926
  198ACOH    O210366   6.264   7.494   6.764  0.0615 -0.3563  0.2705
  198ACOH    C210367   6.374   7.504   6.845 -0.5533 -0.0905  0.2344
  198ACOH    O110368   6.486   7.524   6.808 -0.3285 -0.2408 -0.7523
  198ACOH    C110369   6.334   7.504   6.989 -0.0657  0.0162  0.5342
  198ACOH    H110370   6.370   7.413   7.036 -1.5883 -0.0169  1.6620
  198ACOH    H210371   6.226   7.509   7.007 -0.1454  0.3071  0.0248
  198ACOH    H310372   6.384   7.584   7.043 -1.4354  1.1817  0.1258
  199ACOH    H410373   2.031   8.683   3.280 -0.9099 -0.0203  0.2969
  199ACOH    O210374   1.942   8.688   3.242 -0.4672 -0.0901 -0.7781
  199ACOH    C210375   1.933   8.791   3.155  0.3987  0.0131 -0.2884
  199ACOH    O110376   2.006   8.889   3.151  0.6909  0.0148  0.1783
  199ACOH    C110377   1.810   8.788   3.080  0.5178 -0.1028  0.0425
  199ACOH    H110378   1.824   8.699   3.019 -0.4522 -0.2246 -0.0207
  199ACOH    H210379   1.784   8.870   3.013  0.5090 -2.2604 -2.6601
  199ACOH    H310380   1.724   8.771   3.146  3.7175 -0.9363  4.1697
  200ACOH    H410381   5.386   7.334   6.231 -0.0315  0.2196 -0.2149
  200ACOH    O210382   5.442   7.269   6.278 -0.3901  0.4385  0.5216
  200ACOH    C210383   5.511   7.339   6.376 -0.0997  0.3408 -0.0917
  200ACOH    O110384   5.507   7.460   6.399  0.4145  0.1230  0.0079
  200ACOH    C110385   5.574   7.248   6.471 -0.4980 -0.5704 -0.2295
  200ACOH    H110386   5.513   7.161   6.495  0.3003 -0.9402  0.4693
  200ACOH    H210387   5.584   7.304   6.563 -2.7724 -0.5263  0.0048
  200ACOH    H310388   5.673   7.225   6.430 -0.5889  0.2845 -0.9463
  201ACOH    H410389   4.084   7.657   2.732 -0.1270  0.2693 -0.1393
  201ACOH    O210390   4.132   7.727   2.779 -0.0278  0.1176 -0.0131
  201ACOH    C210391   4.111   7.855   2.741  0.7640  0.2283  0.3711
  201ACOH    O110392   4.054   7.880   2.635 -0.0966 -0.4812 -0.4409
  201ACOH    C110393   4.158   7.959   2.833 -0.3736  0.0726  0.0049
  201ACOH    H110394   4.164   8.051   2.776  0.0972 -0.1488 -0.3076
  201ACOH    H210395   4.259   7.929   2.865 -0.1079 -0.1698 -1.0396
  201ACOH    H310396   4.097   7.978   2.921 -0.2561  1.8911 -0.2929
  202ACOH    H410397   7.824   2.002   7.023  0.4460  2.7736 -2.4111
  202ACOH    O210398   7.733   2.035   7.030 -0.5193 -0.0984 -0.6383
  202ACOH    C210399   7.732   2.110   7.143  0.0324  0.1827  0.4307
  202ACOH    O110400   7.805   2.098   7.240  0.6037 -0.0016 -0.2413
  202ACOH    C110401   7.599   2.170   7.169 -0.3203  0.4958 -0.0026
  202ACOH    H110402   7.554   2.207   7.077  0.8094 -0.3431 -0.9114
  202ACOH    H210403   7.607   2.256   7.237 -0.3761 -1.0464  2.0151
  202ACOH    H310404   7.538   2.098   7.224  0.2989  0.3810  0.5352
  203ACOH    H410405   5.770   1.554   2.145  0.0718  0.7130 -1.2743
  203ACOH    O210406   5.731   1.643   2.150 -0.1588  0.5579 -0.0818
  203ACOH    C210407   5.820   1.721   2.203  0.1247  0.0640 -0.3309
  203ACOH    O110408   5.934   1.693   2.223 -0.7359  0.2582 -0.0408
  203ACOH    C110409   5.753   1.850   2.230  0.8771 -0.2673 -0.1707
  203ACOH    H110410   5.737   1.899   2.135 -0.3017  1.3875  0.8652
  203ACOH    H210411   5.823   1.911   2.288 -0.2536 -0.0042  0.9346
  203ACOH    H310412   5.661   1.835   2.287  1.0001  0.1850  0.1454
  204ACOH    H410413   7.881   1.914   6.856 -1.0704  3.0126  1.1151
  204ACOH    O210414   7.828   1.936   6.777 -0.4349  0.5036 -0.0532
  204ACOH    C210415   7.886   1.884   6.666 -0.2387  0.3076  0.1596
  204ACOH    O110416   7.964   1.793   6.674 -0.0654 -0.3883 -0.0235
  204ACOH    C110417   7.823   1.916   6.537  0.4763  0.5003 -0.0569
  204ACOH    H110418   7.904   1.909   6.465 -0.0186 -2.1965 -0.4171
  204ACOH    H210419   7.781   2.016   6.542  1.3986  0.8393  1.2468
  204ACOH    H310420   7.755   1.836   6.506  1.5802 -0.6119  0.3610
  205ACOH    H410421   5.252   5.364   7.363 -0.2355  3.0682  0.0283
  205ACOH    O210422   5.225   5.375   7.270 -0.0353 -0.2751 -0.4698
  205ACOH    C210423   5.090   5.373   7.267  0.0377  0.2053  0.1375
  205ACOH    O110424   5.025   5.366   7.373 -0.6120 -0.1658  0.4414
  205ACOH    C110425   5.050   5.380   7.126  0.0386 -0.6406 -0.4141
  205ACOH    H110426   4.991   5.469   7.106 -2.2081 -2.3518 -1.5789
  205ACOH    H210427   4.984   5.294   7.117  0.0733 -0.9156  1.7666
  205ACOH    H310428   5.139   5.370   7.063  0.0229  0.6425 -0.6476
  206ACOH    H410429   3.069   1.583   1.052  0.0464 -1.4342  2.3793
  206ACOH    O210430   3.166   1.579   1.049  0.0508 -0.2549 -0.5095
  206ACOH    C210431   3.212   1.677   1.121 -0.5104  0.4423  0.4347
  206ACOH    O110432   3.156   1.748   1.207  0.9613  0.2179 -0.1439
  206ACOH    C110433   3.363   1.694   1.116 -0.1185 -0.5078  0.4747
  206ACOH    H110434   3.382   1.801   1.117 -2.2628 -0.0036 -2.9278
  206ACOH    H210435   3.403   1.644   1.027  1.6061 -0.2259  1.0886
  206ACOH    H310436   3.399   1.635   1.200 -1.8039 -2.9218 -0.4418
  207ACOH    H410437   1.830   2.915   1.908  1.9597 -0.3717  0.1806
  207ACOH    O210438   1.846   2.960   1.824  0.7107 -0.2676 -0.0187
  207ACOH    C210439   1.787   3.080   1.857 -0.1164 -1.1189  0.2165
  207ACOH    O110440   1.799   3.138   1.964 -0.4375  0.2486  0.0844
  207ACOH    C110441   1.726   3.144   1.741 -0.3001 -0.1823 -0.0194
  207ACOH    H110442   1.815   3.172   1.686  0.7013  0.1492  1.7141
  207ACOH    H210443   1.669   3.232   1.771 -2.2196 -1.4124  0.0006
  207ACOH    H310444   1.657   3.083   1.684 -0.1103  0.3087 -0.7713
  208ACOH    H410445   0.776   0.133   2.365 -1.2254  1.6899 -0.5009
  208ACOH    O210446   0.866   0.168   2.376 -0.6893  0.2331 -0.1480
  208ACOH    C210447   0.924   0.179   2.257 -0.0321  0.3998 -0.2036
  208ACOH    O110448   0.865   0.182   2.154 -0.3037  0.3145 -0.0153
  208ACOH    C110449   1.060   0.218   2.282  0.0907 -0.3316  0.2767
  208ACOH    H110450   1.072   0.325   2.265 -0.8090 -0.5469 -1.9101
  208ACOH    H210451   1.121   0.156   2.216  2.4451  1.2952  0.8406
  208ACOH    H310452   1.091   0.183   2.380 -1.5414 -1.3562  0.4420
  209ACOH    H410453   7.711   4.605   6.418 -0.0848  0.3230  0.1737
  209ACOH    O210454   7.677   4.639   6.334  0.6992 -0.0621 -0.3097
  209ACOH    C210455   7.784   4.686   6.266  0.0484  0.1088 -0.0305
  209ACOH    O110456   7.881   4.726   6.329 -0.1473 -0.0729  0.5594
  209ACOH    C110457   7.774   4.694   6.119  0.0360  0.0242 -0.5889
  209ACOH    H110458   7.864   4.731   6.069  0.0015  2.2371  0.9152
  209ACOH    H210459   7.692   4.760   6.094  0.0140 -0.3574 -1.5209
  209ACOH    H310460   7.751   4.592   6.090  0.9559 -0.1732 -0.6371
  210ACOH    H410461   4.299   0.441   2.010 -1.4126  3.1018 -0.9719
  210ACOH    O210462   4.385   0.464   1.971 -0.0569 -0.5204 -0.2803
  210ACOH    C210463   4.397   0.387   1.861  0.3427 -0.0450 -0.0168
  210ACOH    O110464   4.353   0.278   1.850  0.1516  0.3290  0.0579
  210ACOH    C110465   4.517   0.438   1.796  0.1258  0.1391 -0.1540
  210ACOH    H110466   4.570   0.353   1.752 -0.7055 -1.2175  1.4268
  210ACOH    H210467   4.584   0.494   1.861 -0.5588  1.5438 -0.6466
  210ACOH    H310468   4.482   0.509   1.721  1.0423  2.5646  1.6262
  211ACOH    H410469   6.982   9.310   4.222  0.7021  0.7820  1.3487
  211ACOH    O210470   7.004   9.389   4.170  0.5119 -0.1617 -0.1734
  211ACOH    C210471   6.989   9.490   4.255  0.2842 -0.4863  0.0309
  211ACOH    O110472   6.903   9.495   4.343 -0.0147  0.2352  0.4781
  211ACOH    C110473   7.084   9.598   4.230 -0.1928  0.1641  0.0984
  211ACOH    H110474   7.184   9.575   4.268 -0.2628 -0.8723 -0.3229
  211ACOH    H210475   7.048   9.693   4.270 -1.9383  1.4098 -4.1675
  211ACOH    H310476   7.090   9.603   4.121  1.3376 -0.1290  0.1573
  212ACOH    H410477   6.472   9.994   0.967 -0.7471  1.6042 -0.7032
  212ACOH    O210478   6.521   9.953   0.893 -0.2974  0.2206  0.3461
  212ACOH    C210479   6.648   9.984   0.926  0.9726  0.3177 -0.2887
  212ACOH    O110480   6.679  10.078   0.993 -0.1623  0.3508 -0.1683
  212ACOH    C110481   6.746   9.926   0.827  0.2996 -0.2043 -0.1108
  212ACOH    H110482   6.829   9.892   0.888  1.9059  0.7140 -1.7460
  212ACOH    H210483   6.785  10.012   0.773  0.0669  0.0211  0.0778
  212ACOH    H310484   6.693   9.853   0.765 -0.4276  1.3145 -1.2975
  213ACOH    H410485   0.286   5.207   5.067 -1.7560  0.5573  0.2473
  213ACOH    O210486   0.313   5.300   5.061  0.2300 -0.0078  0.0512
  213ACOH    C210487   0.399   5.331   5.161 -0.2160  0.1883 -0.5881
  213ACOH    O110488   0.432   5.248   5.240  0.2794  0.7994 -0.2136
  213ACOH    C110489   0.423   5.478   5.169  0.0572 -0.4728  0.3708
  213ACOH    H110490   0.530   5.485   5.184  0.1210 -2.1778  0.7581
  213ACOH    H210491   0.368   5.522   5.252  3.5479 -0.1457  2.6066
  213ACOH    H310492   0.394   5.525   5.075 -1.7581  2.4698  2.3139
  215ACOH    H410493   7.213   3.782   7.545 -0.6091 -1.1257 -1.0788
  215ACOH    O210494   7.129   3.748   7.581 -0.3194 -0.8482 -0.1154
  215ACOH    C210495   7.042   3.847   7.574  0.0168 -0.7209  0.2154
  215ACOH    O110496   7.060   3.966   7.569 -0.8238 -0.1203 -0.4340
  215ACOH    C110497   6.906   3.789   7.555 -0.3326  0.2622 -0.1288
  215ACOH    H110498   6.866   3.820   7.458 -1.0051 -2.8332 -0.8880
  215ACOH    H210499   6.846   3.829   7.637  1.0108 -0.8744  1.4407
  215ACOH    H310500   6.898   3.681   7.561 -1.4807  0.4797  3.3716
  216ACOH    H410501   7.028   5.948   3.504 -0.3514 -0.9512 -0.6320
  216ACOH    O210502   6.986   5.881   3.561 -0.4185  0.2625  0.7699
  216ACOH    C210503   7.091   5.804   3.585 -0.3575 -0.6867 -0.5264
  216ACOH    O110504   7.209   5.831   3.567 -0.1429  0.2839  0.2385
  216ACOH    C110505   7.056   5.678   3.657 -0.3440  0.4179  0.2243
  216ACOH    H110506   7.106   5.670   3.754  2.5821 -3.7002 -1.4526
  216ACOH    H210507   7.090   5.594   3.597 -0.0171  0.1853  0.7250
  216ACOH    H310508   6.949   5.676   3.674 -0.2682 -2.1772  0.7180
  217ACOH    H410509   7.590   2.768   8.025 -2.0155 -0.2872 -1.4873
  217ACOH    O210510   7.641   2.822   7.964  0.6221 -0.1197  0.7631
  217ACOH    C210511   7.640   2.756   7.846  0.0761 -0.0094 -0.1006
  217ACOH    O110512   7.574   2.658   7.815  0.1205 -0.0144 -1.1818
  217ACOH    C110513   7.702   2.843   7.744 -0.4088  0.5578 -0.1204
  217ACOH    H110514   7.727   2.781   7.657 -0.2182  1.8103 -0.9652
  217ACOH    H210515   7.798   2.884   7.777  1.5286 -1.3357 -3.0437
  217ACOH    H310516   7.645   2.933   7.722  1.6142  1.6442 -1.1222
  219ACOH    H410517   0.452   1.286   5.462 -0.0747 -1.3342  0.2494
  219ACOH    O210518   0.535   1.250   5.427  0.3073 -0.1342 -0.1181
  219ACOH    C210519   0.560   1.148   5.510  0.6872  0.6081 -0.7582
  219ACOH    O110520   0.557   1.160   5.629  0.3210  0.5603  0.0836
  219ACOH    C110521   0.613   1.029   5.441  0.8102 -0.0097 -1.2227
  219ACOH    H110522   0.695   1.055   5.374 -0.9473  1.9128 -2.7153
  219ACOH    H210523   0.542   0.968   5.385 -0.7098 -0.0867  0.7632
  219ACOH    H310524   0.650   0.964   5.520 -0.9553  1.2252  0.6528
  220ACOH    H410525   4.829   1.610   1.415  0.1816  1.6970  0.2630
  220ACOH    O210526   4.808   1.583   1.506  0.1869  0.4513 -0.1007
  220ACOH    C210527   4.799   1.450   1.497 -0.1667 -0.5606 -0.8632
  220ACOH    O110528   4.855   1.384   1.409  0.1094  0.1494  0.2243
  220ACOH    C110529   4.737   1.373   1.608 -0.8163 -0.4240  0.1454
  220ACOH    H110530   4.658   1.427   1.660 -0.7781  0.0047 -0.2459
  220ACOH    H210531   4.820   1.346   1.673 -0.4208 -0.8455 -0.5396
  220ACOH    H310532   4.698   1.280   1.565 -0.4854 -0.5844  0.1895
  221ACOH    H410533   6.894   6.887   7.107  0.3889 -0.4364 -0.1892
  221ACOH    O210534   6.849   6.905   7.191 -0.0256  0.3421 -0.5713
  221ACOH    C210535   6.759   7.001   7.166 -0.0433 -1.0760  0.4321
  221ACOH    O110536   6.773   7.089   7.087  0.0104  0.2245 -0.2066
  221ACOH    C110537   6.673   7.038   7.277  0.3310  0.0272 -0.1693
  221ACOH    H110538   6.654   6.970   7.360  2.3980 -1.9101 -1.2093
  221ACOH    H210539   6.575   7.059   7.235 -0.0227 -2.8549 -0.8868
  221ACOH    H310540   6.710   7.132   7.319 -0.1887  1.1004 -2.0760
  222ACOH    H410541   5.032   0.491   4.737 -0.9617  1.3083  0.0083
  222ACOH    O210542   4.944   0.455   4.759 -0.2257 -0.2215  0.5026
  222ACOH    C210543   4.854   0.468   4.662  0.3499 -0.1384  0.2881
  222ACOH    O110544   4.822   0.564   4.599  0.1104 -0.6867 -0.4622
  222ACOH    C110545   4.761   0.353   4.667  0.9652  0.6640 -0.1547
  222ACOH    H110546   4.805   0.275   4.729 -1.1430  0.5418  1.2094
  222ACOH    H210547   4.743   0.319   4.566  0.4777 -1.9562  0.7893
  222ACOH    H310548   4.664   0.385   4.704  0.2576 -0.1186 -1.3218
  223ACOH    H410549   7.021   9.199   2.748  0.3519 -0.0524  1.1254
  223ACOH    O210550   6.995   9.271   2.808  0.1582  0.5383  0.3390
  223ACOH    C210551   7.097   9.356   2.819  0.1879 -0.0019 -0.0351
  223ACOH    O110552   7.207   9.346   2.767  0.3319  0.7744 -0.3923
  223ACOH    C110553   7.062   9.460   2.920 -0.4974 -0.3656 -0.2181
  223ACOH    H110554   6.979   9.510   2.871  0.1990  0.5048 -0.5123
  223ACOH    H210555   7.139   9.534   2.941 -1.2375 -0.2412  2.2089
  223ACOH    H310556   7.026   9.421   3.016  0.0606 -0.0158  0.1396
  224ACOH    H410557   5.226   6.151   1.873 -0.3741  1.7378 -0.6791
  224ACOH    O210558   5.298   6.201   1.830  1.2210  0.2742  0.1971
  224ACOH    C210559   5.375   6.267   1.921 -0.8218 -0.2439  0.6015
  224ACOH    O110560   5.325   6.323   2.019  0.4056  0.0472 -0.0458
  224ACOH    C110561   5.510   6.305   1.871 -0.4925  0.1297 -0.0237
  224ACOH    H110562   5.535   6.408   1.895 -1.1105  1.2259 -3.7244
  224ACOH    H210563   5.528   6.279   1.767  0.5153 -0.5365  0.3033
  224ACOH    H310564   5.574   6.238   1.929  0.5059  1.8006  0.8351
  225ACOH    H410565   6.081   2.752   3.443 -0.7281  0.1824  1.0866
  225ACOH    O210566   6.019   2.792   3.379  0.1457 -0.2205 -0.0341
  225ACOH    C210567   6.045   2.773   3.248 -0.0726  0.2388  0.1347
  225ACOH    O110568   6.138   2.708   3.217  0.7023 -0.1175  0.4310
  225ACOH    C110569   5.945   2.841   3.162 -0.3072 -0.0433  0.1102
  225ACOH    H110570   5.931   2.942   3.199 -0.7235  0.0395 -0.2771
  225ACOH    H210571   5.851   2.786   3.158  0.4808 -1.3983 -0.4162
  225ACOH    H310572   5.986   2.850   3.061  1.0237 -2.9663  0.3213
  227ACOH    H410573   5.952   9.476   8.198  1.2851 -1.2584 -0.7325
  227ACOH    O210574   6.026   9.487   8.261  0.1813  0.1912  0.3304
  227ACOH    C210575   6.124   9.535   8.185 -0.0023 -0.1016 -0.3918
  227ACOH    O110576   6.113   9.576   8.070  0.0706  0.3253  0.3044
  227ACOH    C110577   6.253   9.518   8.256  0.2995 -0.6584 -0.7619
  227ACOH    H110578   6.279   9.412   8.256  1.1625 -0.4466 -0.5731
  227ACOH    H210579   6.245   9.557   8.358 -0.3479 -2.2923 -0.1581
  227ACOH    H310580   6.328   9.573   8.199 -0.5080 -0.8249 -2.0085
  228ACOH    H410581   7.739   3.278   7.380  0.1407  1.8186  1.2873
  228ACOH    O210582   7.811   3.298   7.319  0.1049 -0.5538  0.4167
  228ACOH    C210583   7.827   3.437   7.320  0.2365 -0.3050 -0.2719
  228ACOH    O110584   7.766   3.513   7.391  0.1037  0.0712  0.3798
  228ACOH    C110585   7.921   3.469   7.209 -0.7000 -0.9570  0.4818
  228ACOH    H110586   7.981   3.550   7.251 -2.4566 -0.1446  1.4800
  228ACOH    H210587   7.862   3.497   7.121  0.6486  0.2824 -0.0467
  228ACOH    H310588   7.980   3.380   7.189  2.0608  0.4082  2.2267
  229ACOH    H410589   5.533   3.699   2.576 -0.9331  0.4371 -0.0523
  229ACOH    O210590   5.530   3.694   2.673  0.4487  0.3073 -0.0086
  229ACOH    C210591   5.646   3.655   2.731  0.1060  0.1550  0.8289
  229ACOH    O110592   5.733   3.595   2.676 -0.4468  0.0167  0.0615
  229ACOH    C110593   5.645   3.662   2.877 -0.1144  0.2284  0.3210
  229ACOH    H110594   5.729   3.728   2.898  0.7935 -1.4106  1.9449
  229ACOH    H210595   5.665   3.562   2.915  0.8460  0.1249 -0.4307
  229ACOH    H310596   5.552   3.704   2.916 -0.2189 -1.2454  1.7197
  230ACOH    H410597   8.218   4.537   6.777  0.1097 -0.6064 -0.8140
  230ACOH    O210598   8.238   4.549   6.682  0.3012 -0.7240 -0.7880
  230ACOH    C210599   8.173   4.660   6.640  0.9254 -0.0202 -0.2130
  230ACOH    O110600   8.088   4.728   6.695  0.0809  0.0940  0.0629
  230ACOH    C110601   8.198   4.671   6.494  0.0431  0.1563 -0.2636
  230ACOH    H110602   8.176   4.577   6.443  0.8490 -1.0050  1.4892
  230ACOH    H210603   8.302   4.698   6.479  0.1415 -0.3606 -0.5165
  230ACOH    H310604   8.136   4.746   6.445  1.0870  1.4157  0.3081
  232ACOH    H410605   5.044   6.407   8.190 -1.2091  2.1346 -1.9773
  232ACOH    O210606   5.118   6.406   8.127  0.0673 -0.3256 -0.5057
  232ACOH    C210607   5.078   6.444   8.007 -0.4148  0.1563  0.6149
  232ACOH    O110608   4.972   6.497   7.981  0.4185  0.2319  0.2227
  232ACOH    C110609   5.167   6.392   7.902 -0.3617 -0.9303  0.3287
  232ACOH    H110610   5.252   6.338   7.944 -0.0505 -1.5336 -1.0550
  232ACOH    H210611   5.205   6.479   7.847  0.0117 -0.4182  1.3706
  232ACOH    H310612   5.122   6.328   7.827  0.1565  0.7188 -1.4285
  233ACOH    H410613   3.354   3.145   6.661 -2.9473 -1.5769 -1.8575
  233ACOH    O210614   3.416   3.072   6.644 -0.0678  0.2424  0.2231
  233ACOH    C210615   3.371   3.027   6.520 -0.5138  0.1693 -0.2869
  233ACOH    O110616   3.281   3.074   6.454 -0.1685  0.2053  0.6814
  233ACOH    C110617   3.438   2.897   6.484 -0.0326 -0.4399 -0.0189
  233ACOH    H110618   3.529   2.910   6.425  0.4904 -2.2924  0.3481
  233ACOH    H210619   3.366   2.844   6.421 -1.9287  0.9775  0.9139
  233ACOH    H310620   3.453   2.833   6.571 -1.4745 -0.4627  0.2292
  234ACOH    H410621   4.297   6.955   1.627  1.5031 -0.2804 -0.6680
  234ACOH    O210622   4.307   6.951   1.723  0.1063 -0.3086 -0.5169
  234ACOH    C210623   4.367   6.827   1.752  0.7264 -0.0897  0.5993
  234ACOH    O110624   4.415   6.763   1.655  1.0348 -0.2669 -0.1988
  234ACOH    C110625   4.434   6.810   1.885  0.1513  0.3888  0.7007
  234ACOH    H110626   4.541   6.798   1.870  0.0759  0.8590 -0.3095
  234ACOH    H210627   4.397   6.712   1.915 -2.6869  0.5564 -1.9205
  234ACOH    H310628   4.417   6.892   1.956 -1.5880 -0.0670  0.8402
  236ACOH    H410629   6.964   6.236   6.165  0.4146 -0.8604  1.1037
  236ACOH    O210630   6.914   6.174   6.109  0.1202  0.1943  0.1806
  236ACOH    C210631   6.964   6.049   6.126  0.2037 -0.7827 -0.2363
  236ACOH    O110632   7.062   6.025   6.195 -0.2506 -0.1265 -0.1833
  236ACOH    C110633   6.883   5.947   6.056  0.4908  0.0390  0.5403
  236ACOH    H110634   6.955   5.878   6.012 -0.4573  0.6342 -2.0598
  236ACOH    H210635   6.817   5.996   5.985 -0.8895 -1.7470  0.5565
  236ACOH    H310636   6.819   5.901   6.132 -0.6491 -0.4351 -0.6834
  237ACOH    H410637   6.617   0.880   0.397 -0.2875 -0.4270  1.2360
  237ACOH    O210638   6.540   0.841   0.353  0.3410 -0.0814 -0.1766
  237ACOH    C210639   6.477   0.775   0.449 -0.1596 -0.4435 -0.0975
  237ACOH    O110640   6.522   0.709   0.538 -0.2128  0.5530  0.3094
  237ACOH    C110641   6.334   0.775   0.436  0.8596  0.5550  0.1328
  237ACOH    H110642   6.278   0.797   0.526 -0.2716 -2.1710  0.1524
  237ACOH    H210643   6.316   0.669   0.415  0.2588  0.4339  1.2246
  237ACOH    H310644   6.295   0.840   0.359  0.1074 -0.6589 -0.5142
  238ACOH    H410645   0.943   8.707   6.196  1.1375  0.0604 -0.3321
  238ACOH    O210646   0.889   8.785   6.175  0.4563 -0.3483 -0.0763
  238ACOH    C210647   0.937   8.853   6.067 -0.2400  0.4097  0.3405
  238ACOH    O110648   1.042   8.831   6.011  0.0339  0.3747 -0.2792
  238ACOH    C110649   0.843   8.964   6.031 -0.1525  0.0477  0.1793
  238ACOH    H110650   0.898   9.058   6.043 -0.4248  0.3061 -0.6197
  238ACOH    H210651   0.750   8.964   6.087 -1.3954  2.2968 -1.8076
  238ACOH    H310652   0.817   8.950   5.926 -3.0158  1.2946  0.6730
  239ACOH    H410653   7.528   7.198   0.800  0.0513 -0.7520  1.1253
  239ACOH    O210654   7.553   7.108   0.774  0.4812 -0.3044 -0.0225
  239ACOH    C210655   7.603   7.121   0.650 -0.3679  0.3212 -0.7025
  239ACOH    O110656   7.610   7.228   0.597  0.3373 -0.3370  0.1965
  239ACOH    C110657   7.656   6.985   0.606 -0.5636  0.0921 -0.1937
  239ACOH    H110658   7.606   6.901   0.653  0.0353  0.0462  0.3716
  239ACOH    H210659   7.765   6.989   0.607 -0.5344 -0.6258 -0.2141
  239ACOH    H310660   7.638   6.964   0.500 -0.6620  0.8410 -0.3322
  241ACOH    H410661   8.005   4.191   6.062 -0.6543  0.7326 -3.6000
  241ACOH    O210662   7.910   4.209   6.073 -0.3933  0.4952 -0.2171
  241ACOH    C210663   7.869   4.306   5.987 -0.2881 -0.0270 -0.4285
  241ACOH    O110664   7.949   4.391   5.946 -0.4869 -0.5178  0.2052
  241ACOH    C110665   7.735   4.290   5.939  1.0941 -0.7663 -0.3492
  241ACOH    H110666   7.682   4.384   5.952  0.0741 -1.1682 -1.5264
  241ACOH    H210667   7.690   4.199   5.979 -1.1899 -0.1996 -1.5991
  241ACOH    H310668   7.749   4.269   5.833 -0.7645  0.0037 -0.7599
  242ACOH    H410669   7.899   3.812   3.742 -0.7405  1.1587 -0.8568
  242ACOH    O210670   7.901   3.862   3.825 -0.0404 -0.7995  0.3451
  242ACOH    C210671   7.850   3.977   3.790  0.1633  0.4346  1.4404
  242ACOH    O110672   7.826   4.012   3.676  0.2131  0.3602 -0.2649
  242ACOH    C110673   7.831   4.071   3.902 -0.3857 -0.4411 -0.0770
  242ACOH    H110674   7.755   4.038   3.973  0.1504  0.5645  0.9796
  242ACOH    H210675   7.806   4.166   3.854 -1.0364 -1.0888 -1.0457
  242ACOH    H310676   7.925   4.081   3.956  1.2626 -2.8736 -2.3840
  243ACOH    H410677   6.367   7.165   2.476  0.2721 -0.6138  1.0754
  243ACOH    O210678   6.375   7.076   2.439 -0.2052 -0.3239  0.2655
  243ACOH    C210679   6.429   7.084   2.314 -0.9889 -0.2139 -0.3576
  243ACOH    O110680   6.461   7.177   2.249  0.0503  0.2949  0.3895
  243ACOH    C110681   6.436   6.948   2.265  0.3394 -0.3879  0.5133
  243ACOH    H110682   6.375   6.879   2.323 -0.3466 -1.5511 -1.5618
  243ACOH    H210683   6.539   6.912   2.261  0.8577  1.1811 -1.4717
  243ACOH    H310684   6.392   6.948   2.165 -0.8945 -1.8625  1.0300
  244ACOH    H410685   7.895   7.198   0.513  2.4862  0.3256  0.0576
  244ACOH    O210686   7.903   7.163   0.423  1.0463 -0.2509  0.1471
  244ACOH    C210687   7.906   7.270   0.343 -0.2076 -0.4044 -0.4433
  244ACOH    O110688   7.925   7.385   0.375 -0.4740 -0.0739  0.0991
  244ACOH    C110689   7.922   7.222   0.199  0.4338 -1.0089 -0.4582
  244ACOH    H110690   7.918   7.295   0.119 -0.7027 -0.3211  0.2135
  244ACOH    H210691   7.855   7.142   0.170  0.6975 -1.1630 -0.6458
  244ACOH    H310692   8.023   7.184   0.184  1.3662  0.4427  1.8339
  245ACOH    H410693   5.748   0.975   8.315  0.6763  0.8562 -0.7255
  245ACOH    O210694   5.798   0.919   8.253  0.2128 -0.2480 -0.1055
  245ACOH    C210695   5.724   0.905   8.145  0.1782  0.9820  0.8536
  245ACOH    O110696   5.629   0.976   8.112  0.4980  0.4961  0.5255
  245ACOH    C110697   5.779   0.799   8.058  1.4239 -1.0012 -0.2105
  245ACOH    H110698   5.731   0.806   7.961 -1.4129 -1.2266  1.1314
  245ACOH    H210699   5.740   0.703   8.091 -2.6356  0.2355 -1.1657
  245ACOH    H310700   5.888   0.803   8.050  1.5091 -0.3664  1.0699
  246ACOH    H410701   5.954   7.385   6.472 -1.2142  0.3347 -2.4783
  246ACOH    O210702   5.912   7.300   6.490  0.6556 -0.1032  0.0220
  246ACOH    C210703   5.953   7.215   6.391 -0.4016  0.0639  0.7142
  246ACOH    O110704   6.048   7.221   6.315 -0.4312  0.0304 -0.1849
  246ACOH    C110705   5.891   7.078   6.404 -0.2352  0.0466  0.3342
  246ACOH    H110706   5.969   7.026   6.460  1.4420  0.9882 -1.0488
  246ACOH    H210707   5.883   7.041   6.301 -1.2593  1.7333 -0.2005
  246ACOH    H310708   5.801   7.067   6.463 -0.1588 -0.1276  0.4176
  247ACOH    H410709   6.800   5.932   2.529 -1.6159 -0.3935 -0.5227
  247ACOH    O210710   6.771   5.931   2.622 -0.7378 -0.0828 -0.2416
  247ACOH    C210711   6.695   5.829   2.661 -0.2772  0.0422  0.0239
  247ACOH    O110712   6.641   5.755   2.584 -0.3752  0.1583  0.2261
  247ACOH    C110713   6.688   5.825   2.808  0.3694 -0.8181  0.0092
  247ACOH    H110714   6.630   5.912   2.841  0.6965 -0.4915 -0.2685
  247ACOH    H210715   6.789   5.827   2.848  0.0707 -1.1220  0.7806
  247ACOH    H310716   6.627   5.745   2.848 -1.2857  1.7483  2.8344
  248ACOH    H410717   7.473   5.608   4.464  0.4360  0.1536  0.8628
  248ACOH    O210718   7.444   5.525   4.504  0.0867 -0.0889  0.1086
  248ACOH    C210719   7.311   5.530   4.493 -0.2549  0.1887  0.6513
  248ACOH    O110720   7.249   5.622   4.446  0.2622 -0.4497  0.1434
  248ACOH    C110721   7.254   5.406   4.552 -0.1930  0.1715  0.6492
  248ACOH    H110722   7.303   5.379   4.646  2.8067 -0.8637 -1.1220
  248ACOH    H210723   7.273   5.320   4.487 -1.3827  1.5477 -1.5905
  248ACOH    H310724   7.146   5.408   4.566 -0.1997  3.2334  0.4094
  249ACOH    H410725   4.982   5.722   7.447 -1.1844  0.0147 -2.8565
  249ACOH    O210726   5.066   5.684   7.417 -0.3353 -0.3604 -0.1403
  249ACOH    C210727   5.130   5.638   7.521 -0.5937  0.2628 -0.0810
  249ACOH    O110728   5.108   5.653   7.641 -0.3030  0.1129 -1.2964
  249ACOH    C110729   5.270   5.615   7.471 -0.5732 -0.3342 -0.3544
  249ACOH    H110730   5.339   5.698   7.484 -0.1343 -0.7989  0.3048
  249ACOH    H210731   5.269   5.593   7.365 -0.2882 -0.0808 -0.4089
  249ACOH    H310732   5.312   5.528   7.522 -1.4154 -0.6708 -0.2144
  250ACOH    H410733   7.607   8.914   7.465 -1.2179  0.2190  1.7185
  250ACOH    O210734   7.646   9.002   7.453 -0.1270 -0.3545  0.9649
  250ACOH    C210735   7.781   8.990   7.447 -0.4106 -0.2951  0.4505
  250ACOH    O110736   7.840   8.895   7.486  0.5010 -0.0972 -0.0058
  250ACOH    C110737   7.837   9.120   7.410  0.1313  0.3926  0.0459
  250ACOH    H110738   7.795   9.148   7.313  0.9389 -2.3991 -1.1276
  250ACOH    H210739   7.945   9.126   7.409  0.3398 -2.0192  2.4024
  250ACOH    H310740   7.807   9.196   7.482  1.0452 -0.9190  1.8336
  252ACOH    H410741   7.108   5.779   4.735  2.4257  0.4421  1.7964
  252ACOH    O210742   7.121   5.685   4.758  0.1529 -0.3319  0.0506
  252ACOH    C210743   7.250   5.678   4.799  0.6970  0.5798  0.2834
  252ACOH    O110744   7.340   5.755   4.765 -0.1453  0.3233  0.1010
  252ACOH    C110745   7.263   5.559   4.885  0.5340  0.9017 -0.0541
  252ACOH    H110746   7.201   5.478   4.847  1.8571 -0.4470  0.6190
  252ACOH    H210747   7.228   5.573   4.987  0.8108  0.6533  0.0776
  252ACOH    H310748   7.366   5.525   4.890  0.5506  1.0878  1.0590
  253ACOH    H410749   7.805   2.227   5.745  2.0846  0.9201  0.3141
  253ACOH    O210750   7.736   2.294   5.760  0.6414 -0.3238 -0.6521
  253ACOH    C210751   7.691   2.285   5.890 -0.7470  0.4930  0.1838
  253ACOH    O110752   7.704   2.183   5.960 -0.3407  0.6210  0.2929
  253ACOH    C110753   7.588   2.395   5.910 -0.6414 -0.6867  0.1589
  253ACOH    H110754   7.499   2.365   5.855 -1.4604 -0.7988  1.5175
  253ACOH    H210755   7.635   2.482   5.864  2.5493 -3.0029 -1.1783
  253ACOH    H310756   7.572   2.414   6.016  1.0734  0.0574  0.3106
  254ACOH    H410757   8.553   7.134   1.802 -2.4236 -0.0523  1.4472
  254ACOH    O210758   8.483   7.103   1.742 -0.3586 -0.2903 -0.9208
  254ACOH    C210759   8.380   7.191   1.744 -0.0878  0.4894  0.3552
  254ACOH    O110760   8.381   7.310   1.733 -0.2815 -0.1814 -0.5422
  254ACOH    C110761   8.256   7.125   1.691 -0.5717 -0.4132  0.5421
  254ACOH    H110762   8.269   7.108   1.584 -1.2014  2.4260 -0.0293
  254ACOH    H210763   8.168   7.188   1.699 -0.8096 -0.4884 -1.2009
  254ACOH    H310764   8.247   7.027   1.738 -1.9071 -0.6139 -0.0862
  255ACOH    H410765   6.463   5.585   7.373 -1.1726 -2.3478 -1.4404
  255ACOH    O210766   6.373   5.617   7.385 -0.2577 -0.0028 -0.6353
  255ACOH    C210767   6.359   5.711   7.482 -0.4833  0.1991 -0.5547
  255ACOH    O110768   6.439   5.767   7.547 -0.1704 -0.1765 -0.1990
  255ACOH    C110769   6.216   5.751   7.493 -0.1249  0.2584  0.2803
  255ACOH    H110770   6.165   5.659   7.519 -1.2749  0.2937 -1.7525
  255ACOH    H210771   6.181   5.787   7.396  0.1653  0.2074  0.1542
  255ACOH    H310772   6.198   5.828   7.568 -1.7238  0.2653 -0.1002
  256ACOH    H410773   7.801   5.253   5.209  0.5238  0.2312 -0.2437
  256ACOH    O210774   7.779   5.275   5.117 -0.1352 -1.0270 -0.4003
  256ACOH    C210775   7.858   5.207   5.031 -0.5512 -0.0103  0.2903
  256ACOH    O110776   7.952   5.138   5.060 -0.5382 -0.7379  0.5960
  256ACOH    C110777   7.800   5.201   4.894 -0.3567  0.4016  0.0176
  256ACOH    H110778   7.873   5.182   4.815  1.6655 -1.2689  2.2078
  256ACOH    H210779   7.752   5.297   4.877 -0.0390  0.3980 -0.9173
  256ACOH    H310780   7.731   5.118   4.879 -0.2150  0.1170  0.8781
  257ACOH    H410781   7.022   1.382   3.587  1.3279 -0.2192  1.2992
  257ACOH    O210782   7.081   1.338   3.524 -0.3609 -0.0703 -0.4331
  257ACOH    C210783   7.017   1.228   3.479 -0.2113 -0.1478 -0.2488
  257ACOH    O110784   6.896   1.212   3.469 -0.2680 -0.1192  0.0563
  257ACOH    C110785   7.105   1.121   3.442  0.6013 -0.2020  0.0694
  257ACOH    H110786   7.060   1.045   3.378  0.8526  1.0008 -1.5783
  257ACOH    H210787   7.144   1.074   3.532  0.7590 -0.7383 -0.2770
  257ACOH    H310788   7.187   1.159   3.381 -0.2230  0.0288 -0.9202
  258ACOH    H410789   9.762   4.122   3.489 -0.1888 -1.8582  1.2522
  258ACOH    O210790   9.841   4.177   3.507 -0.5665 -0.6470 -0.6808
  258ACOH    C210791   9.875   4.230   3.389  0.1089  0.4896  0.0824
  258ACOH    O110792   9.843   4.171   3.284  0.2273  0.3790 -0.5610
  258ACOH    C110793   9.960   4.351   3.401 -0.2518  0.4728  0.4829
  258ACOH    H110794   9.903   4.424   3.344  1.2378  1.2879  0.0146
  258ACOH    H210795  10.049   4.333   3.342 -0.5098 -2.1052  0.8177
  258ACOH    H310796   9.980   4.391   3.501 -2.1958 -1.2762  1.6094
  259ACOH    H410797   1.964   8.072   0.407  0.8900  0.8063 -1.5182
  259ACOH    O210798   1.925   8.022   0.333 -0.6028 -0.5102  0.1030
  259ACOH    C210799   2.011   7.927   0.288  0.1833 -0.1196 -0.0393
  259ACOH    O110800   2.088   7.869   0.361  0.5170  0.0858  0.1777
  259ACOH    C110801   1.970   7.890   0.152  0.3155  0.1277  0.1995
  259ACOH    H110802   1.881   7.827   0.157  1.5154 -1.4811  1.6120
  259ACOH    H210803   2.049   7.839   0.097  0.1748 -0.9552  0.9888
  259ACOH    H310804   1.955   7.982   0.096 -0.6855 -0.3006 -0.2613
  260ACOH    H410805   0.464   3.231   3.839  0.6492 -0.1569  2.6931
  260ACOH    O210806   0.382   3.278   3.859  0.1900  0.1145  0.2106
  260ACOH    C210807   0.390   3.325   3.984  0.1187 -1.1281  0.6621
  260ACOH    O110808   0.486   3.326   4.060 -0.5040 -0.3258  0.3606
  260ACOH    C110809   0.258   3.378   4.024 -0.7511  0.0798 -0.1660
  260ACOH    H110810   0.265   3.409   4.128  0.3664  0.5171 -0.3688
  260ACOH    H210811   0.180   3.302   4.014  0.2262 -0.7924 -1.3409
  260ACOH    H310812   0.222   3.461   3.963 -1.8944  0.4036  0.9240
  261ACOH    H410813   4.568   4.927   4.561  0.8885 -0.2223  1.1559
  261ACOH    O210814   4.538   4.834   4.560 -0.2497  0.1361  0.4584
  261ACOH    C210815   4.573   4.768   4.668  0.0706 -0.0760 -0.7336
  261ACOH    O110816   4.662   4.801   4.748 -0.4463  0.0899 -0.1088
  261ACOH    C110817   4.516   4.631   4.678 -0.2593  0.9981  1.1709
  261ACOH    H110818   4.563   4.567   4.753 -3.2358 -0.7779  1.5744
  261ACOH    H210819   4.520   4.582   4.580 -1.0304 -0.1086  1.6745
  261ACOH    H310820   4.412   4.643   4.707 -1.4115 -0.3183 -2.1528
  262ACOH    H410821   7.104   0.612  -0.012  1.5520  0.9639 -0.9457
  262ACOH    O210822   7.125   0.525  -0.050 -0.0791  0.5798 -1.0394
  262ACOH    C210823   7.145   0.447   0.060 -0.7849 -0.0997  0.4565
  262ACOH    O110824   7.127   0.486   0.177 -0.0218 -0.7293 -0.3906
  262ACOH    C110825   7.165   0.307   0.031  0.6202 -0.1192 -0.4099
  262ACOH    H110826   7.213   0.297  -0.066  1.9592  0.6893  0.1444
  262ACOH    H210827   7.070   0.254   0.037  1.3492 -1.4636 -0.3745
  262ACOH    H310828   7.231   0.251   0.098 -1.0775 -3.0259 -1.1004
  263ACOH    H410829   6.983   6.583   4.170  1.2342 -0.9486  0.8262
  263ACOH    O210830   6.905   6.571   4.227  0.4805 -0.1613 -0.0209
  263ACOH    C210831   6.946   6.534   4.349  0.5247 -0.0404  0.3830
  263ACOH    O110832   7.044   6.469   4.376  0.1167  0.0567  0.4584
  263ACOH    C110833   6.836   6.564   4.440 -0.0345 -0.2478  0.0302
  263ACOH    H110834   6.801   6.469   4.482  0.7657 -0.5612  0.0019
  263ACOH    H210835   6.753   6.613   4.389 -1.3315 -1.9606  0.4334
  263ACOH    H310836   6.872   6.626   4.522 -1.7881 -0.2586  0.8268
  264ACOH    H410837   2.143   5.526   4.326 -1.1917 -1.3078 -0.8034
  264ACOH    O210838   2.160   5.539   4.231  0.0803  0.0921 -0.3896
  264ACOH    C210839   2.048   5.521   4.163  0.6743  0.5203  0.0198
  264ACOH    O110840   1.939   5.498   4.214  0.2552 -0.8462 -0.2041
  264ACOH    C110841   2.074   5.527   4.021 -0.9216 -0.1786  0.2737
  264ACOH    H110842   1.989   5.528   3.952 -1.3615  1.6936  0.8088
  264ACOH    H210843   2.142   5.447   3.990 -0.2755  0.3293  0.3642
  264ACOH    H310844   2.133   5.617   4.003 -2.6116  1.0668  0.8989
  265ACOH    H410845   6.231   1.957  -0.080  0.1103 -0.6184 -1.0492
  265ACOH    O210846   6.175   1.880  -0.057 -0.1884 -0.0064  0.3408
  265ACOH    C210847   6.178   1.870   0.078 -1.2876  0.6571 -0.1121
  265ACOH    O110848   6.257   1.922   0.154  0.2707  0.3218  0.2137
  265ACOH    C110849   6.074   1.774   0.128  0.2688 -0.7406  0.5190
  265ACOH    H110850   6.136   1.689   0.155  0.7089  0.0134  1.9220
  265ACOH    H210851   5.997   1.745   0.056  0.4825 -1.1139  0.4396
  265ACOH    H310852   6.036   1.810   0.223  0.0375 -0.3533  0.2830
  266ACOH    H410853   5.664   7.994   2.160  0.4202 -0.1892  1.5448
  266ACOH    O210854   5.709   7.909   2.146  0.2844 -0.1644  0.9407
  266ACOH    C210855   5.816   7.919   2.070 -0.6139  0.3218 -0.1452
  266ACOH    O110856   5.877   8.027   2.062  0.5101  0.3448  0.0454
  266ACOH    C110857   5.864   7.789   2.019 -0.4127 -0.4244  0.2657
  266ACOH    H110858   5.944   7.749   2.081  1.0552 -0.5714 -1.6785
  266ACOH    H210859   5.885   7.792   1.912  0.8659  0.4283  0.5256
  266ACOH    H310860   5.786   7.714   2.032  0.7260 -1.2039  3.0702
  267ACOH    H410861   6.897   4.567   3.529  0.1556  0.5537  0.1722
  267ACOH    O210862   6.812   4.596   3.567  0.0141 -0.3733  0.5671
  267ACOH    C210863   6.803   4.728   3.529 -0.0789  0.2699 -0.4057
  267ACOH    O110864   6.887   4.800   3.486 -0.1364  0.2468  0.3091
  267ACOH    C110865   6.676   4.774   3.577  0.1718 -0.3005 -0.1033
  267ACOH    H110866   6.608   4.713   3.517 -0.2589 -2.1476  2.1788
  267ACOH    H210867   6.655   4.876   3.548 -1.0255 -0.7171 -0.7209
  267ACOH    H310868   6.653   4.750   3.681  0.2726  0.3269  0.0630
  268ACOH    H410869   8.049   2.567   5.925  0.3986  0.5186 -0.0106
  268ACOH    O210870   8.018   2.486   5.969 -0.3394  0.2903 -0.9338
  268ACOH    C210871   8.114   2.400   6.001 -0.2211 -0.4318 -0.3201
  268ACOH    O110872   8.228   2.405   5.967 -0.6530 -0.5964  0.6356
  268ACOH    C110873   8.060   2.269   6.040  0.6390  0.5226  0.2628
  268ACOH    H110874   8.039   2.214   5.949 -0.5574  1.5177 -0.0703
  268ACOH    H210875   7.960   2.282   6.082 -0.8771 -0.7930 -2.8117
  268ACOH    H310876   8.116   2.206   6.109  0.0337 -0.5621 -0.2306
  269ACOH    H410877   4.981   5.673   3.383 -0.1670  2.5568 -0.9105
  269ACOH    O210878   5.054   5.702   3.442  0.2146  0.1559 -0.1352
  269ACOH    C210879   5.018   5.677   3.574  0.0727 -0.4392  0.0917
  269ACOH    O110880   4.911   5.646   3.626  0.0202  0.2161 -0.4399
  269ACOH    C110881   5.128   5.696   3.669  0.4427 -0.2611  0.6615
  269ACOH    H110882   5.200   5.615   3.656  0.0264 -0.2462 -2.1038
  269ACOH    H210883   5.096   5.708   3.772 -2.3101 -0.7815 -0.1012
  269ACOH    H310884   5.182   5.787   3.642  1.2979 -0.3905  1.9036
  271ACOH    H410885   7.555   9.997   0.305 -2.0561  1.6494 -0.3171
  271ACOH    O210886   7.507   9.942   0.241 -0.3458  0.0281 -0.2536
  271ACOH    C210887   7.594   9.869   0.167  0.7571 -0.2742  0.1903
  271ACOH    O110888   7.714   9.879   0.165  0.0432 -0.0957 -0.4160
  271ACOH    C110889   7.514   9.775   0.068 -0.0466  0.2257 -0.6999
  271ACOH    H110890   7.532   9.815  -0.032 -0.6151  2.1823 -0.0399
  271ACOH    H210891   7.406   9.772   0.087  0.5493  0.4117  3.0137
  271ACOH    H310892   7.546   9.672   0.082 -2.1722 -0.6181 -1.7593
  272ACOH    H410893   7.633   2.890   2.193  1.6064 -0.4197 -0.6211
  272ACOH    O210894   7.631   2.986   2.204 -0.1963 -0.4633 -0.3483
  272ACOH    C210895   7.594   3.034   2.078  0.1844 -0.0870  0.5950
  272ACOH    O110896   7.586   2.969   1.976 -0.0336 -0.4740 -0.0428
  272ACOH    C110897   7.563   3.179   2.092 -0.1073 -0.1495  0.4138
  272ACOH    H110898   7.484   3.195   2.165 -1.4818  0.9348 -1.2609
  272ACOH    H210899   7.539   3.231   1.999  1.7265  2.6064  1.4288
  272ACOH    H310900   7.655   3.231   2.121 -1.8613  2.8326  0.8058
  273ACOH    H410901   9.499   8.114   4.086  2.3277  1.3674 -0.6992
  273ACOH    O210902   9.557   8.068   4.149  0.5912  0.1042  0.0087
  273ACOH    C210903   9.543   7.937   4.124 -0.0321 -0.6177  0.1968
  273ACOH    O110904   9.437   7.896   4.075  0.1090  0.3911  0.3860
  273ACOH    C110905   9.622   7.859   4.222  0.2431  0.1554  0.1863
  273ACOH    H110906   9.704   7.919   4.262  1.6164 -2.3779  1.2756
  273ACOH    H210907   9.667   7.767   4.186 -0.9245 -0.6514  0.7521
  273ACOH    H310908   9.554   7.843   4.305 -0.3463 -0.3415 -0.3846
  274ACOH    H410909   7.953   4.999   1.280 -0.8160 -1.0204 -0.4079
  274ACOH    O210910   8.025   4.962   1.227 -0.2683  0.0330 -0.4092
  274ACOH    C210911   8.152   4.991   1.271  0.1663  0.2936  0.6113
  274ACOH    O110912   8.179   5.055   1.369 -0.2704 -0.4526 -0.2289
  274ACOH    C110913   8.250   4.918   1.189  0.2266 -0.7255  0.0765
  274ACOH    H110914   8.333   4.879   1.249  0.0975  0.2250  0.8824
  274ACOH    H210915   8.297   4.985   1.118  0.0062 -1.4555 -0.7668
  274ACOH    H310916   8.205   4.830   1.142  2.0053 -0.1519 -2.8371
  275ACOH    H410917   5.919   9.809   8.195  3.1025 -1.1428 -1.0206
  275ACOH    O210918   5.932   9.749   8.271  0.6364 -0.0008  0.3525
  275ACOH    C210919   6.013   9.804   8.365 -0.5003  0.2070 -0.2361
  275ACOH    O110920   6.115   9.874   8.345  0.2110  0.6084  0.1275
  275ACOH    C110921   5.968   9.759   8.498 -0.3391  0.7429 -0.2906
  275ACOH    H110922   5.961   9.840   8.571  0.0675 -0.3895  1.0175
  275ACOH    H210923   6.042   9.688   8.534 -3.1403 -0.8960  2.4139
  275ACOH    H310924   5.879   9.697   8.496  0.5145 -0.4937 -1.2308
  276ACOH    H410925   1.070   6.015   2.835 -0.1441  0.4054  1.5683
  276ACOH    O210926   1.153   6.056   2.805  0.0168 -0.6738  0.5154
  276ACOH    C210927   1.239   6.046   2.905 -0.5053 -0.3287  0.2823
  276ACOH    O110928   1.204   6.022   3.022  0.4029 -0.4579  0.4591
  276ACOH    C110929   1.382   6.058   2.871 -0.5178 -0.1124  0.2695
  276ACOH    H110930   1.401   6.057   2.764  2.0067 -0.5010  0.6858
  276ACOH    H210931   1.443   5.988   2.928  0.9323  1.0873  0.2408
  276ACOH    H310932   1.417   6.157   2.902 -0.9238  0.5185 -1.2550
  277ACOH    H410933   6.491   2.252   5.949 -0.0503 -1.1363 -1.2750
  277ACOH    O210934   6.397   2.264   5.971  0.5272  0.3655  0.5286
  277ACOH    C210935   6.381   2.180   6.075  0.3215 -0.2862  0.2231
  277ACOH    O110936   6.467   2.110   6.130  0.3277 -0.3099  0.4132
  277ACOH    C110937   6.235   2.170   6.116  0.1193  0.3358 -0.0799
  277ACOH    H110938   6.210   2.215   6.212 -1.2436 -1.4383  0.4290
  277ACOH    H210939   6.218   2.063   6.133 -0.5362  0.3097 -0.8884
  277ACOH    H310940   6.173   2.211   6.037 -1.5867  0.0369  1.0722
  279ACOH    H410941   5.773   8.327   7.204 -1.8439 -2.8371 -4.4889
  279ACOH    O210942   5.848   8.266   7.213  0.3071  0.1939 -0.2209
  279ACOH    C210943   5.961   8.327   7.258 -0.2071  0.9776  0.4617
  279ACOH    O110944   5.964   8.442   7.295  0.0573 -0.0215  0.4769
  279ACOH    C110945   6.077   8.239   7.278  0.7396  0.1056 -0.6347
  279ACOH    H110946   6.170   8.281   7.240  1.5359  0.0275  1.1700
  279ACOH    H210947   6.053   8.164   7.202 -0.3914  0.4163 -0.5810
  279ACOH    H310948   6.084   8.194   7.377  0.4210  0.6114 -0.3825
  280ACOH    H410949   3.797   7.987   7.190  0.0258 -1.4227 -1.7411
  280ACOH    O210950   3.750   7.954   7.268 -0.1364  0.1239 -1.1751
  280ACOH    C210951   3.840   7.875   7.333 -0.7503  0.7717 -0.3861
  280ACOH    O110952   3.958   7.906   7.341 -0.1636  0.5647 -0.0698
  280ACOH    C110953   3.769   7.774   7.417 -0.7684 -0.3851  0.0403
  280ACOH    H110954   3.678   7.816   7.462 -2.0224 -1.0469 -1.8125
  280ACOH    H210955   3.839   7.747   7.496 -0.9263  2.4511  1.2073
  280ACOH    H310956   3.735   7.691   7.354  1.0585 -1.7045  0.7393
  281ACOH    H410957   6.726   2.589   5.918 -0.6443 -0.2705 -0.3346
  281ACOH    O210958   6.787   2.630   5.853 -0.2090 -0.3315  0.0310
  281ACOH    C210959   6.863   2.538   5.792  0.4632 -0.2202  0.2439
  281ACOH    O110960   6.879   2.420   5.810  0.4246  0.1058 -0.1232
  281ACOH    C110961   6.922   2.605   5.672 -0.7222  0.8835 -0.1262
  281ACOH    H110962   6.991   2.678   5.713  0.3922  0.0845 -0.5607
  281ACOH    H210963   6.836   2.645   5.619 -1.1500 -0.6083 -0.5824
  281ACOH    H310964   6.976   2.530   5.615  0.5942  0.7049  1.3297
  282ACOH    H410965   9.278   7.817   5.015 -0.7256 -0.9996 -2.2101
  282ACOH    O210966   9.268   7.725   5.045  0.1117 -0.3510  0.1848
  282ACOH    C210967   9.163   7.724   5.136  0.7619 -0.0328 -0.0221
  282ACOH    O110968   9.098   7.819   5.174  0.1800  0.2937 -0.4927
  282ACOH    C110969   9.127   7.581   5.157 -0.5485  0.4190 -0.5255
  282ACOH    H110970   9.214   7.533   5.201 -1.9844  0.4676  2.5342
  282ACOH    H210971   9.095   7.529   5.067  0.2454  0.3397 -0.7627
  282ACOH    H310972   9.051   7.580   5.236 -0.5778 -1.8283 -0.5526
  283ACOH    H410973   6.449   2.527   5.412 -1.6485 -2.9798 -0.0640
  283ACOH    O210974   6.413   2.545   5.501  0.4549 -0.3891  0.3392
  283ACOH    C210975   6.512   2.555   5.590 -0.6208  0.1656  0.0484
  283ACOH    O110976   6.622   2.499   5.589 -0.3795  0.0632 -0.2141
  283ACOH    C110977   6.457   2.637   5.701 -0.0546  0.0846  0.3011
  283ACOH    H110978   6.389   2.574   5.760 -0.3383  0.8315  0.7806
  283ACOH    H210979   6.400   2.724   5.669 -1.6694 -0.9197  0.3781
  283ACOH    H310980   6.532   2.674   5.771 -0.1961  1.5016 -0.2975
  284ACOH    H410981   5.454   2.485   5.092 -0.0320 -0.0201 -0.9510
  284ACOH    O210982   5.389   2.412   5.094 -0.6603  0.5448  0.2406
  284ACOH    C210983   5.342   2.397   5.221 -0.0712  0.3592  0.2591
  284ACOH    O110984   5.337   2.485   5.304  0.5241 -0.1088  0.3233
  284ACOH    C110985   5.275   2.268   5.222 -0.0811 -0.4949 -0.7100
  284ACOH    H110986   5.331   2.188   5.173 -0.2744 -0.0432 -1.6751
  284ACOH    H210987   5.185   2.281   5.163  0.8161  2.7115 -1.4689
  284ACOH    H310988   5.254   2.236   5.324  0.4781 -1.1205 -0.7857
  285ACOH    H410989   8.114   8.831   0.711  0.6375 -1.4351  0.6763
  285ACOH    O210990   8.030   8.785   0.694 -0.3149  0.5909 -0.2183
  285ACOH    C210991   7.980   8.755   0.819 -0.1393  0.3506 -0.6121
  285ACOH    O110992   7.942   8.838   0.901  0.1944 -0.6294  0.3059
  285ACOH    C110993   7.912   8.624   0.807  0.1645 -0.6921 -0.1479
  285ACOH    H110994   7.917   8.579   0.906 -1.6494 -1.4006 -0.3641
  285ACOH    H210995   7.963   8.554   0.741  2.6377 -0.2461  1.2106
  285ACOH    H310996   7.808   8.639   0.779  0.5478  0.9760 -0.7150
  286ACOH    H410997   4.522   5.448   8.362 -0.6309  0.2566  0.4515
  286ACOH    O210998   4.527   5.366   8.309 -0.5586  0.5697 -0.0266
  286ACOH    C210999   4.395   5.343   8.290  0.1620 -0.9873  0.0138
  286ACOH    O111000   4.306   5.426   8.301  0.1634 -0.0586  0.3178
  286ACOH    C111001   4.367   5.209   8.234  0.4922  0.5217 -0.0347
  286ACOH    H111002   4.303   5.222   8.147  0.0279  2.0795  0.5102
  286ACOH    H211003   4.320   5.150   8.313 -1.0336  0.4098 -1.0137
  286ACOH    H311004   4.461   5.165   8.202  0.9662 -0.0249  2.0048
  288ACOH    H411005   5.290   3.932   6.327 -2.6352  0.1094 -0.5034
  288ACOH    O211006   5.285   3.838   6.351  0.0760 -0.0237 -0.2711
  288ACOH    C211007   5.240   3.771   6.244 -0.6373  0.6106 -0.0411
  288ACOH    O111008   5.227   3.816   6.134 -0.0765  0.4530  0.6982
  288ACOH    C111009   5.234   3.620   6.268 -0.3837 -0.0778 -0.0848
  288ACOH    H111010   5.164   3.587   6.344  1.1324  0.5361  1.6163
  288ACOH    H211011   5.331   3.580   6.297  0.4453  1.5273 -0.5136
  288ACOH    H311012   5.221   3.582   6.167  0.3177  4.1208 -1.8733
  289ACOH    H411013   7.865   4.046   4.854  0.6041  0.6580 -0.7639
  289ACOH    O211014   7.807   4.122   4.874 -0.2699 -0.1544 -0.1280
  289ACOH    C211015   7.801   4.124   5.011  0.2566  0.2682 -0.1651
  289ACOH    O111016   7.782   4.025   5.076  0.5561 -0.2767 -0.1188
  289ACOH    C111017   7.777   4.268   5.050  0.1413  0.4132 -0.6390
  289ACOH    H111018   7.826   4.296   5.144 -1.5504  1.3104 -0.0096
  289ACOH    H211019   7.670   4.282   5.044 -0.2102 -2.4007 -1.3825
  289ACOH    H311020   7.827   4.336   4.981  1.2517 -0.2755 -0.5226
  290ACOH    H411021   7.181   6.195   3.834  0.5787  4.1013  1.5271
  290ACOH    O211022   7.096   6.226   3.798  0.0384  0.3988 -0.5168
  290ACOH    C211023   7.018   6.116   3.803  0.8475 -0.2618 -0.1921
  290ACOH    O111024   7.055   6.001   3.828 -0.3045  0.0544 -0.3964
  290ACOH    C111025   6.880   6.142   3.751 -0.2500 -0.5607  0.0103
  290ACOH    H111026   6.812   6.064   3.786 -1.5722  1.0169  1.0104
  290ACOH    H211027   6.884   6.143   3.643 -1.8229 -0.5642 -0.0623
  290ACOH    H311028   6.835   6.237   3.779 -0.3798 -0.2867 -1.1341
  291ACOH    H411029   4.882   7.502   5.216  0.3285  1.1125  0.7195
  291ACOH    O211030   4.954   7.451   5.257 -0.0549  0.1146  0.1687
  291ACOH    C211031   5.048   7.444   5.158 -0.2201  0.2750  0.0792
  291ACOH    O111032   5.028   7.455   5.039  0.2190  0.7751 -0.2344
  291ACOH    C111033   5.179   7.395   5.211  0.0832 -0.0355 -0.5614
  291ACOH    H111034   5.223   7.476   5.269  0.1400  0.9612 -1.9940
  291ACOH    H211035   5.243   7.367   5.128 -3.3740  2.4648 -4.2307
  291ACOH    H311036   5.175   7.304   5.272 -0.8626 -0.2522 -0.9370
  292ACOH    H411037   4.966   3.475   2.373 -0.6351  0.0471 -4.1257
  292ACOH    O211038   5.036   3.540   2.359  0.0218  0.3251 -0.2417
  292ACOH    C211039   5.029   3.640   2.443  0.4466  0.6972 -0.0796
  292ACOH    O111040   4.932   3.666   2.509 -0.0824 -0.1464  0.2223
  292ACOH    C111041   5.133   3.743   2.408  0.0270  0.8769 -0.0964
  292ACOH    H111042   5.217   3.698   2.356  0.0042 -0.2196  0.8066
  292ACOH    H211043   5.168   3.790   2.500  0.8284 -0.0984  0.1037
  292ACOH    H311044   5.093   3.831   2.357 -0.9062  0.6449  0.2194
  293ACOH    H411045   5.234   7.690   1.023  0.2973 -1.6646  2.7971
  293ACOH    O211046   5.260   7.612   0.970 -0.2089  0.0141 -0.0275
  293ACOH    C211047   5.195   7.602   0.856 -0.1999  0.4987 -1.0541
  293ACOH    O111048   5.085   7.647   0.834 -0.0888  0.2056  0.3318
  293ACOH    C111049   5.252   7.502   0.774  0.0883 -0.3720  0.6082
  293ACOH    H111050   5.231   7.397   0.797 -0.0565 -0.7135 -0.9816
  293ACOH    H211051   5.360   7.517   0.769  0.2183 -1.5795 -0.8394
  293ACOH    H311052   5.218   7.515   0.671 -1.0355  0.4885  1.0795
  294ACOH    H411053   8.398   1.028   0.537  0.1660 -1.1538  0.0101
  294ACOH    O211054   8.491   0.998   0.531  0.4817  0.0210 -1.2556
  294ACOH    C211055   8.503   0.919   0.643  0.1888  0.8020 -0.0984
  294ACOH    O111056   8.422   0.917   0.734 -0.3057 -0.4559 -0.1953
  294ACOH    C111057   8.616   0.822   0.643 -0.0116  0.2365 -0.1872
  294ACOH    H111058   8.591   0.743   0.573  2.3506  0.1341 -0.9670
  294ACOH    H211059   8.625   0.779   0.743 -2.0239 -0.3932 -0.2547
  294ACOH    H311060   8.707   0.873   0.611 -0.3940  2.1201  1.5763
  295ACOH    H411061   5.290   4.837   2.890 -0.6610 -0.0293  0.4144
  295ACOH    O211062   5.240   4.854   2.971 -0.2990  0.0557  0.6181
  295ACOH    C211063   5.127   4.782   2.960 -0.3795  0.9986  0.0881
  295ACOH    O111064   5.084   4.746   2.853  0.1616 -0.0636 -0.3430
  295ACOH    C111065   5.058   4.799   3.089 -0.4572  0.4345  0.4341
  295ACOH    H111066   5.111   4.759   3.174 -0.3660 -0.3949 -0.0144
  295ACOH    H211067   4.952   4.773   3.089 -0.4925  0.5781  0.6032
  295ACOH    H311068   5.052   4.907   3.104  0.3463  0.5146  0.1914
  296ACOH    H411069   5.176   4.956   6.414 -1.0461  0.1508  0.8991
  296ACOH    O211070   5.182   5.053   6.409 -0.6535  0.1120  0.5746
  296ACOH    C211071   5.183   5.080   6.277  0.4405  0.0104 -0.0504
  296ACOH    O111072   5.150   5.006   6.184  0.0463 -0.0568  0.2396
  296ACOH    C111073   5.204   5.228   6.254  0.4740  0.1515 -0.2142
  296ACOH    H111074   5.312   5.239   6.248  0.6255 -1.1949 -0.2901
  296ACOH    H211075   5.156   5.284   6.334  0.3802 -0.5570  0.2374
  296ACOH    H311076   5.155   5.253   6.160  2.3049  0.8796 -1.0051
  298ACOH    H411077   1.156   7.104   1.896 -1.5935 -1.0515  1.0613
  298ACOH    O211078   1.131   7.190   1.934  0.3837 -0.0925  0.2722
  298ACOH    C211079   1.088   7.157   2.055  0.6455  1.0424  0.5787
  298ACOH    O111080   1.054   7.047   2.086 -0.0624  0.1771 -0.0973
  298ACOH    C111081   1.088   7.270   2.150 -0.5715 -0.3509 -0.2775
  298ACOH    H111082   1.195   7.288   2.155 -0.3854 -1.5454  0.2199
  298ACOH    H211083   1.053   7.236   2.248 -3.6118  1.8811 -0.5271
  298ACOH    H311084   1.041   7.360   2.112  1.3757  0.1764 -1.4794
  299ACOH    H411085   5.017   2.598   2.016 -0.0489  1.1754 -1.0073
  299ACOH    O211086   4.921   2.584   2.014  0.0990 -0.0005 -0.2658
  299ACOH    C211087   4.900   2.480   1.936  0.4407  0.5362 -0.2127
  299ACOH    O111088   4.977   2.428   1.863  0.2395 -0.4472  0.4562
  299ACOH    C111089   4.759   2.440   1.941 -0.4768 -0.5052 -0.3287
  299ACOH    H111090   4.720   2.467   2.039  3.8477 -2.8774  2.1593
  299ACOH    H211091   4.763   2.332   1.928 -0.0210 -0.4496 -0.6676
  299ACOH    H311092   4.697   2.480   1.860 -1.2224  0.4133  0.6691
  300ACOH    H411093   1.756   2.482   4.649 -0.6712 -1.3062  0.0270
  300ACOH    O211094   1.746   2.520   4.738  0.5472  0.7673 -0.6782
  300ACOH    C211095   1.860   2.472   4.788 -0.4286  0.6423  0.3058
  300ACOH    O111096   1.909   2.362   4.778 -0.2822  0.1170  0.4910
  300ACOH    C111097   1.905   2.569   4.895 -0.5679  0.5167 -0.1821
  300ACOH    H111098   1.940   2.661   4.847 -2.1995  1.0473 -0.4002
  300ACOH    H211099   1.979   2.524   4.960 -0.6687 -0.4497 -0.7342
  300ACOH    H311100   1.818   2.599   4.953 -0.2529 -0.8731  1.0311
  301ACOH    H411101   5.160   7.168   0.554 -0.2072  1.0787  1.1576
  301ACOH    O211102   5.226   7.102   0.581 -0.4164  0.2995 -0.2167
  301ACOH    C211103   5.180   7.028   0.682  0.6781  0.1873  1.2795
  301ACOH    O111104   5.091   7.065   0.756  0.3618 -0.2754  0.3877
  301ACOH    C111105   5.277   6.921   0.718 -0.9302 -0.4290  0.5759
  301ACOH    H111106   5.264   6.830   0.659  0.0001 -0.9898  1.2300
  301ACOH    H211107   5.259   6.886   0.820 -0.5730 -0.6264  0.5736
  301ACOH    H311108   5.379   6.960   0.716 -1.9733  2.3426  0.5374
  302ACOH    H411109   4.988   2.305   4.639  1.1145  1.6797  0.2165
  302ACOH    O211110   4.987   2.310   4.542  0.2576  0.2491  0.1370
  302ACOH    C211111   5.072   2.403   4.499  0.2891 -0.1286  0.1713
  302ACOH    O111112   5.097   2.497   4.572 -0.4247 -0.3983  0.4517
  302ACOH    C111113   5.090   2.405   4.354 -0.0506 -0.0772  0.1662
  302ACOH    H111114   5.016   2.476   4.318 -0.2090 -0.5225 -0.4100
  302ACOH    H211115   5.069   2.314   4.298  2.9629  0.2403 -1.6121
  302ACOH    H311116   5.185   2.441   4.314  0.2428 -0.3283  0.6316
  303ACOH    H411117   4.068   5.568   4.739 -0.6686 -0.0411  0.4015
  303ACOH    O211118   4.105   5.607   4.820 -0.2768  0.4295 -0.0041
  303ACOH    C211119   4.220   5.537   4.841  0.4648 -0.9215  0.4781
  303ACOH    O111120   4.275   5.458   4.764 -0.5555  0.3622  0.2990
  303ACOH    C111121   4.286   5.576   4.967 -0.3076  0.2705 -0.6098
  303ACOH    H111122   4.252   5.679   4.979  1.6715  0.9571 -0.7158
  303ACOH    H211123   4.393   5.579   4.951  0.1938  1.7458  2.5042
  303ACOH    H311124   4.259   5.517   5.055 -1.0450  2.7451  0.8993
  304ACOH    H411125   7.920   7.077   4.369 -0.8203 -0.8144  0.9046
  304ACOH    O211126   7.857   7.146   4.395 -0.1883  0.1943 -0.1882
  304ACOH    C211127   7.881   7.187   4.520  0.3626  0.0490  0.5535
  304ACOH    O111128   7.982   7.154   4.586 -0.1848  0.2952  0.1142
  304ACOH    C111129   7.794   7.293   4.573  0.3407 -0.2765 -0.5093
  304ACOH    H111130   7.731   7.331   4.493 -1.1577  1.6780  1.5569
  304ACOH    H211131   7.857   7.374   4.610 -0.4698  0.3665 -0.5324
  304ACOH    H311132   7.736   7.246   4.653 -0.3185 -2.1866 -2.0792
  305ACOH    H411133   3.921   7.028   3.326 -0.1386  1.5323 -0.1408
  305ACOH    O211134   3.911   7.056   3.233 -0.1676  0.5821 -0.4273
  305ACOH    C211135   3.925   7.186   3.227  0.1517  0.3544  0.1477
  305ACOH    O111136   3.985   7.253   3.309 -0.0227 -0.3550 -0.2640
  305ACOH    C111137   3.898   7.225   3.088  0.3974 -0.4907  0.0062
  305ACOH    H111138   3.965   7.302   3.050 -0.9319  0.1820 -1.0230
  305ACOH    H211139   3.794   7.257   3.081  0.3740 -0.5172  0.2286
  305ACOH    H311140   3.918   7.138   3.026  0.6278 -2.6547  2.9985
  306ACOH    H411141   5.627   2.273   4.913 -1.9642  2.9285  0.3218
  306ACOH    O211142   5.613   2.247   5.005  0.0880 -0.2578 -0.1780
  306ACOH    C211143   5.719   2.296   5.070  0.4389 -0.0366 -0.0867
  306ACOH    O111144   5.785   2.397   5.043  0.1326  0.2903 -0.6216
  306ACOH    C111145   5.724   2.238   5.206 -0.4847 -0.1376  0.3749
  306ACOH    H111146   5.807   2.274   5.266 -1.4886  1.5381  0.8016
  306ACOH    H211147   5.724   2.129   5.202 -1.1113 -0.1109 -0.9618
  306ACOH    H311148   5.635   2.273   5.259 -0.9692  0.4801 -0.8214
  308ACOH    H411149   4.683   4.974   5.209 -0.8773  0.9278 -2.0581
  308ACOH    O211150   4.765   5.004   5.166  0.4489  0.5043  0.1016
  308ACOH    C211151   4.730   5.022   5.043  0.6932 -0.2730 -0.6201
  308ACOH    O111152   4.625   5.076   5.006  0.4969  0.1376  0.1191
  308ACOH    C111153   4.850   5.043   4.962 -0.9747 -0.3507 -0.2284
  308ACOH    H111154   4.831   5.036   4.855  0.2112 -0.7667 -0.4186
  308ACOH    H211155   4.927   4.974   4.995 -1.0048 -0.8712 -1.2318
  308ACOH    H311156   4.877   5.147   4.981 -0.8990 -0.2404 -0.9238
  309ACOH    H411157   4.549   1.351   3.416  0.3995  0.9003  0.0429
  309ACOH    O211158   4.617   1.368   3.483  0.2430  0.1309  0.3981
  309ACOH    C211159   4.578   1.484   3.542 -0.0671  0.3558  0.6151
  309ACOH    O111160   4.490   1.561   3.510 -0.1909  0.3656 -0.2954
  309ACOH    C111161   4.647   1.508   3.672 -0.2570  0.0643 -0.3688
  309ACOH    H111162   4.704   1.417   3.689  1.5061  1.3133  0.4951
  309ACOH    H211163   4.575   1.513   3.754 -1.4721 -1.2066 -1.3349
  309ACOH    H311164   4.722   1.586   3.665  0.4014 -0.5393 -0.1564
  311ACOH    H411165   5.959   8.619   1.675  1.2012 -0.1712  1.8404
  311ACOH    O211166   5.969   8.527   1.705  0.1773 -0.8481  0.1729
  311ACOH    C211167   5.881   8.497   1.801 -0.3869 -0.1145 -0.5145
  311ACOH    O111168   5.794   8.571   1.834 -0.2584  0.0765 -0.0052
  311ACOH    C111169   5.905   8.368   1.872  0.3137  0.0073 -0.0382
  311ACOH    H111170   5.814   8.319   1.907 -0.5835  1.4108 -0.3445
  311ACOH    H211171   5.968   8.400   1.955  1.0392  0.6217 -0.8314
  311ACOH    H311172   5.960   8.296   1.813  0.2459 -0.7079  0.7686
  312ACOH    H411173   6.104   7.709   2.255  1.3382  0.9056 -2.1197
  312ACOH    O211174   6.137   7.618   2.241  0.4998  0.1033  0.7351
  312ACOH    C211175   6.256   7.612   2.182 -0.0502 -0.7062 -0.7333
  312ACOH    O111176   6.313   7.710   2.135  0.1800  0.4957  0.3991
  312ACOH    C111177   6.310   7.474   2.172 -0.2898  0.8770 -0.1545
  312ACOH    H111178   6.399   7.472   2.108 -0.9042 -1.1446 -0.9907
  312ACOH    H211179   6.236   7.411   2.122 -1.9445  2.2190  0.5460
  312ACOH    H311180   6.333   7.429   2.269  1.1673  2.4695  0.2609
  313ACOH    H411181   6.550   6.066   2.198 -0.5940  0.5838 -0.9842
  313ACOH    O211182   6.546   6.084   2.293 -0.7809  0.0022 -0.8800
  313ACOH    C211183   6.633   6.182   2.327 -0.6799 -0.0230 -0.1590
  313ACOH    O111184   6.703   6.251   2.253  0.6476  0.0242 -0.3284
  313ACOH    C111185   6.648   6.181   2.473 -0.4618 -0.0448  0.2751
  313ACOH    H111186   6.735   6.124   2.505  0.7039  0.6695 -1.5071
  313ACOH    H211187   6.554   6.159   2.522  0.1922  1.2996  2.1896
  313ACOH    H311188   6.676   6.283   2.499  0.9651 -0.2140 -0.5440
  314ACOH    H411189   9.670   0.374   0.659 -1.2436  0.0185  0.9495
  314ACOH    O211190   9.632   0.285   0.665 -0.4339 -0.3949  0.0548
  314ACOH    C211191   9.654   0.229   0.790  0.1176  0.6376 -0.1963
  314ACOH    O111192   9.713   0.279   0.885  0.2423  0.2980  0.1326
  314ACOH    C111193   9.590   0.096   0.793  0.2286  0.2111  0.5082
  314ACOH    H111194   9.501   0.091   0.857  0.6676 -2.8698  0.9675
  314ACOH    H211195   9.659   0.023   0.835 -0.5263  0.2639  1.8876
  314ACOH    H311196   9.560   0.061   0.694 -0.9515  0.6342  0.7004
  315ACOH    H411197   9.874   7.600   5.060  0.4462 -1.7023 -1.6166
  315ACOH    O211198   9.795   7.554   5.093 -0.2321  0.5891  0.0297
  315ACOH    C211199   9.702   7.562   5.001 -0.2251  0.4686  0.2805
  315ACOH    O111200   9.699   7.635   4.907 -0.2124 -0.0914  0.0853
  315ACOH    C111201   9.580   7.477   5.027  0.4657  1.3193 -0.5274
  315ACOH    H111202   9.538   7.442   4.932  0.9385 -0.7534  0.0013
  315ACOH    H211203   9.515   7.524   5.101 -0.6272 -1.4881  0.3640
  315ACOH    H311204   9.603   7.381   5.073 -1.2774  1.5447  0.8808
  316ACOH    H411205   1.381   4.067   5.217  0.1511 -2.6161  0.3486
  316ACOH    O211206   1.355   4.062   5.124  0.0849  0.1392  0.1834
  316ACOH    C211207   1.370   3.930   5.102 -0.5957  0.3206 -0.0747
  316ACOH    O111208   1.410   3.843   5.179  0.2533  0.4152  0.5071
  316ACOH    C111209   1.358   3.904   4.959 -0.0530 -0.3068  0.2441
  316ACOH    H111210   1.300   3.978   4.904 -0.1484 -1.8447 -1.7788
  316ACOH    H211211   1.319   3.803   4.940  2.0636 -0.9902 -0.5896
  316ACOH    H311212   1.458   3.904   4.916  0.2721 -1.8732  0.9333
  318ACOH    H411213   4.413   5.069   6.499  0.5049 -0.4477  0.5727
  318ACOH    O211214   4.497   5.117   6.503  0.0747  0.3667 -0.1019
  318ACOH    C211215   4.499   5.176   6.624  0.6562  0.5087  0.6686
  318ACOH    O111216   4.409   5.156   6.707  0.3177  0.1956 -0.0479
  318ACOH    C111217   4.628   5.252   6.641 -0.1204 -1.0822  0.3186
  318ACOH    H111218   4.630   5.337   6.573 -1.2336  0.5336  2.2659
  318ACOH    H211219   4.712   5.182   6.635  0.6450 -0.1860  0.4698
  318ACOH    H311220   4.620   5.295   6.740 -0.0686  0.0709 -0.1681
  319ACOH    H411221   5.371   6.856   0.120  1.2478  0.7102 -1.3484
  319ACOH    O211222   5.405   6.906   0.195 -0.1523 -0.3489  0.0122
  319ACOH    C211223   5.463   7.020   0.151  0.4731 -0.3008  0.5753
  319ACOH    O111224   5.472   7.051   0.032  0.1377 -0.1504 -0.6389
  319ACOH    C111225   5.487   7.111   0.260  0.3356  0.1102  0.0340
  319ACOH    H111226   5.585   7.157   0.247  0.1415  0.4418 -0.2299
  319ACOH    H211227   5.491   7.054   0.353  1.4788  2.0200  1.1911
  319ACOH    H311228   5.411   7.188   0.264  0.4223  0.2374 -0.8402
  320ACOH    H411229   8.132   9.175   0.591 -0.3760 -0.3828 -0.7737
  320ACOH    O211230   8.071   9.105   0.564 -0.2387 -0.6832 -0.3117
  320ACOH    C211231   7.956   9.108   0.619 -0.2427 -0.0653  0.1604
  320ACOH    O111232   7.922   9.190   0.698  0.2405 -0.1284 -0.0715
  320ACOH    C111233   7.867   8.990   0.589  0.4134 -0.3047 -0.6373
  320ACOH    H111234   7.908   8.936   0.503  2.1559  0.3661 -0.2386
  320ACOH    H211235   7.769   9.028   0.560  0.5121  0.4958  0.0752
  320ACOH    H311236   7.851   8.925   0.675 -0.5670  0.1911 -0.4336
  321ACOH    H411237   1.173   2.902   6.868 -1.8223  2.3230  0.9954
  321ACOH    O211238   1.207   2.879   6.956 -0.6378  0.7703  0.1380
  321ACOH    C211239   1.242   2.749   6.965 -0.2107 -0.4399  0.0191
  321ACOH    O111240   1.228   2.662   6.886  0.0886  0.1642 -0.6840
  321ACOH    C111241   1.328   2.728   7.088 -0.3762 -0.1860  0.3749
  321ACOH    H111242   1.371   2.824   7.116  0.3676 -0.3452 -0.2132
  321ACOH    H211243   1.407   2.656   7.068  0.8491  1.6012 -1.3690
  321ACOH    H311244   1.266   2.707   7.175 -1.8235  0.6457 -0.4388
  322ACOH    H411245   6.453   2.817   4.563  0.8268 -0.8989 -0.3633
  322ACOH    O211246   6.449   2.880   4.489 -0.1036 -0.5373 -0.0149
  322ACOH    C211247   6.326   2.929   4.485  0.0740 -0.2937  0.3777
  322ACOH    O111248   6.234   2.891   4.554 -0.0375 -0.3451  0.3462
  322ACOH    C111249   6.313   3.031   4.381 -0.1252  0.0974  0.1376
  322ACOH    H111250   6.277   2.982   4.291  1.2514 -1.4977  0.4406
  322ACOH    H211251   6.407   3.082   4.359 -0.4174  0.0496 -1.2613
  322ACOH    H311252   6.237   3.101   4.415  0.7052  0.0179  2.2453
  323ACOH    H411253   5.129   4.926   6.914  1.7430  2.6521  0.6425
  323ACOH    O211254   5.104   4.961   6.827 -0.7582 -0.3572  0.0876
  323ACOH    C211255   5.119   5.094   6.840  0.0257  0.8300  0.0497
  323ACOH    O111256   5.158   5.150   6.943  0.0897 -0.4296  0.3935
  323ACOH    C111257   5.065   5.167   6.720 -0.0861  0.5945  0.3641
  323ACOH    H111258   4.959   5.142   6.716 -0.3468  1.5728  0.9917
  323ACOH    H211259   5.108   5.121   6.631 -1.3516 -1.4654  0.7962
  323ACOH    H311260   5.078   5.276   6.723  0.7669  0.5131 -0.1155
  324ACOH    H411261   5.243   7.323   5.593  0.4070  1.4818 -2.7204
  324ACOH    O211262   5.331   7.283   5.578  0.3038 -0.1546  0.4862
  324ACOH    C211263   5.410   7.329   5.676 -0.2759  0.2217 -0.0674
  324ACOH    O111264   5.375   7.390   5.778 -0.1651  0.5675  0.7640
  324ACOH    C111265   5.546   7.274   5.647 -0.1065 -0.5575 -0.3483
  324ACOH    H111266   5.544   7.165   5.652 -1.4398 -0.5488 -0.3345
  324ACOH    H211267   5.618   7.310   5.720 -0.6863 -0.9875  0.4344
  324ACOH    H311268   5.575   7.301   5.545 -1.0737  0.3239 -0.4085
  325ACOH    H411269   0.654   1.669   3.289  1.7012 -0.6376  1.5575
  325ACOH    O211270   0.588   1.686   3.358  0.1099  0.0318 -0.0950
  325ACOH    C211271   0.512   1.790   3.316 -0.0554  0.7526 -0.6051
  325ACOH    O111272   0.536   1.864   3.221 -0.1546 -0.3919  0.1099
  325ACOH    C111273   0.422   1.822   3.432 -0.3273 -0.2659 -1.1169
  325ACOH    H111274   0.321   1.843   3.395  0.2862 -1.9499 -3.9095
  325ACOH    H211275   0.441   1.916   3.484 -0.7210  0.0486 -1.5401
  325ACOH    H311276   0.416   1.735   3.497 -3.2267 -0.5265 -1.6561
  326ACOH    H411277   7.088   3.196   5.135 -1.4201 -0.8129  1.2080
  326ACOH    O211278   7.105   3.285   5.171 -0.3886 -0.1106 -0.9542
  326ACOH    C211279   7.054   3.286   5.293  0.2682 -0.1954 -0.7578
  326ACOH    O111280   7.004   3.193   5.352 -0.5619  0.1822  0.6880
  326ACOH    C111281   7.077   3.416   5.359  0.4438  0.7406 -0.7759
  326ACOH    H111282   6.979   3.463   5.367 -1.2435 -2.7763  0.3318
  326ACOH    H211283   7.145   3.480   5.302  2.6142  0.4218  1.3451
  326ACOH    H311284   7.103   3.397   5.464 -3.8764  0.4928  0.3303
  327ACOH    H411285   5.411   1.041   3.192 -1.4061  1.3372 -0.5297
  327ACOH    O211286   5.443   1.065   3.103 -0.0441  0.2501 -0.3449
  327ACOH    C211287   5.550   0.979   3.085  0.1241  0.1413  0.1438
  327ACOH    O111288   5.568   0.872   3.141 -0.2203  0.0712  0.6028
  327ACOH    C111289   5.630   1.029   2.972 -0.0908  0.3671 -0.5155
  327ACOH    H111290   5.588   0.987   2.880  0.1513 -0.8981 -0.0533
  327ACOH    H211291   5.737   1.005   2.973 -0.3697 -0.8406  1.3855
  327ACOH    H311292   5.619   1.136   2.958  1.1194  0.4512 -0.9000
  328ACOH    H411293   4.239   3.716   3.543  0.3012 -1.1364 -0.4702
  328ACOH    O211294   4.154   3.686   3.578 -0.1147  0.1330 -0.3533
  328ACOH    C211295   4.102   3.786   3.652  0.9559 -0.3912 -0.5258
  328ACOH    O111296   4.134   3.901   3.627  0.0761  0.3709 -0.4137
  328ACOH    C111297   3.984   3.753   3.742  0.2266 -0.5640 -0.1874
  328ACOH    H111298   4.016   3.657   3.783  2.7407  0.1997 -0.2574
  328ACOH    H211299   3.897   3.753   3.677  1.2983  1.5241 -1.6653
  328ACOH    H311300   3.960   3.825   3.821 -0.6501 -0.5936 -0.4241
  330ACOH    H411301   5.334   4.674   6.628 -0.6103  0.0240  0.9029
  330ACOH    O211302   5.333   4.741   6.699 -0.0504  0.2585  0.6864
  330ACOH    C211303   5.438   4.821   6.667 -0.0305  0.9301 -0.0962
  330ACOH    O111304   5.539   4.777   6.615  0.7775  0.4658  0.2182
  330ACOH    C111305   5.432   4.943   6.745 -0.4890 -0.1099 -0.7515
  330ACOH    H111306   5.359   5.017   6.710 -0.6974 -0.8010 -1.8233
  330ACOH    H211307   5.531   4.988   6.738 -0.2402 -0.6504 -0.6696
  330ACOH    H311308   5.405   4.918   6.847 -1.5741  1.1282 -0.7163
  331ACOH    H411309   7.735   1.807   6.175 -0.9311 -0.6140 -0.9142
  331ACOH    O211310   7.658   1.865   6.181 -0.4258  0.0048 -0.1867
  331ACOH    C211311   7.688   1.991   6.226 -0.4410  0.2129 -0.0769
  331ACOH    O111312   7.797   2.029   6.250 -0.4078 -0.4421  0.1337
  331ACOH    C111313   7.573   2.080   6.245 -0.1963  0.0673  0.3065
  331ACOH    H111314   7.532   2.096   6.145 -1.6992 -1.8605  0.5807
  331ACOH    H211315   7.594   2.176   6.292  1.5973  1.5402 -3.3624
  331ACOH    H311316   7.498   2.027   6.304  1.4496  0.0944  2.4995
  333ACOH    H411317   5.418   3.063   4.808 -0.4079 -0.5496 -1.5978
  333ACOH    O211318   5.411   3.153   4.774  0.1149  0.0944 -0.0411
  333ACOH    C211319   5.280   3.178   4.747  0.1671  0.1284 -0.5292
  333ACOH    O111320   5.199   3.090   4.728  0.8719  0.2393  0.4056
  333ACOH    C111321   5.267   3.323   4.709  0.5166 -0.3432  0.7525
  333ACOH    H111322   5.345   3.339   4.635 -0.6025  2.1392  0.0464
  333ACOH    H211323   5.283   3.377   4.802 -1.4487  2.1683 -0.3006
  333ACOH    H311324   5.166   3.342   4.672  1.3145  1.2563 -0.6802
  335ACOH    H411325   2.352   7.810   2.325 -1.4698  0.1688 -1.2766
  335ACOH    O211326   2.268   7.789   2.368 -0.4863 -0.0714  0.5895
  335ACOH    C211327   2.181   7.828   2.274 -0.0311  0.3453  0.0929
  335ACOH    O111328   2.200   7.872   2.159  0.0130 -0.8883  0.3530
  335ACOH    C111329   2.043   7.821   2.331  0.1720  0.4052 -0.6538
  335ACOH    H111330   2.032   7.739   2.401  1.8913 -0.2281 -1.1020
  335ACOH    H211331   1.971   7.802   2.251 -0.7051 -1.1964  0.5027
  335ACOH    H311332   2.036   7.918   2.381  0.5128  1.3932 -2.4517
  336ACOH    H411333   4.142   2.350   2.692 -2.5518  0.7090  1.1868
  336ACOH    O211334   4.189   2.359   2.776 -0.1697  0.0714 -0.0450
  336ACOH    C211335   4.228   2.490   2.780  0.1928 -0.3067  0.9654
  336ACOH    O111336   4.206   2.574   2.697  0.0820  0.4040 -0.2323
  336ACOH    C111337   4.288   2.525   2.910 -0.1195 -0.0560  0.8311
  336ACOH    H111338   4.237   2.617   2.939  1.8052  1.5517 -0.7855
  336ACOH    H211339   4.393   2.547   2.891  0.1316 -1.4163  0.5452
  336ACOH    H311340   4.287   2.442   2.981  1.7353 -1.2598 -0.4969
  337ACOH    H411341   4.989   8.386   0.512  0.5578  1.3814  0.9041
  337ACOH    O211342   5.059   8.347   0.568  0.3033 -0.2808  0.0889
  337ACOH    C211343   5.001   8.244   0.629  0.0329 -0.6427 -0.4933
  337ACOH    O111344   4.900   8.182   0.594  0.2334 -0.0717 -0.5762
  337ACOH    C111345   5.111   8.184   0.704  0.0111 -0.1898  0.4930
  337ACOH    H111346   5.157   8.256   0.772  2.5281 -1.4649  0.1708
  337ACOH    H211347   5.185   8.139   0.638 -1.2647 -1.9303  0.1986
  337ACOH    H311348   5.076   8.101   0.766  2.0224 -1.3676  0.0991
  338ACOH    H411349   4.435   6.037   7.095 -2.1614 -1.2663  0.5026
  338ACOH    O211350   4.362   6.058   7.034 -0.4656  0.7121 -0.9116
  338ACOH    C211351   4.282   6.135   7.111 -0.1179  0.1574 -0.1766
  338ACOH    O111352   4.298   6.183   7.221  0.4459  0.4950  0.9298
  338ACOH    C111353   4.162   6.155   7.038 -0.5965  0.1977  0.4050
  338ACOH    H111354   4.114   6.063   7.005  1.7555 -0.7354 -0.5113
  338ACOH    H211355   4.184   6.221   6.954  0.4160  1.6901  1.8255
  338ACOH    H311356   4.090   6.199   7.107  0.5739 -2.0429  3.1456
  339ACOH    H411357   7.880   2.729   2.009 -0.7456  1.4716  0.5494
  339ACOH    O211358   7.917   2.812   1.975  0.3975  0.6618 -0.2071
  339ACOH    C211359   7.923   2.898   2.080 -0.4801 -0.3933  0.5904
  339ACOH    O111360   7.930   2.866   2.198  0.6808  0.3115  0.3533
  339ACOH    C111361   7.953   3.034   2.035 -0.1550 -1.2793  0.5385
  339ACOH    H111362   8.013   3.036   1.944 -0.5057  0.5430  0.3156
  339ACOH    H211363   8.014   3.085   2.109 -1.3270 -1.2600  1.5158
  339ACOH    H311364   7.857   3.079   2.008  0.4010  0.8288  1.9376
  341ACOH    H411365   4.322   4.388   3.226  1.4967 -1.0311  0.8269
  341ACOH    O211366   4.317   4.298   3.191 -0.2757 -0.5669 -0.2322
  341ACOH    C211367   4.365   4.310   3.067 -0.3195  0.2002 -0.4168
  341ACOH    O111368   4.358   4.406   2.997  0.0476  0.2923  0.1858
  341ACOH    C111369   4.424   4.186   3.016  0.1576  0.0951 -0.1717
  341ACOH    H111370   4.349   4.110   3.034  1.0192 -1.2864 -2.2464
  341ACOH    H211371   4.514   4.150   3.066  0.0685 -1.0843 -0.8410
  341ACOH    H311372   4.453   4.168   2.912  0.6229  1.8086 -0.3618
  342ACOH    H411373   1.925   0.466   3.892 -1.2976  0.2566  0.7215
  342ACOH    O211374   1.900   0.477   3.799  0.2414  0.7410  0.3483
  342ACOH    C211375   1.795   0.398   3.770  0.2484  0.4631 -0.5992
  342ACOH    O111376   1.728   0.339   3.854 -0.2031 -0.1926 -0.0507
  342ACOH    C111377   1.739   0.436   3.637  0.6848  0.4161  0.1443
  342ACOH    H111378   1.631   0.423   3.632  0.6019  1.8118 -2.6861
  342ACOH    H211379   1.785   0.379   3.556  2.4100  2.1554 -0.1381
  342ACOH    H311380   1.768   0.539   3.617  1.9511 -0.1811 -1.2522
  344ACOH    H411381   4.035   0.496   2.707 -0.2601 -1.6602  0.7449
  344ACOH    O211382   4.064   0.519   2.797 -0.6184  0.1107  0.4329
  344ACOH    C211383   3.972   0.501   2.893 -0.0246  0.1752 -0.3148
  344ACOH    O111384   3.862   0.451   2.866  0.3773  0.6112  0.0915
  344ACOH    C111385   4.029   0.509   3.030 -0.1495  0.4559 -0.0041
  344ACOH    H111386   3.959   0.558   3.097 -0.4742 -1.7596  1.3140
  344ACOH    H211387   4.123   0.564   3.030  0.3750 -0.3961  2.5281
  344ACOH    H311388   4.040   0.410   3.074 -2.6651  0.3929  0.5416
  345ACOH    H411389   4.383   4.521   3.772  0.2918  0.2781 -1.9467
  345ACOH    O211390   4.382   4.617   3.786  0.2636 -0.0182  0.1228
  345ACOH    C211391   4.290   4.672   3.700 -0.0387 -0.1020 -0.4916
  345ACOH    O111392   4.239   4.627   3.602 -0.0955 -0.2823 -0.1837
  345ACOH    C111393   4.261   4.817   3.738  0.3096  0.5466 -0.3155
  345ACOH    H111394   4.202   4.868   3.662 -0.8552  0.1902  0.3201
  345ACOH    H211395   4.350   4.877   3.757 -0.7649  1.7391  1.1448
  345ACOH    H311396   4.199   4.816   3.829 -0.6912 -1.7795 -1.0041
  346ACOH    H411397   5.209   7.031   3.179  0.4935 -1.7220 -0.0024
  346ACOH    O211398   5.298   7.035   3.139  0.1452 -0.0616 -0.6792
  346ACOH    C211399   5.384   7.111   3.209 -0.3862 -0.1815  0.1033
  346ACOH    O111400   5.339   7.194   3.284 -0.1517 -0.2674  0.2971
  346ACOH    C111401   5.522   7.119   3.156 -0.4120  0.1069 -0.3051
  346ACOH    H111402   5.531   7.119   3.047 -2.3863  0.3741 -0.4880
  346ACOH    H211403   5.570   7.037   3.209 -0.8073  1.7876  2.7448
  346ACOH    H311404   5.559   7.218   3.179  0.6433 -0.2720 -0.3437
  348ACOH    H411405   5.055   2.997   2.548  1.6750  1.0411  0.9542
  348ACOH    O211406   5.007   2.980   2.631  0.0888  1.0254  0.0554
  348ACOH    C211407   4.972   3.100   2.688  0.8979 -0.2738 -0.3393
  348ACOH    O111408   5.003   3.212   2.657 -0.2316 -0.6637  0.0182
  348ACOH    C111409   4.887   3.068   2.807  0.1817  0.0198  0.5771
  348ACOH    H111410   4.787   3.112   2.799  0.7421  0.9215 -1.8786
  348ACOH    H211411   4.937   3.096   2.899  2.3913  0.7181 -0.8018
  348ACOH    H311412   4.875   2.959   2.805 -2.4141  0.2764 -3.0798
  349ACOH    H411413   3.925   7.538   5.974 -1.2707 -0.5780 -1.1788
  349ACOH    O211414   3.986   7.529   5.899  0.5463 -0.3735  0.2480
  349ACOH    C211415   4.082   7.627   5.912  0.1385 -0.0048  0.7040
  349ACOH    O111416   4.115   7.704   6.000 -0.1360  0.8872  0.0240
  349ACOH    C111417   4.151   7.631   5.782 -0.4206  0.0486  0.0293
  349ACOH    H111418   4.194   7.729   5.765  0.5226 -0.3732 -0.0718
  349ACOH    H211419   4.073   7.612   5.708 -0.4975 -0.6324  0.2774
  349ACOH    H311420   4.223   7.549   5.775 -0.7480 -0.0833 -2.3610
  350ACOH    H411421   5.216   8.671   1.077  0.0419 -0.8854 -2.4456
  350ACOH    O211422   5.307   8.697   1.056  0.3522 -0.0791 -0.2859
  350ACOH    C211423   5.379   8.589   1.096  0.3175 -0.3126  0.2162
  350ACOH    O111424   5.332   8.477   1.107 -0.2270 -0.2405 -0.1428
  350ACOH    C111425   5.523   8.620   1.078 -0.4679  0.2698 -0.5612
  350ACOH    H111426   5.575   8.545   1.018 -0.7221  1.0170 -1.7489
  350ACOH    H211427   5.580   8.638   1.169  0.4404 -1.2079 -0.8191
  350ACOH    H311428   5.535   8.716   1.027 -0.0578 -0.6517 -2.2645
  351ACOH    H411429   5.938   1.979   3.822 -2.0661  0.9256 -2.2588
  351ACOH    O211430   5.872   1.991   3.892  0.3028 -0.4367  0.3312
  351ACOH    C211431   5.896   2.104   3.957 -0.3758  0.6606  0.3373
  351ACOH    O111432   5.999   2.171   3.944  0.4968  0.0121  0.3188
  351ACOH    C111433   5.781   2.148   4.045 -0.5848 -0.1812 -0.2198
  351ACOH    H111434   5.710   2.066   4.054 -1.1310  0.5742  2.8167
  351ACOH    H211435   5.729   2.236   4.010 -0.4403 -0.4009 -0.9980
  351ACOH    H311436   5.814   2.161   4.148  1.7083 -0.3449 -0.8917
  352ACOH    H411437   3.805   8.116   0.433 -0.0658  1.1446  0.4598
  352ACOH    O211438   3.727   8.105   0.490  0.0591 -0.2761  0.3868
  352ACOH    C211439   3.625   8.155   0.420 -0.5957  0.1827  0.0691
  352ACOH    O111440   3.628   8.229   0.326  0.0366  0.0966  0.3945
  352ACOH    C111441   3.502   8.097   0.474  0.5383 -0.0111  0.2400
  352ACOH    H111442   3.469   8.173   0.545  0.9331 -0.5592  1.0193
  352ACOH    H211443   3.529   8.011   0.536 -0.0853  1.0397  2.0256
  352ACOH    H311444   3.425   8.072   0.401  0.1104  2.6568 -0.2852
  353ACOH    H411445   6.224   8.475   7.480 -0.7644  0.5244 -0.3386
  353ACOH    O211446   6.208   8.453   7.573  0.3564  0.3514 -0.1866
  353ACOH    C211447   6.317   8.412   7.638  0.3977 -0.7110 -0.1961
  353ACOH    O111448   6.426   8.394   7.592 -0.0722  0.1007 -0.5962
  353ACOH    C111449   6.295   8.410   7.786 -0.4638 -0.3172  0.5810
  353ACOH    H111450   6.393   8.399   7.833  0.7727 -0.7175 -2.0242
  353ACOH    H211451   6.226   8.331   7.814 -0.4793  0.4184  2.7028
  353ACOH    H311452   6.267   8.512   7.814  1.0664  0.2419  0.1733
  354ACOH    H411453   7.517   1.605   7.523  1.1494  1.1873  1.4749
  354ACOH    O211454   7.583   1.647   7.465  0.3266  0.0197 -0.3559
  354ACOH    C211455   7.647   1.739   7.540 -0.1767  0.9363 -0.0730
  354ACOH    O111456   7.607   1.767   7.651  0.2665  0.4830 -0.4409
  354ACOH    C111457   7.777   1.777   7.484  0.2368 -1.0870 -0.1685
  354ACOH    H111458   7.818   1.851   7.553 -1.4733 -2.7591  2.7565
  354ACOH    H211459   7.764   1.809   7.381  0.9071  1.5108  0.5095
  354ACOH    H311460   7.844   1.691   7.483  1.3521 -0.2189 -0.8979
  355ACOH    H411461   8.237   3.545   6.984  1.4834  1.2342 -2.0146
  355ACOH    O211462   8.158   3.591   6.951  0.1626  0.3848 -0.0755
  355ACOH    C211463   8.137   3.565   6.817 -0.5216 -0.3347 -0.4913
  355ACOH    O111464   8.197   3.484   6.751 -0.3058 -0.4700 -0.7424
  355ACOH    C111465   8.020   3.635   6.760  0.2874  0.0351  0.1213
  355ACOH    H111466   7.944   3.666   6.831  0.2240 -1.7856  0.8704
  355ACOH    H211467   7.969   3.575   6.685 -1.3836  1.9510 -0.3342
  355ACOH    H311468   8.071   3.714   6.703 -2.3732  0.8566 -1.2203
  357ACOH    H411469   6.277   2.443   4.674 -3.6103 -0.6486  0.0537
  357ACOH    O211470   6.301   2.373   4.611 -0.5214  0.2644  0.1081
  357ACOH    C211471   6.215   2.277   4.629 -0.7008 -0.2543  0.2712
  357ACOH    O111472   6.142   2.256   4.723  0.2311 -0.7564 -0.3332
  357ACOH    C111473   6.230   2.177   4.515 -0.2064  0.1250  0.0013
  357ACOH    H111474   6.255   2.231   4.424 -0.8460  1.5478  0.6631
  357ACOH    H211475   6.132   2.135   4.491  1.5183 -2.2241 -3.2511
  357ACOH    H311476   6.303   2.099   4.538  0.1919  0.3682 -0.4255
  358ACOH    H411477   9.726   1.242   7.945 -0.5639  0.2825 -1.9383
  358ACOH    O211478   9.653   1.304   7.931 -0.7925  0.5645  0.2371
  358ACOH    C211479   9.575   1.280   8.039  0.1660 -0.1836 -0.5976
  358ACOH    O111480   9.585   1.186   8.117  0.3660  0.0514  0.0205
  358ACOH    C111481   9.460   1.369   8.037 -0.1040 -0.8122  0.5604
  358ACOH    H111482   9.390   1.350   8.118 -1.6973  0.5098 -0.4905
  358ACOH    H211483   9.399   1.367   7.947  0.9814  2.8494 -0.3302
  358ACOH    H311484   9.496   1.472   8.043 -1.0147 -0.2569 -2.6518
  359ACOH    H411485   5.480   5.888   7.751  1.1044  4.7733  3.0528
  359ACOH    O211486   5.575   5.874   7.737  0.1164 -0.7001  0.8251
  359ACOH    C211487   5.613   5.799   7.839 -0.4274 -0.5725 -0.6918
  359ACOH    O111488   5.554   5.771   7.944 -0.2724 -0.1624  0.1361
  359ACOH    C111489   5.754   5.762   7.826  0.3622 -0.2159  0.0352
  359ACOH    H111490   5.780   5.707   7.916  0.8545 -2.1720 -1.2673
  359ACOH    H211491   5.808   5.857   7.820  0.2412  0.0145  2.1452
  359ACOH    H311492   5.759   5.699   7.737 -1.3652  1.3782 -1.2356
  360ACOH    H411493   4.792   7.706   0.262 -0.8274  1.1588  0.7658
  360ACOH    O211494   4.829   7.763   0.331  0.9496  0.4414  0.4248
  360ACOH    C211495   4.943   7.705   0.383  0.3198 -0.0241 -0.7056
  360ACOH    O111496   4.946   7.584   0.406 -0.0716  0.9178  0.3663
  360ACOH    C111497   5.021   7.798   0.468  0.0482 -0.0045  0.1017
  360ACOH    H111498   4.985   7.790   0.570  1.3134  0.9434  0.6482
  360ACOH    H211499   5.014   7.903   0.437 -1.4280 -0.1952 -0.2121
  360ACOH    H311500   5.126   7.769   0.465  0.1501  0.0985  2.0403
  361ACOH    H411501   7.510   8.942   4.925 -1.4962  0.1825 -1.3229
  361ACOH    O211502   7.475   8.963   5.013  0.2746  0.1175 -0.6058
  361ACOH    C211503   7.466   9.094   5.043  0.1930  0.2756  0.2803
  361ACOH    O111504   7.543   9.175   4.997 -0.1808  0.0010  0.5965
  361ACOH    C111505   7.376   9.122   5.153  0.6248  0.3618 -0.4841
  361ACOH    H111506   7.272   9.113   5.122 -0.2192  0.2060  2.2381
  361ACOH    H211507   7.387   9.216   5.205 -0.1261  0.1273  0.1078
  361ACOH    H311508   7.389   9.042   5.227 -0.2711 -0.1826 -0.9020
  362ACOH    H411509   8.450   2.372   6.475 -1.7798  0.0605 -0.0283
  362ACOH    O211510   8.414   2.282   6.473  0.1571 -0.7343 -0.4326
  362ACOH    C211511   8.396   2.263   6.609 -0.0985 -0.2305  0.1306
  362ACOH    O111512   8.397   2.342   6.702 -0.4607 -0.3778  0.4593
  362ACOH    C111513   8.371   2.126   6.649  0.4270 -0.0604 -0.3416
  362ACOH    H111514   8.438   2.063   6.590 -0.1272 -0.9014 -0.0601
  362ACOH    H211515   8.266   2.109   6.628  0.0503  0.2617  1.2062
  362ACOH    H311516   8.402   2.112   6.752  0.4364  1.6036 -0.0983
  363ACOH    H411517   4.245   5.803   4.542 -1.6733  1.7356 -0.9706
  363ACOH    O211518   4.231   5.828   4.635  0.3347 -0.7606  0.0879
  363ACOH    C211519   4.352   5.807   4.690 -0.2816  0.1100 -0.4265
  363ACOH    O111520   4.449   5.753   4.641  0.0754  0.0282 -0.5225
  363ACOH    C111521   4.352   5.869   4.821  0.8910 -0.9840  0.6947
  363ACOH    H111522   4.262   5.923   4.848  1.3782 -0.3416  1.0230
  363ACOH    H211523   4.430   5.944   4.810 -0.2579  0.1558  0.1188
  363ACOH    H311524   4.379   5.811   4.909  1.8724  0.4595  1.3545
  364ACOH    H411525   4.869   7.972   0.993 -0.9223  0.9039  0.1305
  364ACOH    O211526   4.925   7.999   1.067  0.0922 -0.0359 -0.2640
  364ACOH    C211527   4.832   8.025   1.165 -0.2629  0.3159  0.5927
  364ACOH    O111528   4.712   8.033   1.147 -0.0094  0.1169 -0.5679
  364ACOH    C111529   4.890   8.117   1.266  0.6199  0.3275 -0.2852
  364ACOH    H111530   4.967   8.062   1.320 -0.8212 -0.7358  0.7206
  364ACOH    H211531   4.809   8.145   1.333 -0.8074 -1.5287 -1.1467
  364ACOH    H311532   4.931   8.208   1.222  0.5692  0.0028 -1.0251
  365ACOH    H411533   4.035   1.997   3.200 -0.9125  0.5391  0.0242
  365ACOH    O211534   4.102   2.068   3.203 -0.3229 -0.0220  0.1477
  365ACOH    C211535   4.039   2.185   3.180 -0.9355 -0.0397 -0.2177
  365ACOH    O111536   3.926   2.192   3.129  0.2754 -0.3608  0.2246
  365ACOH    C111537   4.123   2.308   3.206  0.7212  0.4358  0.8554
  365ACOH    H111538   4.138   2.313   3.313  0.0925 -1.6544  1.0695
  365ACOH    H211539   4.073   2.399   3.173 -0.5437 -0.3424  0.5890
  365ACOH    H311540   4.221   2.286   3.164  0.6485  0.2162  0.7971
  366ACOH    H411541   0.510   6.398   2.051  0.2768 -1.3101  1.8567
  366ACOH    O211542   0.605   6.406   2.032 -0.1812  0.6359  0.1904
  366ACOH    C211543   0.618   6.474   1.915 -0.1146 -0.0933  0.2056
  366ACOH    O111544   0.523   6.527   1.862 -0.5651  0.1721  0.3417
  366ACOH    C111545   0.759   6.486   1.870  0.6731  0.5657  0.5022
  366ACOH    H111546   0.787   6.589   1.847  0.9626 -0.4203 -4.1122
  366ACOH    H211547   0.766   6.423   1.781 -1.0914  0.2921  0.5448
  366ACOH    H311548   0.819   6.438   1.948  0.8708  0.2688  0.1727
  367ACOH    H411549   2.845   6.644   2.962  0.2057 -2.9247  1.7356
  367ACOH    O211550   2.938   6.672   2.966 -0.5081 -0.2171  0.4215
  367ACOH    C211551   2.936   6.781   2.883 -0.8340 -0.5253  0.2643
  367ACOH    O111552   2.850   6.813   2.803  0.1267  0.0687 -0.2838
  367ACOH    C111553   3.053   6.876   2.905  0.3262  0.4447  0.1677
  367ACOH    H111554   3.103   6.889   2.809 -1.7221  1.5859 -0.7804
  367ACOH    H211555   3.126   6.841   2.978 -0.2986 -0.7060  0.2490
  367ACOH    H311556   3.018   6.974   2.937  1.7103  1.0055 -0.0060
  369ACOH    H411557   5.135   7.231   3.645 -1.0478  1.4295 -0.0411
  369ACOH    O211558   5.085   7.180   3.711 -0.1504  0.5172 -0.0423
  369ACOH    C211559   5.014   7.075   3.654  0.6612  0.0903 -0.0317
  369ACOH    O111560   5.041   7.028   3.547 -0.1062 -0.3363 -0.2596
  369ACOH    C111561   4.946   6.997   3.760  0.6015 -0.2710 -0.5076
  369ACOH    H111562   4.843   7.029   3.775  0.6144 -0.5681  0.1960
  369ACOH    H211563   4.998   7.013   3.854  2.4084 -0.7772 -1.4108
  369ACOH    H311564   4.948   6.891   3.736  0.2314 -0.6028  0.8882
  370ACOH    H411565   5.091   9.837   0.803  2.2126  2.6959  0.1748
  370ACOH    O211566   5.164   9.773   0.800 -0.1391 -0.0859  0.1689
  370ACOH    C211567   5.134   9.682   0.705  0.9347  0.3233  0.5862
  370ACOH    O111568   5.025   9.650   0.666 -0.2370 -0.5158  0.0594
  370ACOH    C111569   5.255   9.595   0.689  0.1722  0.4405  0.0588
  370ACOH    H111570   5.248   9.491   0.719  1.4913  0.1571 -0.6182
  370ACOH    H211571   5.339   9.635   0.745  0.3138 -1.3173  1.1181
  370ACOH    H311572   5.284   9.611   0.585 -2.4524  0.2354 -0.7430
  371ACOH    H411573   5.751   5.273   7.520 -0.4845  1.4316  0.8232
  371ACOH    O211574   5.771   5.339   7.452 -0.1157  0.1697 -0.3098
  371ACOH    C211575   5.723   5.452   7.507 -0.4219 -0.0564 -0.3281
  371ACOH    O111576   5.681   5.458   7.623 -0.3957  0.0429  0.2932
  371ACOH    C111577   5.719   5.568   7.412  0.4320 -0.4833  0.3360
  371ACOH    H111578   5.674   5.536   7.318 -2.6058  0.7201  1.3057
  371ACOH    H211579   5.816   5.614   7.393  0.6877 -1.2586 -0.2775
  371ACOH    H311580   5.655   5.648   7.450 -0.6979 -1.0022 -0.4306
  372ACOH    H411581   9.821   4.891   3.740 -1.3063  1.6022  0.6540
  372ACOH    O211582   9.797   4.876   3.647  0.4928  0.1605  0.4008
  372ACOH    C211583   9.860   4.975   3.573 -0.1255 -0.3226 -0.2584
  372ACOH    O111584   9.924   5.072   3.619 -0.0670  0.1409  0.0737
  372ACOH    C111585   9.831   4.965   3.431  0.7409 -0.0734 -0.1204
  372ACOH    H111586   9.776   4.876   3.401  1.0424 -0.2209 -0.2408
  372ACOH    H211587   9.927   4.958   3.379  0.8727  0.9121 -0.0158
  372ACOH    H311588   9.770   5.050   3.401  1.0504 -0.0491 -0.6798
  373ACOH    H411589   5.208   0.817   0.054 -0.7738 -0.9076  1.4658
  373ACOH    O211590   5.287   0.764   0.076  0.5255  0.0531 -0.6855
  373ACOH    C211591   5.311   0.787   0.208  0.1068  0.9319  0.0377
  373ACOH    O111592   5.277   0.882   0.270  0.3512 -0.3049  0.7069
  373ACOH    C111593   5.442   0.718   0.234 -0.0534  0.2938 -0.4000
  373ACOH    H111594   5.519   0.786   0.269  0.1169  0.8034 -1.7339
  373ACOH    H211595   5.482   0.666   0.147 -0.2384 -1.4051  0.5128
  373ACOH    H311596   5.430   0.646   0.315 -1.3640  0.3517 -0.5378
  374ACOH    H411597   4.791   5.485   5.066  0.1354 -0.2170 -0.0566
  374ACOH    O211598   4.865   5.479   5.003  0.1762  0.2225 -0.0534
  374ACOH    C211599   4.819   5.545   4.897  0.5166 -0.0243  0.4949
  374ACOH    O111600   4.705   5.587   4.871  1.0754  0.4056  0.8247
  374ACOH    C111601   4.935   5.565   4.802 -0.9374 -0.6067 -0.4231
  374ACOH    H111602   4.963   5.670   4.798 -1.0754 -0.6100 -2.0045
  374ACOH    H211603   4.922   5.520   4.703 -2.2278 -2.3090  0.4948
  374ACOH    H311604   5.023   5.513   4.839  0.0179  0.3029 -1.3728
  376ACOH    H411605   6.052   6.592   1.335  0.0456  0.6301 -1.9125
  376ACOH    O211606   6.145   6.606   1.359 -0.3610 -0.3039  0.3145
  376ACOH    C211607   6.170   6.495   1.434  0.5005 -0.6610  0.5319
  376ACOH    O111608   6.087   6.411   1.469  0.6207 -0.1199  0.0864
  376ACOH    C111609   6.304   6.508   1.502 -0.5501  0.0774 -0.1784
  376ACOH    H111610   6.301   6.557   1.599 -2.7112 -0.4034  0.0176
  376ACOH    H211611   6.379   6.555   1.438  0.5260 -0.4369  0.6792
  376ACOH    H311612   6.348   6.410   1.523 -0.7235  0.2879  1.2003
  378ACOH    H411613   6.051   2.805   5.025  0.2718  0.4697 -2.6315
  378ACOH    O211614   6.127   2.749   5.000  0.4390 -0.5400 -0.0562
  378ACOH    C211615   6.234   2.835   4.994  0.6074 -0.4583  0.2592
  378ACOH    O111616   6.332   2.806   4.928 -0.2576  0.2802 -0.4544
  378ACOH    C111617   6.203   2.975   5.043 -0.3899 -0.0258  0.0758
  378ACOH    H111618   6.102   3.001   5.011 -0.2010  0.8113  0.1479
  378ACOH    H211619   6.261   3.054   4.996  0.5783 -0.7546  0.0329
  378ACOH    H311620   6.213   2.987   5.151  2.1832  0.6925 -0.2080
  379ACOH    H411621   5.782   3.999   0.789 -0.4768 -0.8744 -2.5660
  379ACOH    O211622   5.783   4.086   0.747  0.1751  0.3832 -0.0095
  379ACOH    C211623   5.896   4.151   0.783  0.1767  0.2237 -0.5060
  379ACOH    O111624   5.987   4.107   0.852 -0.8101  0.1844  0.1733
  379ACOH    C111625   5.903   4.287   0.723 -0.3445  0.1184 -0.5267
  379ACOH    H111626   6.005   4.317   0.699 -0.1966  0.5631  0.6170
  379ACOH    H211627   5.868   4.361   0.796 -0.9754  0.6353 -1.3487
  379ACOH    H311628   5.839   4.300   0.636 -0.7908  2.7414  0.1323
  380ACOH    H411629   5.707   2.105   6.438  0.5474  1.5434  0.8881
  380ACOH    O211630   5.804   2.109   6.437  0.5968  0.3710  0.0097
  380ACOH    C211631   5.854   2.003   6.495 -0.3350 -0.2137 -0.1884
  380ACOH    O111632   5.787   1.930   6.566  0.3580 -0.2612 -0.8262
  380ACOH    C111633   6.001   1.996   6.483 -0.0253  0.6654  0.1537
  380ACOH    H111634   6.037   2.002   6.586 -0.4728 -0.2918  0.3731
  380ACOH    H211635   6.042   2.075   6.421  0.1181 -0.1259 -0.7675
  380ACOH    H311636   6.028   1.899   6.441 -1.1470 -0.3379  1.6796
  381ACOH    H411637   4.921   2.997   4.300 -2.9389  0.9705 -0.3168
  381ACOH    O211638   4.930   2.971   4.207  0.0582 -0.3657  0.3016
  381ACOH    C211639   5.050   2.914   4.196 -0.1983 -0.1234  0.2792
  381ACOH    O111640   5.105   2.848   4.281 -0.1668  0.4133 -0.3412
  381ACOH    C111641   5.115   2.929   4.066 -0.1096 -0.4430  0.5022
  381ACOH    H111642   5.046   2.941   3.982 -0.0863  1.6153  0.7461
  381ACOH    H211643   5.182   2.848   4.039  1.8417  1.1132  0.5636
  381ACOH    H311644   5.180   3.017   4.063 -1.6722  0.7090 -0.0893
  383ACOH    H411645   4.396   5.467   6.913 -0.3382 -0.0656  0.3884
  383ACOH    O211646   4.436   5.538   6.966 -0.5326  0.3507 -0.0103
  383ACOH    C211647   4.545   5.481   7.031 -0.3557  0.1484  0.8604
  383ACOH    O111648   4.581   5.367   7.008  0.1861  0.1011  0.0547
  383ACOH    C111649   4.624   5.583   7.107  0.5863 -0.4915  0.3367
  383ACOH    H111650   4.659   5.653   7.031 -1.4590 -0.3442 -0.5039
  383ACOH    H211651   4.714   5.543   7.154  0.1724 -0.4174  1.2099
  383ACOH    H311652   4.566   5.637   7.182 -0.2943  0.0968 -0.7486
  384ACOH    H411653   5.552   2.551   4.329  0.4087  0.3164 -0.8867
  384ACOH    O211654   5.549   2.460   4.297 -0.1006 -0.0568  0.1967
  384ACOH    C211655   5.566   2.382   4.405 -0.1028  0.6687  0.2337
  384ACOH    O111656   5.605   2.414   4.514 -0.0988  0.3663  0.3405
  384ACOH    C111657   5.555   2.239   4.360  0.0997  0.6417  0.0534
  384ACOH    H111658   5.644   2.196   4.311 -1.2185 -0.3028 -1.5812
  384ACOH    H211659   5.477   2.214   4.289  0.6327  3.8301 -1.7384
  384ACOH    H311660   5.538   2.170   4.443 -0.2392 -0.4490 -0.8978
  385ACOH    H411661   5.989   0.802   7.428  3.3352  1.8868 -1.5807
  385ACOH    O211662   5.956   0.887   7.461 -0.0958 -0.0010  0.1586
  385ACOH    C211663   5.901   0.856   7.586 -0.4555  0.0504  0.0470
  385ACOH    O111664   5.903   0.749   7.649 -0.0904 -0.3911 -0.0750
  385ACOH    C111665   5.853   0.986   7.639  0.4692 -0.1055  0.1689
  385ACOH    H111666   5.762   1.006   7.581 -0.6910 -2.0557  1.2850
  385ACOH    H211667   5.919   1.072   7.625 -2.0221  1.9996  0.8195
  385ACOH    H311668   5.826   0.993   7.744  1.7795  0.4837  0.4820
  386ACOH    H411669   5.200   3.258   1.848 -1.1707 -1.8890 -0.4771
  386ACOH    O211670   5.218   3.240   1.942 -0.8225  0.1125 -0.1447
  386ACOH    C211671   5.107   3.271   2.009  0.2581  0.3123 -0.4589
  386ACOH    O111672   5.009   3.321   1.958  0.3356  0.1939 -0.1614
  386ACOH    C111673   5.154   3.280   2.149 -0.0899  0.1758 -0.3898
  386ACOH    H111674   5.066   3.292   2.212  0.6617  1.1061  0.4875
  386ACOH    H211675   5.199   3.378   2.162  1.2035 -0.2550 -1.5415
  386ACOH    H311676   5.210   3.201   2.199 -2.0779 -0.5432  0.7744
  387ACOH    H411677   2.117   6.251   3.910  0.3744 -0.3825 -0.4321
  387ACOH    O211678   2.057   6.255   3.834 -0.0569 -0.0120 -0.0713
  387ACOH    C211679   1.968   6.345   3.866  0.6928  0.6625  0.0575
  387ACOH    O111680   1.958   6.418   3.960  0.2930  0.4657 -0.0557
  387ACOH    C111681   1.870   6.351   3.758  0.2846  0.0810 -0.3600
  387ACOH    H111682   1.847   6.457   3.752  1.6572  0.4091  0.0757
  387ACOH    H211683   1.780   6.293   3.778  1.3322 -1.6430 -0.5028
  387ACOH    H311684   1.913   6.326   3.661  2.7997 -0.9901  0.9825
  388ACOH    H411685   5.464   5.357   2.550  2.0209  0.3766 -2.7644
  388ACOH    O211686   5.530   5.340   2.619 -0.2699 -0.3942 -0.6534
  388ACOH    C211687   5.590   5.219   2.607 -0.4821 -0.2127  0.3011
  388ACOH    O111688   5.585   5.128   2.528 -0.0867  0.0040 -0.0539
  388ACOH    C111689   5.677   5.200   2.723  0.0238 -0.2862 -0.3876
  388ACOH    H111690   5.768   5.259   2.706  0.6331 -1.3824 -0.9566
  388ACOH    H211691   5.702   5.095   2.735  2.1411  0.3293  0.7739
  388ACOH    H311692   5.620   5.244   2.806 -1.2391 -2.3443 -0.1445
  389ACOH    H411693   6.620   6.523   1.670 -0.7892 -3.7563 -1.0008
  389ACOH    O211694   6.602   6.559   1.581  0.0365 -0.1441  0.2283
  389ACOH    C211695   6.705   6.551   1.497  0.3383 -0.1864  0.0793
  389ACOH    O111696   6.783   6.462   1.524 -0.1273  0.3987  0.1554
  389ACOH    C111697   6.666   6.587   1.359  0.6654  0.4468  0.4655
  389ACOH    H111698   6.725   6.540   1.280  0.1037  0.8624 -0.2046
  389ACOH    H211699   6.664   6.696   1.350  1.8060  0.5847  1.7169
  389ACOH    H311700   6.565   6.553   1.340  0.1803  0.3192  3.0345
  390ACOH    H411701   4.759   0.504  10.021 -0.5916 -0.8888 -0.5463
  390ACOH    O211702   4.824   0.463  10.081 -0.3749  0.1131 -0.0872
  390ACOH    C211703   4.949   0.512  10.068  0.3789  0.9210  0.2581
  390ACOH    O111704   4.977   0.623  10.031  0.0183  0.0883  0.3476
  390ACOH    C111705   5.043   0.410  10.121 -0.5502 -0.7557 -1.0031
  390ACOH    H111706   5.069   0.448  10.220 -1.7241 -3.0816  0.2539
  390ACOH    H211707   5.129   0.387  10.058  0.5568 -0.0164  0.2195
  390ACOH    H311708   4.988   0.316  10.134 -2.0782  0.2103 -0.3939
  391ACOH    H411709   1.306   8.272   1.449 -0.8976  2.1893  2.2614
  391ACOH    O211710   1.333   8.201   1.511 -0.3885  0.2407 -0.1165
  391ACOH    C211711   1.220   8.142   1.554 -0.5724 -0.3051 -0.7560
  391ACOH    O111712   1.105   8.182   1.537  0.6352  0.5003 -0.8239
  391ACOH    C111713   1.253   8.062   1.675  0.2767 -0.3216 -0.5177
  391ACOH    H111714   1.342   8.107   1.719  0.0902 -1.3946  1.0159
  391ACOH    H211715   1.284   7.960   1.652  0.5347 -0.2061 -0.6861
  391ACOH    H311716   1.175   8.065   1.750  1.2464  0.9570  0.4572
  392ACOH    H411717   7.576   5.555   3.917 -1.6117  0.8871 -2.8770
  392ACOH    O211718   7.494   5.554   3.970  0.1167  0.4509 -0.1409
  392ACOH    C211719   7.522   5.460   4.063 -0.0185 -0.0317 -0.2609
  392ACOH    O111720   7.610   5.376   4.056  0.1234  0.4120  0.5583
  392ACOH    C111721   7.414   5.454   4.158 -0.0563  0.5062  0.3606
  392ACOH    H111722   7.455   5.433   4.257 -0.1068  2.0012  0.7090
  392ACOH    H211723   7.341   5.375   4.137 -0.1400  0.1979  1.7822
  392ACOH    H311724   7.356   5.546   4.160 -0.8086  0.0452  0.2339
  394ACOH    H411725   5.348   4.616   7.291  0.9087 -0.0910 -0.0414
  394ACOH    O211726   5.350   4.713   7.285  0.3773 -0.0975 -0.4354
  394ACOH    C211727   5.463   4.746   7.347 -0.3262 -0.7303  0.0769
  394ACOH    O111728   5.529   4.686   7.430 -0.1379  0.2595 -0.4944
  394ACOH    C111729   5.491   4.887   7.312 -0.1783 -0.4345  0.3445
  394ACOH    H111730   5.462   4.901   7.208 -0.1056  1.1933  0.5231
  394ACOH    H211731   5.596   4.916   7.315  0.4943 -2.1285 -3.8964
  394ACOH    H311732   5.431   4.960   7.366  0.4950 -0.3580  1.0002
  395ACOH    H411733   7.352   0.912   2.835 -0.4827 -1.7299  1.0790
  395ACOH    O211734   7.255   0.915   2.832 -0.4380  0.0268  1.0977
  395ACOH    C211735   7.211   0.786   2.837 -0.4233  0.3578  0.7573
  395ACOH    O111736   7.272   0.700   2.890  0.2354  0.1472 -0.2487
  395ACOH    C111737   7.063   0.767   2.808 -0.5557  0.1880 -0.3516
  395ACOH    H111738   7.056   0.783   2.700  3.3843 -0.6300 -0.8180
  395ACOH    H211739   7.014   0.853   2.852  1.4091  2.0226 -1.6384
  395ACOH    H311740   7.029   0.671   2.845 -1.5807  0.3489 -0.8666
  396ACOH    H411741   5.135   6.109   7.805  0.2452  0.3792  1.0043
  396ACOH    O211742   5.165   6.124   7.714 -0.6320  0.2225  0.6773
  396ACOH    C211743   5.233   6.015   7.682  0.1780  0.3343  0.3314
  396ACOH    O111744   5.309   5.947   7.747  0.2156  0.5385 -0.1038
  396ACOH    C111745   5.239   6.017   7.534 -0.2002 -0.0919  0.4187
  396ACOH    H111746   5.150   5.974   7.488 -0.0140  1.1140 -1.1015
  396ACOH    H211747   5.319   5.959   7.488  1.6875  2.2219  0.6968
  396ACOH    H311748   5.250   6.120   7.500 -0.3245  0.0592  0.8395
  397ACOH    H411749   4.354   0.555   1.050  0.2300 -1.7351 -0.1489
  397ACOH    O211750   4.300   0.514   0.979 -0.5702 -0.4634 -0.3043
  397ACOH    C211751   4.215   0.428   1.042  0.4702 -1.0136  0.1533
  397ACOH    O111752   4.237   0.357   1.139  0.3114 -0.9154 -0.3812
  397ACOH    C111753   4.123   0.396   0.933  0.9912 -0.4952 -0.6230
  397ACOH    H111754   4.094   0.485   0.879 -0.5880  0.1243  1.1811
  397ACOH    H211755   4.039   0.343   0.977 -0.1042  1.9675  0.3282
  397ACOH    H311756   4.178   0.335   0.861  0.3393 -1.2253 -0.5185
  399ACOH    H411757   5.387   4.631   6.037  0.2583 -0.4774 -1.0662
  399ACOH    O211758   5.483   4.642   6.040  0.1810  0.0191 -0.0372
  399ACOH    C211759   5.499   4.697   6.163 -0.3587  0.4234 -0.4732
  399ACOH    O111760   5.421   4.690   6.255 -0.2300  0.5179  0.4131
  399ACOH    C111761   5.637   4.748   6.182  0.7198  0.2892 -0.3313
  399ACOH    H111762   5.717   4.682   6.149 -0.0159 -1.2359  0.9221
  399ACOH    H211763   5.654   4.755   6.289 -0.4238 -1.5752 -0.0207
  399ACOH    H311764   5.646   4.847   6.137  0.3780  0.1943 -0.6168
  400ACOH    H411765   4.194   6.774   6.778  0.6860 -0.9208 -0.4356
  400ACOH    O211766   4.250   6.790   6.856  0.0170  0.7019 -0.2649
  400ACOH    C211767   4.360   6.859   6.821  0.0455  0.5294  0.1348
  400ACOH    O111768   4.372   6.909   6.709  0.8036  0.5757  0.0151
  400ACOH    C111769   4.460   6.848   6.930 -0.1561 -0.0144  0.7468
  400ACOH    H111770   4.557   6.877   6.889  1.3707 -3.3927  1.7349
  400ACOH    H211771   4.468   6.742   6.952  2.0913  0.0645  0.4116
  400ACOH    H311772   4.437   6.909   7.017  0.6038  2.9294 -1.0454
  402ACOH    H411773   2.856  10.024   0.365 -1.2906  2.1988 -0.2032
  402ACOH    O211774   2.932  10.060   0.414 -0.0874  0.0114 -0.3565
  402ACOH    C211775   2.960   9.984   0.521 -0.1193  0.5695  0.0598
  402ACOH    O111776   2.902   9.878   0.553 -0.4907  0.0994  0.6352
  402ACOH    C111777   3.075  10.031   0.604 -0.8461 -0.1089 -0.1086
  402ACOH    H111778   3.124   9.946   0.651 -2.6397 -2.2778 -2.0512
  402ACOH    H211779   3.025  10.088   0.682 -2.1671 -1.0757 -0.2301
  402ACOH    H311780   3.136  10.102   0.548  0.3551 -0.6218  0.5324
  403ACOH    H411781   1.218   1.979   2.165  0.1048  0.5291 -2.1103
  403ACOH    O211782   1.314   1.976   2.177 -0.1381 -0.3817 -0.2268
  403ACOH    C211783   1.347   2.093   2.117 -0.0866 -0.4211 -0.6388
  403ACOH    O111784   1.277   2.191   2.126  0.1102  0.2666  1.0290
  403ACOH    C111785   1.486   2.115   2.093 -0.6441  0.0427  0.1636
  403ACOH    H111786   1.527   2.161   2.183  0.8740 -0.3818 -0.2895
  403ACOH    H211787   1.508   2.174   2.004 -0.9515 -3.0668 -2.0584
  403ACOH    H311788   1.533   2.018   2.077  2.1592  1.5126 -0.9323
  404ACOH    H411789   4.699   3.400   2.521 -0.2471 -0.5286 -2.4650
  404ACOH    O211790   4.693   3.303   2.513  0.2506 -0.7390 -0.4869
  404ACOH    C211791   4.779   3.271   2.412  0.2078  0.1483  0.3065
  404ACOH    O111792   4.865   3.343   2.367  0.0078  0.1517 -0.3766
  404ACOH    C111793   4.749   3.130   2.377 -0.6630  0.3562 -0.3255
  404ACOH    H111794   4.644   3.106   2.396 -0.1526 -0.9363  0.9843
  404ACOH    H211795   4.810   3.071   2.445 -1.1768  0.3458  0.1312
  404ACOH    H311796   4.777   3.116   2.273  0.3677  0.2136 -0.0342
  405ACOH    H411797   5.313   3.097   1.531  0.4582  0.9265 -0.2297
  405ACOH    O211798   5.375   3.050   1.589 -0.3114 -0.2976 -0.3812
  405ACOH    C211799   5.484   3.030   1.511  0.1691 -0.2942 -0.2982
  405ACOH    O111800   5.499   3.084   1.407  0.2969 -0.0574  0.1419
  405ACOH    C111801   5.602   2.970   1.587  0.0917  0.0885  0.6381
  405ACOH    H111802   5.638   2.889   1.524  0.3640 -0.5941  1.6628
  405ACOH    H211803   5.570   2.919   1.678  2.0579 -1.4218  0.5187
  405ACOH    H311804   5.672   3.045   1.621  0.3478 -0.3523  1.0904
  406ACOH    H411805   3.248   0.349   5.793 -1.2891  1.1139  3.8900
  406ACOH    O211806   3.336   0.380   5.821  0.2810  0.1631  0.3016
  406ACOH    C211807   3.374   0.310   5.928 -0.9813 -0.2059 -0.0994
  406ACOH    O111808   3.317   0.216   5.979  0.0501  0.1481 -0.5464
  406ACOH    C111809   3.505   0.362   5.977  1.0226 -0.4393 -0.0500
  406ACOH    H111810   3.499   0.465   6.009  0.3357 -0.2803 -0.6734
  406ACOH    H211811   3.577   0.357   5.895  0.0594  0.2536 -0.9401
  406ACOH    H311812   3.550   0.305   6.058  2.1769 -1.2426 -1.2200
  407ACOH    H411813   4.996   1.641   3.798  1.2663 -0.1730 -0.7999
  407ACOH    O211814   5.001   1.727   3.754 -0.2186  0.3233 -0.0378
  407ACOH    C211815   5.123   1.737   3.706 -0.2723 -0.1052 -0.3037
  407ACOH    O111816   5.209   1.651   3.689  0.2267 -0.2923  0.4135
  407ACOH    C111817   5.156   1.878   3.680 -0.3613 -0.2807  0.0651
  407ACOH    H111818   5.178   1.884   3.573 -2.6536  0.3298 -0.4055
  407ACOH    H211819   5.244   1.910   3.736 -1.0622 -1.8505  2.1454
  407ACOH    H311820   5.075   1.949   3.694  0.9911  1.3510 -0.2762
  408ACOH    H411821   5.093   1.452   4.340  1.5038  2.4434  0.4095
  408ACOH    O211822   5.012   1.485   4.296  0.5878 -0.2148  0.0184
  408ACOH    C211823   5.041   1.606   4.232  0.0721  0.0315 -0.3227
  408ACOH    O111824   5.145   1.641   4.178  0.0940  0.3152 -0.3951
  408ACOH    C111825   4.918   1.691   4.219  0.0433 -0.0920  0.7233
  408ACOH    H111826   4.833   1.638   4.261 -0.4429 -1.2563 -1.6185
  408ACOH    H211827   4.900   1.714   4.114  0.8144 -2.0784  0.1305
  408ACOH    H311828   4.934   1.785   4.271  1.5524 -0.2023  0.4796
  409ACOH    H411829   4.499   8.503   0.430 -0.2272  1.0568 -0.5397
  409ACOH    O211830   4.559   8.526   0.503  0.2949 -0.1531 -0.5782
  409ACOH    C211831   4.622   8.416   0.553 -0.2450 -0.3829 -0.1666
  409ACOH    O111832   4.596   8.301   0.524  0.4329 -0.0662  0.2203
  409ACOH    C111833   4.680   8.455   0.686 -0.3864 -0.6730  0.1297
  409ACOH    H111834   4.634   8.402   0.769 -3.0150  2.2820  0.6863
  409ACOH    H211835   4.667   8.562   0.706  0.9226 -0.7416  1.4587
  409ACOH    H311836   4.785   8.429   0.682  0.0087  1.0711 -2.4298
  410ACOH    H411837   5.012   5.988   3.006 -2.9534  0.7675  0.6440
  410ACOH    O211838   4.991   5.896   3.030  0.0046 -0.0894  0.1044
  410ACOH    C211839   5.023   5.822   2.922 -0.2303 -0.5804 -0.4629
  410ACOH    O111840   5.022   5.853   2.805 -0.4260  0.1731 -0.5025
  410ACOH    C111841   5.023   5.683   2.973 -0.5104 -0.8486 -0.1083
  410ACOH    H111842   5.117   5.656   3.020 -1.2772 -0.6099  1.5930
  410ACOH    H211843   5.014   5.620   2.885 -0.7903  1.9681 -2.1765
  410ACOH    H311844   4.946   5.672   3.050 -0.2257  0.1311  0.3249
  411ACOH    H411845   8.096   6.925  10.073 -1.0902  2.0694  0.7432
  411ACOH    O211846   8.152   6.955  10.000  0.1283 -0.5654  0.5493
  411ACOH    C211847   8.279   6.956  10.045  0.0448  0.1583 -0.2567
  411ACOH    O111848   8.329   6.914  10.146  0.3446 -0.8128  0.2767
  411ACOH    C111849   8.362   6.999   9.930  0.4417  0.5284  0.1910
  411ACOH    H111850   8.362   7.108   9.924 -0.0623  0.4257 -1.8726
  411ACOH    H211851   8.329   6.948   9.840  0.0013  1.3548 -0.1219
  411ACOH    H311852   8.465   6.967   9.944  0.3092 -0.2230 -0.5607
  412ACOH    H411853   6.148   4.934   7.578 -1.4205 -1.8122  1.0293
  412ACOH    O211854   6.085   4.950   7.505 -0.9731 -0.3476  0.9609
  412ACOH    C211855   5.982   4.866   7.522 -0.0487  0.7385 -0.3430
  412ACOH    O111856   5.954   4.786   7.612  0.2528 -0.1974  0.7191
  412ACOH    C111857   5.882   4.887   7.414 -0.3679 -0.7271  0.4852
  412ACOH    H111858   5.825   4.976   7.441  1.6640  0.8816 -0.3747
  412ACOH    H211859   5.810   4.806   7.415 -0.9051 -0.2675 -0.6561
  412ACOH    H311860   5.911   4.908   7.311 -1.0324  1.5866  0.7502
  413ACOH    H411861   7.789   4.535   6.594 -2.0458  0.5699 -1.5609
  413ACOH    O211862   7.818   4.488   6.513  0.0521 -0.4611 -0.2631
  413ACOH    C211863   7.888   4.376   6.538 -0.2351  0.2223  0.0772
  413ACOH    O111864   7.926   4.328   6.643  0.3680 -0.5350  0.4780
  413ACOH    C111865   7.903   4.310   6.405  0.0070  0.0672 -0.0670
  413ACOH    H111866   7.819   4.273   6.345  1.1099 -1.4099 -0.7399
  413ACOH    H211867   7.962   4.220   6.424  1.1926  1.2986  2.2312
  413ACOH    H311868   7.960   4.378   6.342 -0.9213  0.3432 -0.6271
  414ACOH    H411869   5.461   0.124   1.643  0.6858  0.8220  0.7293
  414ACOH    O211870   5.458   0.137   1.547 -0.8349 -0.4756  0.5902
  414ACOH    C211871   5.332   0.149   1.494  0.0636 -0.3837  0.8644
  414ACOH    O111872   5.232   0.139   1.565  0.1238 -0.0165 -0.1811
  414ACOH    C111873   5.328   0.142   1.347  1.0337  0.5677 -0.1719
  414ACOH    H111874   5.419   0.180   1.301 -0.7511  2.5410 -2.1788
  414ACOH    H211875   5.241   0.187   1.299  2.6018  1.1396 -2.5617
  414ACOH    H311876   5.313   0.037   1.323 -1.5212  0.4732  1.6578
  415ACOH    H411877   0.693   4.970   1.780  1.5437  1.4289  1.8279
  415ACOH    O211878   0.717   4.892   1.834 -0.1716 -0.1532  0.3910
  415ACOH    C211879   0.803   4.930   1.931 -0.2809  0.4886 -0.1374
  415ACOH    O111880   0.857   5.038   1.938  0.2591  0.6401 -0.3547
  415ACOH    C111881   0.836   4.819   2.021  0.3378  0.3965 -0.6368
  415ACOH    H111882   0.906   4.848   2.100 -0.8004  1.0727  0.1459
  415ACOH    H211883   0.870   4.726   1.976 -2.3892 -2.1855  2.2511
  415ACOH    H311884   0.750   4.777   2.074  0.2434 -0.3132 -1.3429
  416ACOH    H411885   5.174   6.429   2.777 -1.2705 -0.4108 -0.1440
  416ACOH    O211886   5.197   6.340   2.808  0.4125  0.0906  0.0450
  416ACOH    C211887   5.298   6.289   2.726  0.9303  0.3813  0.1548
  416ACOH    O111888   5.349   6.343   2.626 -0.2150  0.2705  0.0744
  416ACOH    C111889   5.331   6.148   2.751  0.6226  0.6097 -0.4757
  416ACOH    H111890   5.291   6.112   2.845 -0.9328  0.5756 -1.1358
  416ACOH    H211891   5.440   6.141   2.748  0.5059 -1.5933  0.0212
  416ACOH    H311892   5.295   6.087   2.667  3.0213  2.0079 -2.5969
  417ACOH    H411893   4.478   6.017   4.364  1.7599 -0.5827  2.0954
  417ACOH    O211894   4.561   6.007   4.314  0.3154  0.5977 -0.6672
  417ACOH    C211895   4.622   6.125   4.301  0.2653  0.2981 -0.2599
  417ACOH    O111896   4.619   6.211   4.387  0.0191 -0.4530  0.4261
  417ACOH    C111897   4.709   6.112   4.179  0.5063 -0.4609 -0.6392
  417ACOH    H111898   4.778   6.030   4.198  0.7594  0.4655  2.7851
  417ACOH    H211899   4.764   6.206   4.172 -1.0019  0.5832  0.9756
  417ACOH    H311900   4.654   6.097   4.086  1.6323  1.2792 -1.6033
  418ACOH    H411901   5.159   4.236   6.526 -2.9909  0.3715 -1.5588
  418ACOH    O211902   5.202   4.304   6.472 -0.1455  0.2338  0.4302
  418ACOH    C211903   5.230   4.253   6.352 -0.6329 -0.0409 -0.1762
  418ACOH    O111904   5.212   4.136   6.315  0.3382 -0.4259 -0.6047
  418ACOH    C111905   5.289   4.354   6.258  0.0675 -0.6926  0.8364
  418ACOH    H111906   5.393   4.374   6.287  0.2554 -1.3078  0.5876
  418ACOH    H211907   5.221   4.439   6.252  0.2340 -0.5592  0.8310
  418ACOH    H311908   5.290   4.303   6.162 -2.0863  1.0514 -0.1196
  419ACOH    H411909   7.176   5.112   6.583  0.8875 -3.2527 -0.0603
  419ACOH    O211910   7.191   5.134   6.490 -0.2165 -0.2172  0.4424
  419ACOH    C211911   7.067   5.160   6.438  0.5209 -0.2334  0.0250
  419ACOH    O111912   6.966   5.176   6.502  0.3379  0.5635 -0.8720
  419ACOH    C111913   7.070   5.179   6.291 -0.4122 -0.1670  0.6446
  419ACOH    H111914   6.966   5.193   6.259  0.1869  2.0434 -0.4332
  419ACOH    H211915   7.116   5.096   6.238 -2.5244  0.7380 -2.7772
  419ACOH    H311916   7.136   5.265   6.285 -0.6962  0.0179  0.1138
  420ACOH    H411917   6.964   6.349   6.827 -0.9815 -2.6862 -0.5594
  420ACOH    O211918   6.934   6.389   6.743  0.5416 -0.0981  0.0506
  420ACOH    C211919   6.921   6.286   6.653  0.4939 -0.8122 -0.2569
  420ACOH    O111920   6.938   6.170   6.682 -0.5870  0.4362 -0.2001
  420ACOH    C111921   6.887   6.339   6.520 -0.5571  0.0812 -0.8457
  420ACOH    H111922   6.856   6.443   6.529  1.4162  0.5248  1.4277
  420ACOH    H211923   6.810   6.274   6.479 -1.4255  0.2854  0.4560
  420ACOH    H311924   6.974   6.335   6.454 -0.1244 -0.8582 -0.2347
  421ACOH    H411925   5.326   2.317   5.952  1.0704 -0.2947  0.1869
  421ACOH    O211926   5.300   2.282   6.038  0.3834 -0.0604  0.0775
  421ACOH    C211927   5.309   2.379   6.131  0.2715  0.3341  0.1493
  421ACOH    O111928   5.326   2.499   6.114  0.1907 -0.6759 -0.0378
  421ACOH    C111929   5.279   2.315   6.259 -0.1747 -0.1063 -0.0602
  421ACOH    H111930   5.173   2.292   6.275  0.2063 -0.9328  1.3449
  421ACOH    H211931   5.297   2.385   6.340 -3.0042 -0.3588  0.8536
  421ACOH    H311932   5.328   2.218   6.266  1.7802  0.9569  1.1739
  424ACOH    H411933   6.793   1.907   6.289 -0.2829  1.7246  0.8136
  424ACOH    O211934   6.832   1.857   6.363  0.3581  0.4061 -0.3864
  424ACOH    C211935   6.745   1.879   6.454  0.1284  0.3965 -0.3941
  424ACOH    O111936   6.634   1.932   6.436  0.3482  0.0368 -0.0967
  424ACOH    C111937   6.802   1.835   6.590 -0.5046  0.0719  0.5771
  424ACOH    H111938   6.796   1.920   6.659  1.8503  0.3156  0.5249
  424ACOH    H211939   6.906   1.802   6.587 -0.5223  0.1516 -1.4349
  424ACOH    H311940   6.737   1.761   6.637 -0.3191  0.2560  1.1228
  425ACOH    H411941   5.233   7.713   6.922  0.6411 -0.3605  1.1012
  425ACOH    O211942   5.157   7.721   6.981 -0.0676 -0.1934  0.1758
  425ACOH    C211943   5.206   7.775   7.095  0.7722  0.4079 -0.5295
  425ACOH    O111944   5.320   7.806   7.126  0.2385 -0.0872  0.6161
  425ACOH    C111945   5.095   7.782   7.188  0.1067 -0.0349 -0.3278
  425ACOH    H111946   5.001   7.758   7.139 -1.4534 -2.1891  3.4992
  425ACOH    H211947   5.082   7.884   7.226 -1.9657  0.0559 -1.2309
  425ACOH    H311948   5.099   7.713   7.272  2.0565  0.9105  0.4078
  426ACOH    H411949   5.362   4.370   2.577  1.3210  1.5207 -0.6620
  426ACOH    O211950   5.285   4.401   2.627  0.9862  0.1461 -0.3039
  426ACOH    C211951   5.181   4.422   2.540  0.6492  0.5528  0.1226
  426ACOH    O111952   5.192   4.418   2.421 -0.3973  0.4494  0.1921
  426ACOH    C111953   5.060   4.479   2.602 -0.8046 -0.7391 -0.6017
  426ACOH    H111954   5.072   4.587   2.596  0.2982 -0.9339 -2.3868
  426ACOH    H211955   5.065   4.454   2.708 -0.4807 -0.1240 -0.4660
  426ACOH    H311956   4.960   4.469   2.561 -1.9152  1.2928  1.5047
  427ACOH    H411957   0.871   5.389   1.727 -1.5978 -0.2878 -1.2298
  427ACOH    O211958   0.857   5.485   1.722  0.0683  0.0870  0.4142
  427ACOH    C211959   0.788   5.503   1.611 -0.0298  0.2080 -0.0918
  427ACOH    O111960   0.743   5.421   1.537 -0.5575 -0.0363  1.0473
  427ACOH    C111961   0.788   5.645   1.577  0.0288  0.0223 -1.0951
  427ACOH    H111962   0.686   5.681   1.563  0.0074  0.9789  1.3584
  427ACOH    H211963   0.848   5.662   1.488  0.8262 -0.6987 -0.6996
  427ACOH    H311964   0.823   5.696   1.667  0.6216  0.2093 -1.4297
  429ACOH    H411965   4.389   6.582   8.027 -0.3019 -0.3845  0.8933
  429ACOH    O211966   4.458   6.641   8.063  0.1095 -0.5335  0.3453
  429ACOH    C211967   4.573   6.601   8.000 -0.3538 -0.3048 -0.0280
  429ACOH    O111968   4.592   6.504   7.935  0.0540  0.7349  0.0772
  429ACOH    C111969   4.682   6.697   8.021 -0.1849 -0.1055  0.2707
  429ACOH    H111970   4.713   6.698   8.126 -1.6978  1.3394  0.7226
  429ACOH    H211971   4.667   6.798   7.983  2.4416  0.0960 -0.3545
  429ACOH    H311972   4.766   6.657   7.964 -0.3228 -1.4837  0.9910
  431ACOH    H411973   5.889   2.651   5.715  0.6226  1.3282 -1.3152
  431ACOH    O211974   5.962   2.587   5.720 -0.6168 -0.0056  0.0525
  431ACOH    C211975   5.953   2.502   5.613  0.5454  0.2189  0.0993
  431ACOH    O111976   5.866   2.506   5.526 -0.1448 -0.8023 -0.1278
  431ACOH    C111977   6.062   2.403   5.620  0.3727  0.2290  0.3892
  431ACOH    H111978   6.054   2.352   5.716 -0.2331 -1.2099 -0.4026
  431ACOH    H211979   6.159   2.453   5.617  0.3741  0.1928 -0.3029
  431ACOH    H311980   6.042   2.329   5.542 -0.3794  0.6812  0.1555
  432ACOH    H411981   5.953   4.215   2.729  0.6083 -0.4697  0.1450
  432ACOH    O211982   5.939   4.198   2.823  0.4892 -0.0660  0.2006
  432ACOH    C211983   5.818   4.239   2.849  0.1383  0.1316 -0.4006
  432ACOH    O111984   5.745   4.300   2.772  0.1697 -0.3192 -0.2870
  432ACOH    C111985   5.767   4.183   2.979 -0.7516 -0.2006 -0.1500
  432ACOH    H111986   5.696   4.249   3.029  0.9382  0.9135  0.8366
  432ACOH    H211987   5.847   4.180   3.053  0.4082 -0.0780 -1.3773
  432ACOH    H311988   5.714   4.091   2.953  2.1093 -1.7872 -0.6562
  433ACOH    H411989   4.813   3.495   5.269 -0.0045  2.1230 -0.3351
  433ACOH    O211990   4.870   3.481   5.346 -0.0847 -0.0061 -0.6555
  433ACOH    C211991   4.943   3.593   5.367 -0.1077 -0.0996  0.5853
  433ACOH    O111992   4.931   3.701   5.307 -0.1438 -0.6797  0.3443
  433ACOH    C111993   5.032   3.582   5.484 -0.2922  0.7873 -0.1817
  433ACOH    H111994   5.134   3.610   5.456  0.8634  0.3681  3.3514
  433ACOH    H211995   5.043   3.480   5.519 -0.1468  0.8533 -0.0355
  433ACOH    H311996   4.997   3.648   5.564  0.7774  0.2013  0.7682
  435ACOH    H411997   8.526   6.820   6.344 -1.7834  0.8707 -1.8759
  435ACOH    O211998   8.552   6.735   6.303  0.3818  0.5866 -0.0274
  435ACOH    C211999   8.681   6.748   6.266 -0.0699 -0.0316  0.0445
  435ACOH    O112000   8.762   6.820   6.324 -0.1092  0.8758 -0.2448
  435ACOH    C112001   8.725   6.639   6.179  0.0576 -0.0004 -0.3511
  435ACOH    H112002   8.714   6.670   6.076  1.0573  2.0348  0.1403
  435ACOH    H212003   8.665   6.553   6.208  2.1782 -1.1607  0.7662
  435ACOH    H312004   8.831   6.619   6.198 -0.0577 -0.6276 -0.3317
  436ACOH    H412005   7.516   5.123   6.707  0.6263  0.2943  0.2573
  436ACOH    O212006   7.576   5.098   6.634  0.0303  0.0277 -0.1399
  436ACOH    C212007   7.574   4.962   6.622  0.5761 -0.0257  0.2186
  436ACOH    O112008   7.511   4.886   6.690 -0.1443  0.2565  0.0889
  436ACOH    C112009   7.661   4.922   6.506  0.2554  0.2538  0.3393
  436ACOH    H112010   7.754   4.877   6.540  0.4544  0.2107 -0.2628
  436ACOH    H212011   7.685   5.016   6.457 -0.8626  0.5356  0.3092
  436ACOH    H312012   7.607   4.856   6.438  0.4465  0.4751 -0.0275
  437ACOH    H412013   7.545   3.563   5.541  1.1628 -0.6839 -1.5430
  437ACOH    O212014   7.467   3.506   5.532 -0.0102  0.5654  0.1487
  437ACOH    C212015   7.509   3.381   5.500 -0.5782  0.1801 -0.5068
  437ACOH    O112016   7.621   3.340   5.494 -0.1777  0.2426  0.4935
  437ACOH    C112017   7.395   3.293   5.461  0.9342  0.8849 -0.5806
  437ACOH    H112018   7.296   3.331   5.487  1.2627  1.3868 -0.0698
  437ACOH    H212019   7.404   3.198   5.514 -0.4660  1.4327  0.6723
  437ACOH    H312020   7.397   3.265   5.356  0.0866 -1.1426 -0.0841
  438ACOH    H412021   1.561   4.768   6.750 -1.7004 -0.5406 -1.5966
  438ACOH    O212022   1.555   4.852   6.701 -0.1503  0.4851 -0.0940
  438ACOH    C212023   1.440   4.852   6.629  0.2847 -0.5480 -0.1315
  438ACOH    O112024   1.381   4.750   6.602  0.3984  0.4496  0.3805
  438ACOH    C112025   1.397   4.986   6.591  0.2656  0.2606  0.3814
  438ACOH    H112026   1.477   5.049   6.552 -0.8698 -1.0806 -4.3985
  438ACOH    H212027   1.352   5.033   6.678  0.2143 -0.4311  0.7367
  438ACOH    H312028   1.330   4.981   6.505  1.0698 -1.7285 -0.1542
  439ACOH    H412029   6.521   5.616   6.728 -0.6286  0.0892  0.7858
  439ACOH    O212030   6.472   5.579   6.653  0.6956 -0.2108  0.0595
  439ACOH    C212031   6.388   5.491   6.709 -0.1828 -0.6229 -0.2887
  439ACOH    O112032   6.379   5.465   6.824 -0.5356 -0.0092  0.5170
  439ACOH    C112033   6.314   5.411   6.603  0.6976 -0.1217 -0.0000
  439ACOH    H112034   6.207   5.417   6.622  0.9120  1.6683  0.7140
  439ACOH    H212035   6.346   5.308   6.615 -1.3823 -0.7684  0.0633
  439ACOH    H312036   6.341   5.453   6.506  3.4440  0.1010  0.8047
  440ACOH    H412037   4.549   4.786   5.921  0.7436  1.1870 -0.6864
  440ACOH    O212038   4.512   4.849   5.986  0.2737 -0.2295  0.4559
  440ACOH    C212039   4.534   4.799   6.108  0.0821  0.3080 -0.6141
  440ACOH    O112040   4.593   4.694   6.127 -0.0311 -0.5702  0.2492
  440ACOH    C112041   4.472   4.878   6.227  0.2733 -0.8352 -0.4150
  440ACOH    H112042   4.365   4.862   6.228  0.5184 -2.5644 -0.7486
  440ACOH    H212043   4.490   4.985   6.211 -0.6812 -1.0915 -3.4781
  440ACOH    H312044   4.513   4.853   6.325  1.7048 -0.8088 -0.9889
  441ACOH    H412045   4.606   8.385   7.595 -0.2576 -1.7926 -0.1692
  441ACOH    O212046   4.605   8.392   7.692 -0.5643  0.8867 -0.3246
  441ACOH    C212047   4.701   8.318   7.748  0.2132 -0.5804  0.1204
  441ACOH    O112048   4.770   8.239   7.688  0.2230 -0.0418 -0.5041
  441ACOH    C112049   4.694   8.323   7.893 -0.2768 -0.0042  0.0145
  441ACOH    H112050   4.659   8.225   7.925  2.4542  0.0068  3.2804
  441ACOH    H212051   4.625   8.403   7.923 -0.0904 -0.2126  1.0174
  441ACOH    H312052   4.789   8.351   7.938 -1.7473  1.1426  2.5814
  442ACOH    H412053   0.444   1.956   8.263  0.7093 -0.4238 -0.3781
  442ACOH    O212054   0.348   1.945   8.268  0.6067  0.1144 -1.1726
  442ACOH    C212055   0.292   1.968   8.147 -0.2190 -0.1936 -0.9156
  442ACOH    O112056   0.358   2.023   8.061 -0.0509  0.0908  0.5749
  442ACOH    C112057   0.145   1.957   8.142 -0.8493 -0.2521  0.5601
  442ACOH    H112058   0.125   1.926   8.039 -0.9888  1.0361  0.1878
  442ACOH    H212059   0.092   2.049   8.166 -1.6384 -0.4115 -0.5154
  442ACOH    H312060   0.116   1.883   8.216 -2.4190  0.5399  0.7539
  443ACOH    H412061   6.837   3.021   3.771 -3.9738 -0.4701  0.2859
  443ACOH    O212062   6.819   3.082   3.697  0.6492  0.3415 -0.3530
  443ACOH    C212063   6.706   3.142   3.728  0.1434  0.5804  0.6687
  443ACOH    O112064   6.649   3.132   3.832 -0.7875  0.0717 -0.2463
  443ACOH    C112065   6.650   3.219   3.619 -0.4494 -0.6969 -0.2480
  443ACOH    H112066   6.555   3.267   3.641 -0.3804 -0.6223 -0.1131
  443ACOH    H212067   6.634   3.154   3.533  0.2534  1.6757 -2.2198
  443ACOH    H312068   6.718   3.300   3.593 -0.9763  0.4906  1.9498
  444ACOH    H412069   4.881   8.868   4.364  0.3578 -0.3917  0.7777
  444ACOH    O212070   4.896   8.793   4.304 -0.0803  0.4197 -0.3839
  444ACOH    C212071   4.977   8.837   4.210  0.3025 -0.0567  0.1829
  444ACOH    O112072   5.013   8.956   4.191 -0.4729  0.3371  0.4228
  444ACOH    C112073   5.031   8.730   4.121  0.1122 -0.1032  0.0397
  444ACOH    H112074   5.111   8.772   4.059  0.5487 -0.8942  0.0605
  444ACOH    H212075   4.945   8.706   4.060 -0.2575 -0.1243  0.5633
  444ACOH    H312076   5.061   8.647   4.185  1.8259  1.4904  1.3930
  446ACOH    H412077   9.604   9.086   4.434  1.7026  1.0862 -1.2669
  446ACOH    O212078   9.606   9.181   4.455  0.3340  0.8434  0.0107
  446ACOH    C212079   9.686   9.252   4.383 -0.6632 -0.6924 -0.3364
  446ACOH    O112080   9.772   9.213   4.311  0.0419 -0.2020  0.3721
  446ACOH    C112081   9.679   9.386   4.430 -0.7420  0.0184 -0.2770
  446ACOH    H112082   9.577   9.414   4.457 -0.7528  0.3837 -0.6977
  446ACOH    H212083   9.715   9.461   4.360 -0.5987  0.0375 -0.1834
  446ACOH    H312084   9.738   9.406   4.519  1.7580  0.7095 -2.0446
  447ACOH    H412085   3.509   5.969   0.366  1.5148 -0.0953 -0.8058
  447ACOH    O212086   3.483   5.880   0.395 -0.1295  0.4595 -0.5837
  447ACOH    C212087   3.352   5.875   0.377  0.3696 -0.6296 -0.1863
  447ACOH    O112088   3.274   5.964   0.368 -0.5098 -0.0451  0.1102
  447ACOH    C112089   3.294   5.737   0.390  0.1420  0.2683  0.5703
  447ACOH    H112090   3.284   5.717   0.497 -0.7579 -1.0271  0.2507
  447ACOH    H212091   3.364   5.664   0.351 -2.1537 -0.8127 -1.6940
  447ACOH    H312092   3.196   5.727   0.344 -0.3877 -0.5555  1.8716
  448ACOH    H412093   5.267   2.654   5.759 -0.4185 -3.2869 -0.8014
  448ACOH    O212094   5.350   2.649   5.810 -0.8200  0.7380  0.3620
  448ACOH    C212095   5.372   2.756   5.889  0.5824  0.2393 -0.1749
  448ACOH    O112096   5.279   2.828   5.921  0.2244 -0.7002 -0.1262
  448ACOH    C112097   5.514   2.769   5.923 -0.5598 -0.3768  0.3637
  448ACOH    H112098   5.539   2.700   6.003 -0.8764  0.2891  1.0436
  448ACOH    H212099   5.534   2.868   5.964  2.8933 -1.1501  0.6477
  448ACOH    H312100   5.580   2.761   5.837 -1.7045 -0.9282 -0.4774
  449ACOH    H412101   5.648   0.325   1.226 -1.9873  1.6677 -0.3931
  449ACOH    O212102   5.610   0.241   1.194 -0.3389  0.5943  0.3630
  449ACOH    C212103   5.703   0.153   1.205 -0.0727  0.7163  0.8658
  449ACOH    O112104   5.820   0.169   1.200  0.5578  0.3560  0.5232
  449ACOH    C112105   5.643   0.020   1.173 -0.1868 -0.4307 -0.4379
  449ACOH    H112106   5.629   0.012   1.065 -1.3663  1.9707 -0.5048
  449ACOH    H212107   5.542   0.009   1.214  0.5041  0.3275  1.5256
  449ACOH    H312108   5.702  -0.065   1.206  1.4713  1.1069  0.6178
  450ACOH    H412109   6.753   6.134   7.287 -0.2470  0.5801  0.1368
  450ACOH    O212110   6.668   6.087   7.289 -0.3119  0.7026  0.2480
  450ACOH    C212111   6.669   6.009   7.178 -0.6899 -0.1464 -0.3066
  450ACOH    O112112   6.725   6.034   7.077  0.2236 -0.2792 -0.1229
  450ACOH    C112113   6.574   5.901   7.200 -0.2067  0.3214 -0.1096
  450ACOH    H112114   6.633   5.811   7.187 -2.2771 -1.2261  0.8530
  450ACOH    H212115   6.498   5.904   7.122  0.6605 -2.7832 -1.1676
  450ACOH    H312116   6.525   5.906   7.298  0.0963  0.8804  0.0142
  451ACOH    H412117   4.464   7.399   1.165  2.2240 -1.8722 -2.1765
  451ACOH    O212118   4.491   7.476   1.113  0.9376  0.0346 -0.1102
  451ACOH    C212119   4.527   7.588   1.192  0.3711  0.2741 -0.2718
  451ACOH    O112120   4.529   7.582   1.315  0.2567  0.0693  0.7428
  451ACOH    C112121   4.592   7.696   1.112 -0.0119 -0.8817 -0.5810
  451ACOH    H112122   4.697   7.664   1.114  0.0227 -0.7076  1.0911
  451ACOH    H212123   4.574   7.789   1.164 -0.1126 -0.2433 -1.7398
  451ACOH    H312124   4.558   7.699   1.008  0.2201  0.6876 -0.6239
  452ACOH    H412125   5.897   1.290   5.424 -0.9617 -3.0083 -0.2187
  452ACOH    O212126   5.949   1.272   5.344  0.3318 -0.1500 -0.0832
  452ACOH    C212127   5.877   1.351   5.252 -0.3160  0.7859 -0.7257
  452ACOH    O112128   5.763   1.388   5.264 -0.7728  0.3595 -0.4736
  452ACOH    C112129   5.946   1.351   5.122  0.6933  0.2697 -0.2738
  452ACOH    H112130   5.886   1.378   5.036  0.1284 -0.2016 -0.0277
  452ACOH    H212131   5.986   1.251   5.106 -1.6970 -0.3189 -2.9434
  452ACOH    H312132   6.035   1.415   5.124 -0.1206  1.4096 -0.1012
  453ACOH    H412133   8.679   4.104   5.634  1.5787 -0.8338 -0.1132
  453ACOH    O212134   8.740   4.177   5.619  0.1776  0.4605  0.4042
  453ACOH    C212135   8.793   4.155   5.497  0.0012 -0.6019 -0.2762
  453ACOH    O112136   8.763   4.057   5.432 -0.6674 -0.2339 -0.2451
  453ACOH    C112137   8.840   4.278   5.436  0.0452 -0.3779  0.0258
  453ACOH    H112138   8.887   4.258   5.339 -0.3531  1.8311 -0.6445
  453ACOH    H212139   8.913   4.335   5.493 -0.8166 -0.9319  1.7125
  453ACOH    H312140   8.751   4.337   5.416  0.8119  0.9197  0.3477
  454ACOH    H412141   5.225   7.221   1.440 -1.1843  0.3399 -2.4880
  454ACOH    O212142   5.221   7.315   1.465 -0.2006 -0.1247 -0.4124
  454ACOH    C212143   5.245   7.398   1.363  0.5402 -0.6577 -0.0570
  454ACOH    O112144   5.169   7.487   1.330 -0.1610  0.5901  0.1459
  454ACOH    C112145   5.330   7.355   1.254  0.0117  0.4210 -0.1545
  454ACOH    H112146   5.273   7.287   1.190  0.7795 -1.6624  1.3026
  454ACOH    H212147   5.421   7.312   1.297 -1.5474 -2.0729  0.8110
  454ACOH    H312148   5.366   7.438   1.194  2.3764  1.2410  2.2922
  455ACOH    H412149   4.013   6.710   5.568 -0.3511 -0.9387  0.2393
  455ACOH    O212150   4.089   6.695   5.628 -0.0100 -0.3456 -0.0446
  455ACOH    C212151   4.192   6.713   5.544 -0.4377  0.8044 -0.6987
  455ACOH    O112152   4.181   6.735   5.425  0.5752 -0.2741  0.2526
  455ACOH    C112153   4.321   6.712   5.610 -0.4454  0.1356 -0.4346
  455ACOH    H112154   4.326   6.614   5.657  1.5551 -0.7242 -2.3463
  455ACOH    H212155   4.315   6.795   5.681 -2.0593  1.0640 -1.6270
  455ACOH    H312156   4.402   6.725   5.538  1.1645 -1.1994  1.1095
  457ACOH    H412157   9.329   9.940   7.491  0.7148 -0.5683 -0.2101
  457ACOH    O212158   9.360   9.854   7.523 -0.3440 -0.9171 -0.1273
  457ACOH    C212159   9.373   9.768   7.423 -0.5189 -0.0215  0.1954
  457ACOH    O112160   9.349   9.798   7.306 -0.2348  0.1059 -0.1183
  457ACOH    C112161   9.422   9.634   7.461 -0.2158 -0.2250 -0.0370
  457ACOH    H112162   9.531   9.629   7.458 -0.1015  2.2166 -0.9195
  457ACOH    H212163   9.388   9.552   7.398 -1.2035 -1.3069  1.8577
  457ACOH    H312164   9.378   9.611   7.558 -1.0908  0.2910 -0.3057
  459ACOH    H412165   4.024   7.002   6.168 -1.3773  1.4641  0.9418
  459ACOH    O212166   3.999   6.998   6.075 -0.2011  0.4436  0.6582
  459ACOH    C212167   3.945   6.876   6.055  0.5347 -0.2340 -0.1829
  459ACOH    O112168   3.873   6.817   6.133 -0.0969 -0.0624 -0.4413
  459ACOH    C112169   3.930   6.845   5.911 -0.4188 -0.6893  0.0169
  459ACOH    H112170   3.909   6.944   5.870  1.4229 -0.4484 -0.3821
  459ACOH    H212171   3.838   6.788   5.897 -1.5114  1.2542 -0.8178
  459ACOH    H312172   4.017   6.800   5.862 -0.0900 -0.8128  0.7072
  460ACOH    H412173   7.702   4.811   5.421 -0.5292 -2.2775 -1.0870
  460ACOH    O212174   7.738   4.852   5.340  0.1208  0.1192  0.3533
  460ACOH    C212175   7.717   4.767   5.235  0.3823 -0.3742  0.1774
  460ACOH    O112176   7.659   4.659   5.232  0.4688  0.4569  0.3534
  460ACOH    C112177   7.761   4.831   5.108  0.2962  0.1889 -0.4883
  460ACOH    H112178   7.868   4.851   5.116  0.8603 -2.6357 -0.2678
  460ACOH    H212179   7.704   4.923   5.098  1.5582  1.0883  0.4635
  460ACOH    H312180   7.746   4.756   5.031 -1.5420 -0.3134  0.3237
  461ACOH    H412181   6.600   9.342   8.279  0.1254  0.1375  1.5957
  461ACOH    O212182   6.591   9.252   8.315 -0.3181 -0.1864  0.6964
  461ACOH    C212183   6.711   9.196   8.297 -0.1277  0.3055 -0.1312
  461ACOH    O112184   6.817   9.232   8.253 -0.0440 -0.1478 -0.4865
  461ACOH    C112185   6.700   9.054   8.343  0.1020  0.2735 -0.4103
  461ACOH    H112186   6.615   9.003   8.299 -0.5286  0.3947  0.6723
  461ACOH    H212187   6.678   9.067   8.448  0.4259  1.7747 -0.5199
  461ACOH    H312188   6.794   9.001   8.327  2.5520  4.2136  0.1350
  462ACOH    H412189   6.260   7.743   7.648 -0.2829  0.7381 -0.4492
  462ACOH    O212190   6.302   7.810   7.705 -0.0664 -0.3284  0.6430
  462ACOH    C212191   6.314   7.920   7.632 -0.3388 -0.0892 -0.8471
  462ACOH    O112192   6.259   7.946   7.522  0.5946  0.0524  0.8216
  462ACOH    C112193   6.405   8.019   7.699  0.5521  0.8128  0.7439
  462ACOH    H112194   6.358   8.117   7.702 -0.1705  0.4309  2.9372
  462ACOH    H212195   6.495   8.026   7.639 -1.0378 -1.5847 -2.0883
  462ACOH    H312196   6.421   7.990   7.803 -0.7623  2.1832  1.3487
  463ACOH    H412197   9.566   2.520   8.131  0.2119  0.3085  0.4254
  463ACOH    O212198   9.543   2.605   8.171  0.1569  0.4462  0.0999
  463ACOH    C212199   9.444   2.594   8.267  0.0474 -0.8996 -0.0638
  463ACOH    O112200   9.391   2.492   8.302  0.4666  0.5192  0.2667
  463ACOH    C112201   9.431   2.714   8.355 -0.3623 -0.0143  0.3675
  463ACOH    H112202   9.328   2.730   8.386 -0.7261 -0.5838 -0.5052
  463ACOH    H212203   9.460   2.806   8.304 -0.0728 -0.3461 -0.0780
  463ACOH    H312204   9.491   2.711   8.445 -0.5035 -0.8630  0.4344
  464ACOH    H412205   7.229   1.841   7.895 -0.0475 -1.4196 -0.0169
  464ACOH    O212206   7.133   1.856   7.906  0.0222 -0.4782 -0.6422
  464ACOH    C212207   7.086   1.809   8.020 -0.9934 -0.3670 -1.1263
  464ACOH    O112208   7.145   1.748   8.108 -0.6383 -0.0802  0.1646
  464ACOH    C112209   6.954   1.872   8.036  0.0014 -0.4688 -0.4939
  464ACOH    H112210   6.875   1.813   7.990 -1.1823 -0.4688  1.4644
  464ACOH    H212211   6.963   1.966   7.983 -4.0766  0.3382  0.1283
  464ACOH    H312212   6.920   1.897   8.137  0.8012 -1.1605 -0.0378
  465ACOH    H412213   5.344   2.178   2.245 -3.3163 -1.8486  0.6483
  465ACOH    O212214   5.367   2.144   2.334  0.2617  0.1270  0.6079
  465ACOH    C212215   5.274   2.189   2.419  0.2912  0.1424 -0.1127
  465ACOH    O112216   5.184   2.266   2.400 -0.1070  0.4164  0.0682
  465ACOH    C112217   5.300   2.138   2.554  0.2021 -0.3095 -0.2719
  465ACOH    H112218   5.348   2.208   2.622 -2.3143 -0.2291  1.5098
  465ACOH    H212219   5.364   2.051   2.534  2.6506  1.2696  0.4646
  465ACOH    H312220   5.205   2.108   2.598 -0.6547  0.4349 -1.6145
  466ACOH    H412221   3.770   7.121   6.760  0.9040 -0.7515  1.0232
  466ACOH    O212222   3.701   7.082   6.816 -0.4460  0.1067 -0.0180
  466ACOH    C212223   3.581   7.114   6.762 -0.0355  0.1695  0.4670
  466ACOH    O112224   3.557   7.180   6.660 -0.6710  0.1883 -0.0124
  466ACOH    C112225   3.475   7.052   6.841  0.0144 -0.4513  0.9993
  466ACOH    H112226   3.410   7.130   6.880 -1.3249 -0.1065 -1.7808
  466ACOH    H212227   3.507   6.983   6.919  0.1233 -2.2623 -0.6027
  466ACOH    H312228   3.414   6.987   6.778  0.0849  0.8268 -0.4083
  467ACOH    H412229   4.745   1.352   5.041 -3.1942  2.3774 -0.8867
  467ACOH    O212230   4.703   1.276   4.997  0.2168  0.2198 -0.6163
  467ACOH    C212231   4.682   1.190   5.097  0.0534 -0.3916  0.4972
  467ACOH    O112232   4.728   1.203   5.210 -0.1244  0.0177  0.1596
  467ACOH    C112233   4.591   1.082   5.063  0.8044 -0.3829  0.4417
  467ACOH    H112234   4.646   1.011   5.001  1.1407  0.4080 -0.1836
  467ACOH    H212235   4.502   1.124   5.015  0.9350 -0.9831 -0.3271
  467ACOH    H312236   4.557   1.023   5.148 -0.0428 -0.7841 -0.1665
  468ACOH    H412237   2.487   6.663   0.228 -0.6689  0.8051  1.3530
  468ACOH    O212238   2.419   6.713   0.178 -0.4045 -0.1172  0.0550
  468ACOH    C212239   2.474   6.832   0.159  0.3190 -0.8428  0.4067
  468ACOH    O112240   2.580   6.879   0.196 -0.2852 -0.2908 -0.2027
  468ACOH    C112241   2.390   6.910   0.070 -0.2143 -0.3629 -0.0124
  468ACOH    H112242   2.392   6.847  -0.019  1.5318 -0.1494 -0.1592
  468ACOH    H212243   2.435   7.006   0.041  0.0969  0.1484  2.0926
  468ACOH    H312244   2.288   6.926   0.105  0.0775  0.9116  0.3108
  469ACOH    H412245   9.349   7.539   0.538  1.7065  0.0947 -1.4667
  469ACOH    O212246   9.294   7.504   0.466 -0.6818  0.5073  0.1083
  469ACOH    C212247   9.364   7.540   0.358 -0.2623  0.1128 -0.8092
  469ACOH    O112248   9.472   7.585   0.354  0.0491  0.1634 -0.3194
  469ACOH    C112249   9.291   7.511   0.234  0.5788 -0.3622  0.2550
  469ACOH    H112250   9.317   7.407   0.210  1.3862  0.4520 -2.4909
  469ACOH    H212251   9.323   7.575   0.152  0.3291 -1.3475 -0.6309
  469ACOH    H312252   9.184   7.515   0.252  0.6165 -2.5577  1.2363
  470ACOH    H412253   6.004   7.582   5.818  1.9842  1.2751  1.2063
  470ACOH    O212254   5.990   7.536   5.902 -0.4856 -0.1547  0.0427
  470ACOH    C212255   5.866   7.484   5.901  0.7328  1.0798  0.5917
  470ACOH    O112256   5.812   7.424   5.811  0.0355  0.1059  0.7714
  470ACOH    C112257   5.815   7.454   6.033 -0.1281 -0.1848 -0.3579
  470ACOH    H112258   5.873   7.499   6.113  2.3636 -1.8246 -1.1768
  470ACOH    H212259   5.803   7.346   6.043  1.1567 -0.3559 -0.6209
  470ACOH    H312260   5.715   7.495   6.048 -0.5763 -1.6896  0.8786
  472ACOH    H412261   7.079   6.059   7.999  1.5240  0.6105  1.6144
  472ACOH    O212262   7.143   6.084   7.930  0.4253  0.2247  0.4298
  472ACOH    C212263   7.169   6.214   7.958 -0.0514  0.2999 -0.6068
  472ACOH    O112264   7.171   6.271   8.067 -0.2163  0.0597 -0.2695
  472ACOH    C112265   7.224   6.284   7.837  1.1528  1.0404 -0.6416
  472ACOH    H112266   7.137   6.319   7.781  0.7531 -0.1998 -0.7938
  472ACOH    H212267   7.288   6.215   7.783  0.3893 -0.3477  0.2103
  472ACOH    H312268   7.282   6.375   7.856 -0.2042  1.4663  1.7071
  474ACOH    H412269   4.195   5.445   7.947 -1.2436  1.9127  1.0584
  474ACOH    O212270   4.285   5.478   7.961 -0.6877  0.8324  0.1608
  474ACOH    C212271   4.369   5.391   7.902 -0.6729  0.1504  0.4516
  474ACOH    O112272   4.339   5.301   7.830  0.6919 -0.0091 -0.0462
  474ACOH    C112273   4.509   5.439   7.929 -0.0024 -0.8498 -0.1160
  474ACOH    H112274   4.512   5.473   8.033  0.5086 -1.5204  0.0877
  474ACOH    H212275   4.542   5.524   7.869 -1.5226  0.3865  0.7689
  474ACOH    H312276   4.587   5.365   7.910  1.1683  0.2817  0.1941
  475ACOH    H412277   7.261   8.210   1.722 -0.0837  0.6286  2.1282
  475ACOH    O212278   7.169   8.188   1.701  0.3854  0.2382  0.3957
  475ACOH    C212279   7.124   8.305   1.657  0.0279 -0.1979  0.6608
  475ACOH    O112280   7.188   8.411   1.652 -0.3125 -0.5166  0.5045
  475ACOH    C112281   6.977   8.300   1.644 -0.0145  0.0391  0.2104
  475ACOH    H112282   6.935   8.240   1.724  0.6895 -1.2175 -0.3537
  475ACOH    H212283   6.958   8.248   1.550  0.6122 -1.6194  0.9864
  475ACOH    H312284   6.926   8.397   1.636 -1.2993 -0.6538 -0.2342
  476ACOH    H412285   8.471   1.007   1.749 -0.6911  1.0865 -0.8764
  476ACOH    O212286   8.542   1.067   1.779 -0.0019 -0.0806 -0.0972
  476ACOH    C212287   8.582   1.048   1.904  0.1867 -0.1962 -0.3834
  476ACOH    O112288   8.532   0.970   1.984  0.0900  0.6373  0.2254
  476ACOH    C112289   8.684   1.148   1.939 -0.6715 -0.1920 -0.2452
  476ACOH    H112290   8.774   1.101   1.979 -0.2173 -0.3696 -1.4748
  476ACOH    H212291   8.648   1.220   2.013  2.1812 -0.6065  1.6419
  476ACOH    H312292   8.711   1.202   1.849  2.0292 -1.1826 -0.0837
  479ACOH    H412293   7.426   2.179   5.534  1.4586 -2.0490 -2.9901
  479ACOH    O212294   7.459   2.107   5.591  0.1558  0.3956  1.0667
  479ACOH    C212295   7.393   2.123   5.707 -0.1019 -0.2681  0.3883
  479ACOH    O112296   7.294   2.189   5.735 -0.4066 -1.3187  0.7238
  479ACOH    C112297   7.458   2.019   5.792  0.3863  0.2276 -0.9897
  479ACOH    H112298   7.564   2.038   5.779  0.0492  1.5847 -1.8747
  479ACOH    H212299   7.427   1.917   5.769 -0.2855 -0.3862  2.3488
  479ACOH    H312300   7.442   2.023   5.899  2.1250 -1.2843 -0.6409
  480ACOH    H412301   1.263   0.121   3.235 -0.4547  0.8951 -0.2532
  480ACOH    O212302   1.201   0.047   3.243  0.1937  0.3069 -0.6044
  480ACOH    C212303   1.085   0.117   3.253 -0.1758 -0.6207 -0.3481
  480ACOH    O112304   1.056   0.230   3.222 -0.1562  0.2389  0.1221
  480ACOH    C112305   0.981   0.017   3.292 -0.5304 -0.1205 -0.3023
  480ACOH    H112306   1.032  -0.079   3.287 -1.4771 -0.6008 -0.6533
  480ACOH    H212307   0.898   0.014   3.222 -0.0465 -0.1171 -0.8882
  480ACOH    H312308   0.950   0.034   3.395 -2.1326  0.2202 -0.8275
  481ACOH    H412309   9.427   5.127   5.797 -0.2531  0.7078  0.7970
  481ACOH    O212310   9.359   5.141   5.728 -0.3957  0.3946  0.8714
  481ACOH    C212311   9.301   5.017   5.707 -0.1949  0.6709 -0.1874
  481ACOH    O112312   9.273   4.933   5.792  0.3179  0.1533 -0.0066
  481ACOH    C112313   9.221   5.020   5.585  0.6537 -0.3030  1.0645
  481ACOH    H112314   9.282   5.045   5.499 -0.5044  1.9424  0.8704
  481ACOH    H212315   9.150   5.099   5.608  0.9142  0.0653  0.5985
  481ACOH    H312316   9.170   4.926   5.561 -0.4266  0.8652 -1.3764
  482ACOH    H412317   5.935   2.511   5.909 -1.6829  0.9448  0.3943
  482ACOH    O212318   5.917   2.442   5.976 -0.1346  0.1030 -0.0426
  482ACOH    C212319   5.824   2.354   5.928 -0.1696 -0.0274 -0.9665
  482ACOH    O112320   5.755   2.375   5.828 -0.1988  0.0201  0.0953
  482ACOH    C112321   5.807   2.238   6.024  0.1441 -0.6995  0.4442
  482ACOH    H112322   5.866   2.242   6.116 -0.1401  0.5426  0.5918
  482ACOH    H212323   5.822   2.139   5.981  1.0191 -0.7022  0.7374
  482ACOH    H312324   5.702   2.242   6.052 -0.9359 -0.9805 -3.2812
  483ACOH    H412325   2.105   4.403   1.880  0.6275  0.4933  0.9334
  483ACOH    O212326   2.173   4.443   1.824  0.1965 -0.1240 -0.0389
  483ACOH    C212327   2.144   4.574   1.825 -0.4580 -0.1000 -0.3444
  483ACOH    O112328   2.050   4.632   1.878 -0.4358  0.3416 -0.3141
  483ACOH    C112329   2.243   4.649   1.750  0.0188  0.1854  0.2715
  483ACOH    H112330   2.217   4.754   1.731 -1.2220  0.5238  3.4613
  483ACOH    H212331   2.249   4.591   1.658  0.6361  2.8305 -1.4336
  483ACOH    H312332   2.337   4.640   1.804  0.7491 -1.0435 -1.1641
  484ACOH    H412333   7.920   3.602   4.033 -0.2968  2.5896 -0.9722
  484ACOH    O212334   7.829   3.581   4.006 -0.1581  0.8713 -0.1902
  484ACOH    C212335   7.761   3.688   4.042 -0.4121  0.6878  0.1063
  484ACOH    O112336   7.788   3.786   4.107 -0.2958 -0.6208  0.3082
  484ACOH    C112337   7.625   3.663   3.985 -0.1467  0.5394 -0.8397
  484ACOH    H112338   7.577   3.570   4.018  1.9139  0.4912  2.2014
  484ACOH    H212339   7.638   3.653   3.878  1.6279 -0.4853 -0.5422
  484ACOH    H312340   7.560   3.746   4.012  0.6682  0.4691  1.4669
  485ACOH    H412341   3.242   9.292   6.776  1.7435 -1.1951  0.9115
  485ACOH    O212342   3.308   9.353   6.739  0.4501 -0.2321  0.1712
  485ACOH    C212343   3.361   9.414   6.842 -0.2949 -0.0194 -0.1296
  485ACOH    O112344   3.331   9.420   6.960 -0.3075  0.1238 -0.2302
  485ACOH    C112345   3.451   9.514   6.786  0.2095 -0.0518 -0.2995
  485ACOH    H112346   3.396   9.573   6.712 -1.9419 -2.9694 -1.1172
  485ACOH    H212347   3.538   9.476   6.733  0.9063  0.3865  0.5203
  485ACOH    H312348   3.481   9.584   6.864  0.4260  0.3374 -0.7319
  486ACOH    H412349   1.632   3.252   7.360  0.0342  1.0904 -0.1506
  486ACOH    O212350   1.618   3.279   7.453  0.0830  0.9399 -0.0990
  486ACOH    C212351   1.665   3.182   7.537  0.2560  0.4938  0.2215
  486ACOH    O112352   1.694   3.067   7.510  0.0532  0.3736  0.1393
  486ACOH    C112353   1.682   3.239   7.671  0.4845 -0.0815 -0.4284
  486ACOH    H112354   1.624   3.191   7.750 -0.5941 -0.2554 -1.3097
  486ACOH    H212355   1.645   3.342   7.674  4.2972  1.3404  4.5975
  486ACOH    H312356   1.787   3.233   7.698  1.0296 -1.0911 -2.6699
  487ACOH    H412357   0.756   5.497   7.839  1.9801 -0.2401  0.3201
  487ACOH    O212358   0.731   5.542   7.922  0.0964 -0.9269  0.1349
  487ACOH    C212359   0.640   5.453   7.977  0.4321 -1.0305 -0.5288
  487ACOH    O112360   0.581   5.364   7.923  0.6963  0.0804  0.1902
  487ACOH    C112361   0.604   5.502   8.114  0.0775 -0.2282 -0.4269
  487ACOH    H112362   0.674   5.468   8.190 -1.4885  0.7139  1.4912
  487ACOH    H212363   0.510   5.465   8.154  0.3533 -0.4644  0.0158
  487ACOH    H312364   0.612   5.611   8.116 -1.8252 -0.0645 -1.2161
  488ACOH    H412365   5.804   6.768   0.210 -0.3940  0.9882 -0.7458
  488ACOH    O212366   5.894   6.803   0.222 -0.1700  0.4267 -0.7584
  488ACOH    C212367   5.960   6.718   0.305 -0.8971 -0.3797 -0.0532
  488ACOH    O112368   5.948   6.601   0.321  0.2696 -0.9718 -0.8305
  488ACOH    C112369   6.084   6.790   0.353  0.3698  0.3119  0.2390
  488ACOH    H112370   6.120   6.751   0.449  1.1297 -0.4977 -0.3727
  488ACOH    H212371   6.056   6.895   0.366 -0.1149  0.5978 -2.9024
  488ACOH    H312372   6.163   6.789   0.278  0.1467  1.0671 -0.0094
  489ACOH    H412373   7.075   7.616   1.854  0.7857  0.5583 -0.2071
  489ACOH    O212374   7.104   7.564   1.777  0.2901 -0.3237  0.2023
  489ACOH    C212375   7.186   7.633   1.698  0.2681 -0.3409  0.1180
  489ACOH    O112376   7.235   7.746   1.716  0.1673  0.7311 -0.0971
  489ACOH    C112377   7.216   7.567   1.569  0.1634 -0.0628  1.4262
  489ACOH    H112378   7.204   7.630   1.481 -0.4033 -0.9640  0.8481
  489ACOH    H212379   7.151   7.483   1.546 -0.4713  0.0871  2.6828
  489ACOH    H312380   7.318   7.531   1.584  0.9989  1.6596  0.0892
  490ACOH    H412381   4.688   6.791   3.556  0.9995 -2.0830 -0.1138
  490ACOH    O212382   4.771   6.806   3.508  0.6858  0.0063 -0.0528
  490ACOH    C212383   4.793   6.695   3.436  0.0448 -0.3951  0.1079
  490ACOH    O112384   4.724   6.599   3.432  0.2107  0.3633 -0.2267
  490ACOH    C112385   4.916   6.709   3.354  0.0902 -0.1995 -0.8013
  490ACOH    H112386   4.959   6.611   3.332  1.9470  0.8463 -2.0184
  490ACOH    H212387   4.989   6.773   3.403  0.6427 -0.1814 -1.6341
  490ACOH    H312388   4.886   6.766   3.266 -0.6738  1.4265  0.4700
  492ACOH    H412389   5.882   2.754   4.389 -1.3330  0.2529  0.7759
  492ACOH    O212390   5.811   2.766   4.323 -0.5257  1.0365  0.0470
  492ACOH    C212391   5.831   2.680   4.227 -0.4970 -0.3963  0.3590
  492ACOH    O112392   5.908   2.585   4.214  0.0529 -0.4419  0.2949
  492ACOH    C112393   5.765   2.732   4.109 -0.3289  0.1814  0.4510
  492ACOH    H112394   5.657   2.727   4.119 -0.7105  3.2946 -1.4985
  492ACOH    H212395   5.795   2.687   4.014 -0.6031  1.4656 -0.2536
  492ACOH    H312396   5.788   2.839   4.104  3.1716 -0.5186 -0.4444
  493ACOH    H412397   6.380   4.423   7.975 -0.6214  0.0428  1.5168
  493ACOH    O212398   6.400   4.329   7.959  0.1219  0.3686  0.5267
  493ACOH    C212399   6.290   4.259   7.933  0.0172  0.5239 -0.4655
  493ACOH    O112400   6.180   4.310   7.911  0.4885  0.3488  0.1517
  493ACOH    C112401   6.306   4.111   7.915  0.0651 -0.5316  1.1268
  493ACOH    H112402   6.340   4.096   7.812 -0.2167  0.2751  0.9215
  493ACOH    H212403   6.214   4.055   7.933 -0.0640 -1.5706 -2.3279
  493ACOH    H312404   6.376   4.090   7.997  1.1613  0.8432  0.5577
  494ACOH    H412405   7.598   7.431   0.928 -1.3100 -0.2236 -0.9922
  494ACOH    O212406   7.583   7.335   0.938  0.5801 -0.4301  0.1288
  494ACOH    C212407   7.571   7.305   1.069  0.8828 -0.2326 -0.0349
  494ACOH    O112408   7.553   7.391   1.152  0.3715  0.6335  0.0208
  494ACOH    C112409   7.562   7.160   1.102 -0.1910 -0.2407  0.3229
  494ACOH    H112410   7.664   7.126   1.085 -0.2094 -0.5264  0.7639
  494ACOH    H212411   7.494   7.119   1.027 -1.7427 -0.7799  1.9806
  494ACOH    H312412   7.521   7.151   1.203  1.2133 -0.3320  0.8995
  496ACOH    H412413   9.390   7.188   0.482 -0.1015  0.0093 -0.2367
  496ACOH    O212414   9.318   7.154   0.538 -0.1656  0.3759 -0.0946
  496ACOH    C212415   9.207   7.201   0.470 -0.1729 -0.1310  0.1810
  496ACOH    O112416   9.205   7.207   0.350  0.2472 -1.2714 -0.0532
  496ACOH    C112417   9.090   7.199   0.560  0.4363  0.0625 -0.1688
  496ACOH    H112418   9.088   7.122   0.637  1.9234  1.3968  1.2415
  496ACOH    H212419   9.000   7.181   0.502 -0.4562 -1.5515  1.6441
  496ACOH    H312420   9.084   7.297   0.606  1.6065  0.3169 -0.5520
  497ACOH    H412421  -0.035   4.788   8.098 -0.0390  0.2928  0.1035
  497ACOH    O212422   0.029   4.816   8.030 -0.0113 -0.0928 -0.0294
  497ACOH    C212423   0.156   4.785   8.050 -0.8202  0.1396  1.1536
  497ACOH    O112424   0.196   4.726   8.148 -0.6138  0.0721 -0.1748
  497ACOH    C112425   0.256   4.821   7.940  0.2884 -0.4074  0.2285
  497ACOH    H112426   0.356   4.813   7.982  0.1234 -0.8437  0.5363
  497ACOH    H212427   0.255   4.927   7.917  1.3027 -0.1798  1.2030
  497ACOH    H312428   0.244   4.764   7.847  0.7859 -1.0224  0.5326
  498ACOH    H412429   4.855   4.556   5.512 -0.0260  2.6665  1.6334
  498ACOH    O212430   4.911   4.581   5.437 -0.0366 -0.1926  0.6239
  498ACOH    C212431   4.867   4.677   5.360  0.1664 -0.5849 -0.6145
  498ACOH    O112432   4.754   4.722   5.355  0.2696 -0.4247  0.1548
  498ACOH    C112433   4.960   4.717   5.254  0.3984  0.4138 -0.3855
  498ACOH    H112434   4.954   4.646   5.171  0.8567 -2.1842  1.7444
  498ACOH    H212435   5.064   4.719   5.284 -0.4813  0.2217  2.8322
  498ACOH    H312436   4.937   4.815   5.212  2.2380  0.8324 -0.4618
  499ACOH    H412437   6.059   7.642   6.965  0.1107 -0.7526  0.4034
  499ACOH    O212438   6.001   7.573   6.928 -0.1636 -0.1249 -0.3399
  499ACOH    C212439   5.952   7.619   6.810 -0.4937  0.4006 -0.0401
  499ACOH    O112440   5.973   7.720   6.757  0.0109 -0.1995 -0.5172
  499ACOH    C112441   5.862   7.524   6.744  0.0713  0.5412 -0.0078
  499ACOH    H112442   5.761   7.527   6.786  0.7829  0.3043  1.7638
  499ACOH    H212443   5.900   7.423   6.759 -2.6691 -0.7623 -1.4319
  499ACOH    H312444   5.859   7.543   6.637 -0.9507 -3.9213 -0.8824
  500ACOH    H412445   6.819   6.832   3.759  0.2743 -0.4685 -2.9086
  500ACOH    O212446   6.772   6.749   3.781  0.2539  0.2524 -0.0711
  500ACOH    C212447   6.816   6.717   3.903 -0.0730 -0.6038 -0.1015
  500ACOH    O112448   6.848   6.799   3.987 -0.4724  0.8983 -0.1127
  500ACOH    C112449   6.790   6.571   3.937  0.0480 -0.1236 -0.5066
  500ACOH    H112450   6.744   6.561   4.036 -0.9995  1.4640 -0.8151
  500ACOH    H212451   6.888   6.524   3.945  1.1392  2.2781  0.8636
  500ACOH    H312452   6.726   6.524   3.862  2.3632 -0.5532 -2.2613
  501ACOH    H412453   4.808   1.515   1.912  0.0236  1.4763  0.4177
  501ACOH    O212454   4.806   1.486   2.005  0.1627 -0.0335 -0.0544
  501ACOH    C212455   4.681   1.446   2.050 -0.1488  0.3224  0.4206
  501ACOH    O112456   4.581   1.463   1.985  0.1902  0.2408  0.3601
  501ACOH    C112457   4.686   1.376   2.182 -0.0850 -0.5689  0.5855
  501ACOH    H112458   4.726   1.448   2.254 -0.4648 -1.0623  1.2869
  501ACOH    H212459   4.752   1.290   2.173  0.7769  0.1977 -0.7403
  501ACOH    H312460   4.589   1.343   2.219 -1.4338  1.6625 -0.8372
  503ACOH    H412461   6.032   3.881   7.892 -1.4688 -1.6401  0.2081
  503ACOH    O212462   6.081   3.840   7.819 -0.3214  0.1990 -0.0773
  503ACOH    C212463   6.012   3.740   7.767 -0.2517  0.2325 -0.0392
  503ACOH    O112464   5.905   3.701   7.809 -0.0899  0.4040  0.6284
  503ACOH    C112465   6.065   3.683   7.638 -0.6783 -0.1432  0.5676
  503ACOH    H112466   6.168   3.713   7.622  0.0005 -1.5846  2.1013
  503ACOH    H212467   5.995   3.718   7.562  0.8501  0.9473 -0.3606
  503ACOH    H312468   6.071   3.575   7.653  3.0947 -0.0090  0.3463
  505ACOH    H412469   7.516   3.755   4.986 -0.4351 -0.8045 -2.0204
  505ACOH    O212470   7.424   3.749   5.016  0.0696  0.1024 -0.2125
  505ACOH    C212471   7.358   3.717   4.903  0.0527  0.1643 -0.0138
  505ACOH    O112472   7.398   3.679   4.796  0.4150  0.0662  0.4201
  505ACOH    C112473   7.214   3.742   4.929  0.0322  0.4766 -0.3113
  505ACOH    H112474   7.181   3.689   5.019  2.4560  1.4394  1.2145
  505ACOH    H212475   7.165   3.691   4.847  3.0086 -0.1632 -1.7578
  505ACOH    H312476   7.197   3.850   4.923 -0.2927  0.5620  1.7405
  507ACOH    H412477   5.661   8.598   3.208 -1.5811  1.8515  0.2566
  507ACOH    O212478   5.603   8.538   3.158  0.0235  0.7037 -0.2748
  507ACOH    C212479   5.605   8.592   3.029  0.2814  0.5694  0.0155
  507ACOH    O112480   5.683   8.682   2.998  0.8410  0.1230 -0.2956
  507ACOH    C112481   5.525   8.497   2.944  0.4597  0.6936  0.7029
  507ACOH    H112482   5.444   8.557   2.902  0.5085  1.7781  2.1053
  507ACOH    H212483   5.480   8.414   2.998  0.6158 -0.2040 -0.5179
  507ACOH    H312484   5.595   8.460   2.869 -1.6370 -2.1274  0.0775
  508ACOH    H412485   2.903   9.036   4.586 -0.5702  1.6367  0.1483
  508ACOH    O212486   2.834   8.995   4.642  0.0338  0.0645 -0.2138
  508ACOH    C212487   2.899   8.953   4.754  0.3722 -1.0081 -0.0900
  508ACOH    O112488   3.014   8.983   4.777  0.3311 -0.0609  0.7723
  508ACOH    C112489   2.798   8.902   4.849  0.0478  0.2985  0.2583
  508ACOH    H112490   2.738   8.824   4.802  0.2529  0.8949 -1.0247
  508ACOH    H212491   2.723   8.981   4.862  0.1376  0.1310  1.8567
  508ACOH    H312492   2.835   8.872   4.947  0.4448 -1.9327 -0.5560
  510ACOH    H412493   5.998   7.288   3.229 -1.8227  1.6304 -2.7006
  510ACOH    O212494   5.916   7.268   3.276  0.1890  0.2141  0.4146
  510ACOH    C212495   5.949   7.207   3.393 -0.1072  0.1819 -0.4257
  510ACOH    O112496   6.054   7.201   3.451 -0.0015 -0.4545 -0.3418
  510ACOH    C112497   5.827   7.178   3.478 -0.0276 -0.4124  0.7672
  510ACOH    H112498   5.761   7.264   3.469 -1.0968 -1.4082 -1.3114
  510ACOH    H212499   5.838   7.143   3.581  0.6552 -1.1277  0.4555
  510ACOH    H312500   5.771   7.100   3.427 -1.1135  0.1107  1.1310
  511ACOH    H412501   5.256   1.650   4.013  0.0327  0.8423 -2.0146
  511ACOH    O212502   5.341   1.613   3.983  0.0505 -0.3980 -0.5416
  511ACOH    C212503   5.418   1.720   3.959  0.0679 -0.1901  0.7390
  511ACOH    O112504   5.396   1.831   4.008  0.2494 -0.2178  0.7567
  511ACOH    C112505   5.519   1.711   3.857  0.0437  0.3540 -0.0699
  511ACOH    H112506   5.484   1.640   3.781  0.3996  0.1626 -0.0549
  511ACOH    H212507   5.614   1.665   3.885  0.2691  0.1211 -1.1884
  511ACOH    H312508   5.534   1.803   3.801  2.4555 -0.2249 -0.4249
  512ACOH    H412509   6.849   8.622   1.780  1.0169 -0.9942  1.2815
  512ACOH    O212510   6.772   8.568   1.805  0.3829 -0.7368 -0.0758
  512ACOH    C212511   6.663   8.651   1.781 -0.1944  0.8444  0.7387
  512ACOH    O112512   6.671   8.773   1.771 -0.3725  0.0667 -0.0155
  512ACOH    C112513   6.535   8.588   1.790 -0.6891 -0.7346  0.9755
  512ACOH    H112514   6.463   8.639   1.726 -0.4348 -0.8871  0.5671
  512ACOH    H212515   6.501   8.597   1.893 -0.1738  1.0643  1.0011
  512ACOH    H312516   6.525   8.481   1.772 -1.7027 -0.3498 -0.8588
  513ACOH    H412517   4.848   4.880   6.387  3.0089 -0.4716  1.5313
  513ACOH    O212518   4.818   4.912   6.474 -0.5034 -0.2171  0.3157
  513ACOH    C212519   4.789   4.804   6.546 -0.2666 -0.7163  0.2698
  513ACOH    O112520   4.741   4.701   6.499  0.0510 -0.3478  0.6296
  513ACOH    C112521   4.766   4.847   6.684  0.4477  0.1182  0.5631
  513ACOH    H112522   4.857   4.860   6.742  1.3341  1.4242 -1.0890
  513ACOH    H212523   4.709   4.774   6.742 -0.0023 -0.1769 -0.2441
  513ACOH    H312524   4.706   4.937   6.679 -1.9525 -1.4159  0.8741
  514ACOH    H412525   2.418   9.585   1.559  0.3207  0.3582  1.2971
  514ACOH    O212526   2.404   9.493   1.586  0.3526 -0.1347 -0.3142
  514ACOH    C212527   2.454   9.415   1.495 -0.4831 -0.0699  0.4231
  514ACOH    O112528   2.507   9.450   1.393  0.4298  1.2445 -0.3478
  514ACOH    C112529   2.443   9.274   1.547 -1.6802 -0.2424 -0.1536
  514ACOH    H112530   2.403   9.263   1.648 -2.1093 -0.0800 -0.3044
  514ACOH    H212531   2.548   9.248   1.536 -0.7090  3.0618  0.5708
  514ACOH    H312532   2.377   9.214   1.484 -0.2089 -2.2004  0.1198
  515ACOH    H412533   7.213   7.312   7.740 -0.5611  2.1005 -0.9529
  515ACOH    O212534   7.172   7.242   7.686  0.8662  0.4349  0.0570
  515ACOH    C212535   7.089   7.305   7.600  0.0576 -0.2884  0.1366
  515ACOH    O112536   7.048   7.260   7.498  0.2876  0.5095  0.3791
  515ACOH    C112537   7.086   7.451   7.606 -0.0002 -0.1644  0.7210
  515ACOH    H112538   6.996   7.485   7.555  1.1072 -0.2957 -1.3612
  515ACOH    H212539   7.170   7.492   7.550 -2.2308  1.5568 -1.4804
  515ACOH    H312540   7.090   7.493   7.706 -2.4880 -0.9730  1.2142
  516ACOH    H412541   7.914   5.692   5.842 -1.6691  0.1081 -1.0234
  516ACOH    O212542   7.910   5.596   5.854  0.6362  0.1296  0.1999
  516ACOH    C212543   7.836   5.549   5.758  0.2150 -0.1828 -0.6460
  516ACOH    O112544   7.771   5.621   5.680  0.3469 -0.6178  0.4951
  516ACOH    C112545   7.800   5.411   5.774  1.2113 -0.4955 -0.2104
  516ACOH    H112546   7.760   5.372   5.681 -1.7972 -2.2214  1.6907
  516ACOH    H212547   7.722   5.414   5.851  1.2083 -2.0985 -0.1352
  516ACOH    H312548   7.892   5.360   5.804  1.3900  0.0834  0.2551
  518ACOH    H412549   5.662   4.735   2.697  0.1999 -1.6430  0.0774
  518ACOH    O212550   5.602   4.731   2.621  0.4932 -0.0807 -0.2441
  518ACOH    C212551   5.474   4.775   2.652 -0.0194 -0.2216 -0.0738
  518ACOH    O112552   5.439   4.819   2.761  0.2878 -0.4916  0.5227
  518ACOH    C112553   5.363   4.758   2.550 -0.3426 -0.0440 -0.3792
  518ACOH    H112554   5.288   4.837   2.556 -0.2831 -0.1152  1.6300
  518ACOH    H212555   5.310   4.665   2.575 -0.5088  0.0349 -0.4306
  518ACOH    H312556   5.407   4.741   2.452 -0.2097 -1.2176 -0.1275
  519ACOH    H412557   2.547   2.133   4.719  0.7989 -0.4194 -3.0778
  519ACOH    O212558   2.625   2.190   4.725  0.2481  0.1081  0.0355
  519ACOH    C212559   2.732   2.111   4.771  0.4979  0.0652  0.8089
  519ACOH    O112560   2.721   2.007   4.833  0.0324  0.2842  0.4544
  519ACOH    C112561   2.867   2.170   4.747 -0.4434 -0.3346 -0.1114
  519ACOH    H112562   2.918   2.105   4.676 -0.8131 -1.4225  0.6069
  519ACOH    H212563   2.933   2.187   4.831 -2.0265 -0.5385  1.2021
  519ACOH    H312564   2.855   2.268   4.700 -0.2483 -0.6770 -0.8942
  520ACOH    H412565   6.208   2.073   3.271  2.2155  0.2183  0.0059
  520ACOH    O212566   6.185   2.114   3.186  0.1095 -0.2640  0.3133
  520ACOH    C212567   6.142   2.242   3.197  0.4863 -0.8282 -0.2932
  520ACOH    O112568   6.119   2.317   3.287 -0.3447  0.2363 -0.3835
  520ACOH    C112569   6.080   2.271   3.062 -0.3929  0.4714 -0.5144
  520ACOH    H112570   6.012   2.193   3.027  0.6050 -0.9059  0.5641
  520ACOH    H212571   6.162   2.269   2.991  2.3813 -0.2082  2.6123
  520ACOH    H312572   6.036   2.371   3.069 -2.0812 -0.2771 -0.1805
  521ACOH    H412573   6.146   2.555   5.238  2.2505 -2.2964  0.3597
  521ACOH    O212574   6.116   2.583   5.326  0.8717 -0.9820 -0.5106
  521ACOH    C212575   6.147   2.715   5.334 -0.2318 -0.7018 -0.4881
  521ACOH    O112576   6.242   2.764   5.279  0.5139  0.2177  0.1666
  521ACOH    C112577   6.086   2.780   5.455 -0.2210  0.0963 -0.7596
  521ACOH    H112578   6.118   2.885   5.463 -0.8971  0.1895  1.0073
  521ACOH    H212579   6.116   2.712   5.535  0.4512 -1.9073 -2.6834
  521ACOH    H312580   5.980   2.765   5.439 -0.0102 -1.2286 -0.9370
  522ACOH    H412581   4.423   5.274   5.265 -0.5346  0.3814  2.0502
  522ACOH    O212582   4.447   5.368   5.255 -0.3547  0.0821 -0.8355
  522ACOH    C212583   4.352   5.427   5.327 -0.0119 -0.4852  0.4940
  522ACOH    O112584   4.230   5.409   5.315  0.3957  0.1571 -0.3337
  522ACOH    C112585   4.395   5.524   5.428  0.1678 -0.2523  0.6814
  522ACOH    H112586   4.444   5.609   5.379  0.1287  1.5413  3.6514
  522ACOH    H212587   4.446   5.465   5.504 -0.4695 -0.9599  0.5634
  522ACOH    H312588   4.310   5.570   5.477  0.6312  1.4734 -0.0870
  523ACOH    H412589   9.812   8.668   1.487  1.9387  1.0658 -3.5064
  523ACOH    O212590   9.752   8.606   1.441  0.2329  0.0257 -0.0791
  523ACOH    C212591   9.640   8.619   1.505  0.6997 -0.3554 -0.9835
  523ACOH    O112592   9.600   8.715   1.571  0.0385  0.5371  0.0124
  523ACOH    C112593   9.538   8.528   1.457 -0.2032 -0.1574  0.3456
  523ACOH    H112594   9.584   8.439   1.415  0.3270  0.9552 -1.5031
  523ACOH    H212595   9.490   8.582   1.375 -0.0862 -1.2391 -0.4421
  523ACOH    H312596   9.462   8.498   1.529 -1.8567  3.2649  0.1216
  524ACOH    H412597   7.211   7.889   6.459 -0.4902 -0.3830 -0.4487
  524ACOH    O212598   7.274   7.828   6.500  0.1602  0.1786 -0.6093
  524ACOH    C212599   7.204   7.738   6.573 -0.5848  0.0395  0.8287
  524ACOH    O112600   7.085   7.727   6.580 -0.3049  0.1794  0.2135
  524ACOH    C112601   7.301   7.670   6.663  0.2135  0.7175 -0.0055
  524ACOH    H112602   7.299   7.562   6.649  0.6425  0.1065  4.0448
  524ACOH    H212603   7.282   7.690   6.768 -0.3567 -0.8733  0.2044
  524ACOH    H312604   7.404   7.694   6.634  0.8256  3.1023  3.7404
  525ACOH    H412605   8.429   2.720   7.362 -2.3254 -0.1712 -1.7827
  525ACOH    O212606   8.451   2.644   7.306  0.4950 -0.5288 -0.2881
  525ACOH    C212607   8.530   2.687   7.205 -0.3585  0.1451  0.6282
  525ACOH    O112608   8.574   2.801   7.200 -0.6606  0.0901  0.0777
  525ACOH    C112609   8.556   2.583   7.097 -0.5499 -0.1304  0.5347
  525ACOH    H112610   8.510   2.486   7.115 -1.0443  0.5004  2.8870
  525ACOH    H212611   8.663   2.583   7.081 -0.7992  1.8047 -1.3196
  525ACOH    H312612   8.521   2.622   7.002 -0.2627 -0.1499  0.4222
  527ACOH    H412613   6.604   7.346   3.682 -0.4541 -0.0454 -1.1997
  527ACOH    O212614   6.698   7.362   3.663 -0.2248  0.0619 -0.0222
  527ACOH    C212615   6.701   7.493   3.649 -0.6510  0.1831  0.0324
  527ACOH    O112616   6.607   7.569   3.637  0.0527  0.9260  0.1816
  527ACOH    C112617   6.843   7.534   3.649 -1.1431 -0.7138 -0.1306
  527ACOH    H112618   6.907   7.489   3.725 -2.8403  1.8788  3.0063
  527ACOH    H212619   6.853   7.642   3.661  2.1272 -1.0171  0.5954
  527ACOH    H312620   6.887   7.512   3.552  3.5693  1.9016  1.2132
  528ACOH    H412621   7.508   8.386   1.082 -1.0826  0.9787 -0.6132
  528ACOH    O212622   7.434   8.325   1.098  0.0327 -0.2060  0.1127
  528ACOH    C212623   7.350   8.384   1.183 -0.0140  0.4523 -0.2420
  528ACOH    O112624   7.369   8.497   1.232  0.2928 -0.4575 -0.4121
  528ACOH    C112625   7.221   8.309   1.194  0.7505 -0.2608 -0.0634
  528ACOH    H112626   7.145   8.348   1.126  1.1386 -0.9985 -0.9258
  528ACOH    H212627   7.185   8.314   1.297  1.9159  1.0939  0.2816
  528ACOH    H312628   7.235   8.205   1.165 -0.1955 -0.7069  1.0037
  529ACOH    H412629   7.905   4.777   4.233  1.6360  1.3186 -1.2126
  529ACOH    O212630   7.956   4.796   4.313  0.3218  0.4546 -0.1376
  529ACOH    C212631   8.068   4.725   4.289  0.2596 -0.6533 -0.3724
  529ACOH    O112632   8.071   4.609   4.254 -0.2672  0.3088  0.1293
  529ACOH    C112633   8.197   4.788   4.326 -0.3728 -0.6074  0.2879
  529ACOH    H112634   8.275   4.773   4.252 -0.3010 -1.8688  0.6172
  529ACOH    H212635   8.221   4.756   4.428 -2.0946  2.2680  1.6927
  529ACOH    H312636   8.178   4.893   4.352  1.9806  0.7558 -3.1864
  530ACOH    H412637   1.718   7.133   3.047  2.0191  0.9208  1.4198
  530ACOH    O212638   1.657   7.128   3.123  0.1013 -0.3942 -0.1548
  530ACOH    C212639   1.646   7.006   3.167  0.6377 -0.2026  0.3845
  530ACOH    O112640   1.723   6.913   3.141  0.1650  0.2051 -0.1689
  530ACOH    C112641   1.544   6.985   3.278 -0.6297 -0.6373  0.2623
  530ACOH    H112642   1.551   6.881   3.311  0.1579 -0.0600  1.9691
  530ACOH    H212643   1.444   7.012   3.245 -1.0737  0.0967  2.1496
  530ACOH    H312644   1.573   7.040   3.367  0.5577  3.4736 -2.5153
  531ACOH    H412645   1.262   4.377   8.134 -1.3159  1.1996  1.9658
  531ACOH    O212646   1.345   4.418   8.164  0.0948  0.2409 -0.4754
  531ACOH    C212647   1.418   4.331   8.242  0.2984  0.3872 -0.4248
  531ACOH    O112648   1.401   4.213   8.264 -0.0869  0.7858 -0.4085
  531ACOH    C112649   1.531   4.408   8.304 -0.3438  0.2127  0.1120
  531ACOH    H112650   1.591   4.430   8.216 -2.7628 -0.2478 -1.6979
  531ACOH    H212651   1.585   4.336   8.366 -0.5943  0.9636  1.2270
  531ACOH    H312652   1.506   4.499   8.360 -2.5658  0.8411 -1.8293
  532ACOH    H412653   5.563   8.153   7.367 -0.0907  0.6336  0.3650
  532ACOH    O212654   5.619   8.091   7.417 -0.3372  0.1351  0.0346
  532ACOH    C212655   5.567   8.108   7.540  0.5622  0.6669 -0.0102
  532ACOH    O112656   5.465   8.169   7.568 -0.5451  0.2969 -0.4571
  532ACOH    C112657   5.651   8.037   7.638  0.0654  0.1196  0.6421
  532ACOH    H112658   5.605   7.942   7.666  0.1425 -0.2029 -0.3043
  532ACOH    H212659   5.647   8.106   7.722 -1.9674 -1.0436  1.5243
  532ACOH    H312660   5.754   8.018   7.608  0.1265  0.9848  0.2895
  533ACOH    H412661   4.685   6.725   4.177  1.3991  0.0217 -0.0100
  533ACOH    O212662   4.714   6.817   4.166 -0.2218  0.5080 -0.3130
  533ACOH    C212663   4.643   6.884   4.255  0.3897 -0.4844  0.5052
  533ACOH    O112664   4.573   6.835   4.341  0.1832  0.5260 -0.3680
  533ACOH    C112665   4.673   7.027   4.249 -0.0901 -0.0834 -0.6644
  533ACOH    H112666   4.640   7.054   4.149  1.5771 -1.5906 -1.6578
  533ACOH    H212667   4.779   7.039   4.272  0.1793 -0.5459 -1.6389
  533ACOH    H312668   4.616   7.083   4.323 -1.0874 -1.0564 -0.6691
  534ACOH    H412669   5.569   2.424   2.563  0.1032 -1.1163 -0.8815
  534ACOH    O212670   5.473   2.431   2.550  0.0158  0.5889  0.3919
  534ACOH    C212671   5.452   2.551   2.503  0.0272  0.2693  0.5181
  534ACOH    O112672   5.544   2.635   2.481  0.2714 -0.4837  0.3975
  534ACOH    C112673   5.311   2.582   2.479 -0.1007 -0.0911 -0.3407
  534ACOH    H112674   5.286   2.587   2.373 -0.0519 -0.4906 -0.3720
  534ACOH    H212675   5.283   2.680   2.518  2.2557  1.0731 -1.4890
  534ACOH    H312676   5.246   2.513   2.535  0.6720  0.2157  0.9481
  535ACOH    H412677   6.994   6.551   3.653  0.5794  1.7663 -0.8904
  535ACOH    O212678   6.922   6.559   3.589 -0.3200 -0.3883 -0.1836
  535ACOH    C212679   6.943   6.461   3.498  0.1841 -0.7930 -0.9836
  535ACOH    O112680   6.995   6.357   3.516  0.4092 -0.4966  0.1923
  535ACOH    C112681   6.844   6.475   3.388 -0.1417  0.7039 -0.3140
  535ACOH    H112682   6.877   6.431   3.294 -1.0146 -1.9440  0.5702
  535ACOH    H212683   6.840   6.582   3.368 -1.2559  0.4485 -1.5381
  535ACOH    H312684   6.748   6.438   3.424  1.4283 -2.7370  0.4786
  536ACOH    H412685   6.282   5.029   2.709 -0.9310 -0.4388 -0.0943
  536ACOH    O212686   6.230   5.101   2.750  0.3456  0.3288  0.2017
  536ACOH    C212687   6.184   5.192   2.666  0.5347 -0.0680  0.5557
  536ACOH    O112688   6.199   5.204   2.545 -0.2076 -0.1063  0.2414
  536ACOH    C112689   6.113   5.294   2.743 -0.2971 -0.4877 -0.0168
  536ACOH    H112690   6.009   5.268   2.761 -0.3584 -1.6440 -1.8270
  536ACOH    H212691   6.114   5.379   2.675  1.7108 -1.8348 -1.7480
  536ACOH    H312692   6.166   5.330   2.831 -1.2998  0.0356  0.3847
  538ACOH    H412693   7.985   4.024   1.789 -1.9340 -1.7136  1.4442
  538ACOH    O212694   7.961   4.023   1.695  0.3377 -0.5664  0.8061
  538ACOH    C212695   7.869   3.924   1.690  0.5351  0.4050  0.0652
  538ACOH    O112696   7.812   3.874   1.784  0.1887  0.0058 -0.4586
  538ACOH    C112697   7.848   3.891   1.549 -0.0310 -0.2285  0.6201
  538ACOH    H112698   7.929   3.828   1.511  0.6945  1.2944 -0.4565
  538ACOH    H212699   7.831   3.976   1.482 -4.4636 -2.6754 -1.5450
  538ACOH    H312700   7.764   3.822   1.550  0.3069 -0.6448  0.5911
  539ACOH    H412701   7.284   3.744   2.163 -1.0290 -1.9772  2.2337
  539ACOH    O212702   7.216   3.812   2.181  0.1708 -0.1098 -0.0534
  539ACOH    C212703   7.140   3.825   2.071  0.6218 -0.6668  0.1713
  539ACOH    O112704   7.167   3.778   1.962 -0.2522 -0.2252 -0.2864
  539ACOH    C112705   7.030   3.922   2.089  0.1290 -0.4400 -0.1033
  539ACOH    H112706   6.955   3.890   2.161  0.2132  0.1346  0.2397
  539ACOH    H212707   6.982   3.946   1.994  1.6922  1.5127 -0.4260
  539ACOH    H312708   7.082   4.012   2.121 -1.3391  0.3245  0.1851
  540ACOH    H412709   5.319   6.049   2.272 -0.2699 -0.2129 -0.5825
  540ACOH    O212710   5.394   5.994   2.247  0.4062  0.0356  0.8271
  540ACOH    C212711   5.464   5.958   2.350 -0.2579 -0.2708 -0.4891
  540ACOH    O112712   5.437   5.987   2.465 -0.0847  0.3049  0.2109
  540ACOH    C112713   5.568   5.853   2.320  0.8150 -0.3427  0.7782
  540ACOH    H112714   5.665   5.864   2.368  1.0784 -1.1271  0.4389
  540ACOH    H212715   5.593   5.842   2.214  0.3696 -1.7524  0.8106
  540ACOH    H312716   5.537   5.752   2.347  0.3900 -0.9196 -1.7863
  541ACOH    H412717   6.949   5.653   7.173  0.1054  0.6158 -1.2271
  541ACOH    O212718   6.941   5.746   7.198 -0.3056  0.2246  0.1333
  541ACOH    C212719   6.912   5.753   7.329  0.0595 -0.2749 -0.1382
  541ACOH    O112720   6.840   5.674   7.386  0.1748  0.0536  0.3345
  541ACOH    C112721   6.944   5.883   7.385 -0.5252  0.4479  0.0019
  541ACOH    H112722   6.905   5.959   7.317 -1.0028  2.1182  2.0761
  541ACOH    H212723   7.051   5.896   7.402 -0.7244  1.0874  0.8075
  541ACOH    H312724   6.900   5.892   7.485  1.6509  1.1096  0.9443
  542ACOH    H412725   5.564   7.310   4.930 -1.4295  0.0651 -1.6451
  542ACOH    O212726   5.589   7.216   4.932  0.0037  0.4503 -0.4112
  542ACOH    C212727   5.684   7.188   5.024 -0.0244 -0.0486 -0.4992
  542ACOH    O112728   5.772   7.265   5.054  0.0880 -0.0490  0.5433
  542ACOH    C112729   5.676   7.048   5.066  0.5018 -0.2129 -0.3787
  542ACOH    H112730   5.640   6.979   4.990 -0.7966  0.6091 -0.5223
  542ACOH    H212731   5.630   7.050   5.165  1.2891 -1.9365  0.0494
  542ACOH    H312732   5.777   7.010   5.080  0.2829  0.0111  2.0489
  543ACOH    H412733   4.448   0.411   5.135  0.9541  1.2715 -0.3367
  543ACOH    O212734   4.535   0.374   5.160  0.2509  0.0044  0.2876
  543ACOH    C212735   4.524   0.238   5.135  0.2721 -0.4418 -0.0618
  543ACOH    O112736   4.436   0.182   5.072  0.2031  0.5761  0.1353
  543ACOH    C112737   4.644   0.175   5.197 -0.2241 -0.0806  0.3708
  543ACOH    H112738   4.651   0.070   5.172  0.8638  0.1319 -0.2704
  543ACOH    H212739   4.635   0.187   5.305  1.7892  2.5672  0.3063
  543ACOH    H312740   4.729   0.227   5.153 -1.6293  0.6826 -1.4963
  544ACOH    H412741   7.861   5.137   4.571 -2.0592 -1.7251  1.7567
  544ACOH    O212742   7.796   5.209   4.568 -0.3679 -0.2412  0.1107
  544ACOH    C212743   7.715   5.159   4.474  0.4808  0.7777 -0.3238
  544ACOH    O112744   7.733   5.069   4.402  0.5862  0.0950  0.1669
  544ACOH    C112745   7.604   5.257   4.467 -0.4305 -0.0891 -0.6567
  544ACOH    H112746   7.554   5.259   4.371 -1.6392  2.1732 -0.0229
  544ACOH    H212747   7.638   5.357   4.495  0.3826 -0.4036 -0.5318
  544ACOH    H312748   7.540   5.226   4.550 -0.2095 -2.2187 -1.2586
  546ACOH    H412749   4.873   4.070   5.123  0.0937 -1.1081  0.8814
  546ACOH    O212750   4.922   4.089   5.042 -0.2400 -0.6833  0.7733
  546ACOH    C212751   5.054   4.060   5.077 -0.1984  0.5346  0.3970
  546ACOH    O112752   5.089   3.947   5.109 -0.1625 -0.2695  0.3461
  546ACOH    C112753   5.147   4.156   5.006 -0.1246 -0.3784 -0.5495
  546ACOH    H112754   5.091   4.205   4.926 -2.3650  0.0524  1.2129
  546ACOH    H212755   5.243   4.110   4.980  0.1073 -0.1152 -0.1437
  546ACOH    H312756   5.171   4.237   5.074  0.9750  1.4773 -3.0903
  547ACOH    H412757   6.769   3.964   3.174  0.6843  2.3332 -3.2434
  547ACOH    O212758   6.677   3.987   3.154 -0.5356 -0.2949 -0.9550
  547ACOH    C212759   6.600   3.890   3.211 -0.1692  0.7228 -0.3429
  547ACOH    O112760   6.624   3.771   3.220  1.1547 -0.5011 -0.8339
  547ACOH    C112761   6.458   3.931   3.235  0.1880  0.6939  0.1152
  547ACOH    H112762   6.452   4.039   3.226 -0.9216  0.7624  1.4725
  547ACOH    H212763   6.426   3.894   3.333 -0.2239 -0.6795 -0.5240
  547ACOH    H312764   6.394   3.895   3.155  0.3540 -0.4685  0.4847
  548ACOH    H412765   8.423   4.543   7.784 -1.9721  1.2380  0.5489
  548ACOH    O212766   8.483   4.618   7.804 -0.4820  0.2517 -0.1466
  548ACOH    C212767   8.545   4.590   7.920 -0.2704  0.1757  0.4150
  548ACOH    O112768   8.549   4.482   7.975  0.7592  0.3333 -0.2551
  548ACOH    C112769   8.638   4.697   7.967  0.2863  0.9616 -0.3741
  548ACOH    H112770   8.718   4.713   7.894  2.1249 -0.3294  1.3134
  548ACOH    H212771   8.680   4.670   8.064 -2.1924  0.2445  0.5311
  548ACOH    H312772   8.582   4.791   7.968 -0.7521  0.4028 -2.3111
  550ACOH    H412773   6.923   5.853   6.495 -1.3449  0.9958  1.3089
  550ACOH    O212774   6.844   5.803   6.469 -0.3581  0.1323 -0.0675
  550ACOH    C212775   6.744   5.886   6.454 -0.1593 -1.0535 -0.0928
  550ACOH    O112776   6.752   6.006   6.428 -0.5397  0.4675  0.2792
  550ACOH    C112777   6.615   5.820   6.434 -0.2239 -0.2345  0.6253
  550ACOH    H112778   6.604   5.778   6.334  1.6373  1.3253 -0.2462
  550ACOH    H212779   6.531   5.890   6.441  0.8011  0.9502  1.1280
  550ACOH    H312780   6.598   5.746   6.513 -2.0310  1.3107  1.7235
  551ACOH    H412781   8.078   4.798   4.836 -0.3673  0.1772  0.0523
  551ACOH    O212782   8.067   4.774   4.743 -0.1306 -0.8659  0.2893
  551ACOH    C212783   8.080   4.639   4.753  0.2060  0.4301  0.2384
  551ACOH    O112784   8.120   4.563   4.841 -0.0085  0.1468 -0.1457
  551ACOH    C112785   8.027   4.580   4.624  0.1290 -0.4288  0.3110
  551ACOH    H112786   7.940   4.637   4.592  1.3455  1.1669 -0.2516
  551ACOH    H212787   7.984   4.483   4.646 -1.6340  0.6298  1.6915
  551ACOH    H312788   8.101   4.569   4.545  0.4189 -1.7763  0.7586
  552ACOH    H412789   8.020   8.407   4.850  0.6255  1.0384 -0.3080
  552ACOH    O212790   8.105   8.453   4.850  0.8373  0.6471  0.0011
  552ACOH    C212791   8.130   8.468   4.984 -0.3272 -0.8161 -0.1950
  552ACOH    O112792   8.059   8.422   5.074 -0.0533  0.2355  0.6124
  552ACOH    C112793   8.257   8.538   5.001 -0.1281 -0.7412 -0.5318
  552ACOH    H112794   8.329   8.487   5.065  2.1630  2.6199 -0.3382
  552ACOH    H212795   8.238   8.637   5.041 -0.5642 -0.9441 -0.2276
  552ACOH    H312796   8.301   8.563   4.905 -1.0649  1.2517 -0.4573
  553ACOH    H412797   7.291   6.400   1.098 -1.2602  2.1121  1.0518
  553ACOH    O212798   7.308   6.456   1.021  0.1477 -0.0088 -0.2338
  553ACOH    C212799   7.358   6.570   1.069  0.5133 -0.2281  0.1687
  553ACOH    O112800   7.338   6.612   1.180  0.2459  0.2029 -0.6935
  553ACOH    C112801   7.449   6.636   0.974  1.0639  0.2157 -0.1141
  553ACOH    H112802   7.526   6.570   0.935  1.4355  0.5068  0.1229
  553ACOH    H212803   7.503   6.720   1.017  2.5534 -0.3826 -0.7944
  553ACOH    H312804   7.395   6.668   0.885  0.5461 -2.9610 -1.0104
  554ACOH    H412805   7.434   1.251   2.928 -1.1286 -1.6908 -1.2291
  554ACOH    O212806   7.392   1.211   3.006 -0.3507 -0.4651 -0.1757
  554ACOH    C212807   7.262   1.213   2.972  0.0627  0.2339 -0.4293
  554ACOH    O112808   7.203   1.247   2.871  0.1043 -0.1413 -0.1747
  554ACOH    C112809   7.179   1.149   3.079  0.0518 -0.0952 -0.2218
  554ACOH    H112810   7.250   1.102   3.147 -0.2076 -0.4397 -0.1892
  554ACOH    H212811   7.100   1.085   3.038 -2.4265  1.8743  1.3185
  554ACOH    H312812   7.127   1.233   3.126 -1.2539 -0.0330 -1.7023
  555ACOH    H412813   1.988   6.767   0.395  0.6148 -0.9520 -0.8954
  555ACOH    O212814   1.894   6.749   0.378  0.2322 -0.2729  0.4717
  555ACOH    C212815   1.842   6.714   0.499  0.0685  0.0080  0.5226
  555ACOH    O112816   1.894   6.731   0.609 -0.3787 -0.0999  0.2313
  555ACOH    C112817   1.697   6.668   0.481 -0.2850 -0.4875  0.3217
  555ACOH    H112818   1.644   6.660   0.575 -0.9018  1.3995  0.1674
  555ACOH    H212819   1.709   6.568   0.439  0.1179  0.1408 -1.1014
  555ACOH    H312820   1.640   6.736   0.416  0.3888 -1.2180 -1.0668
  556ACOH    H412821   4.193   8.048   7.102 -0.0908 -2.1428 -0.1055
  556ACOH    O212822   4.187   8.025   7.008 -0.2879 -0.0460 -0.6198
  556ACOH    C212823   4.305   8.065   6.959 -0.3867  0.1437  0.1440
  556ACOH    O112824   4.399   8.124   7.014 -0.1706 -0.4581  0.1742
  556ACOH    C112825   4.322   8.020   6.824 -0.5066  0.1945  0.7120
  556ACOH    H112826   4.426   8.022   6.791 -0.6761 -1.8089 -0.0247
  556ACOH    H212827   4.270   8.094   6.764 -1.5376 -0.9745  0.1384
  556ACOH    H312828   4.283   7.919   6.808 -1.3248  0.7114 -0.6447
  557ACOH    H412829   3.885   1.076   1.793  0.0797 -0.3965 -0.6591
  557ACOH    O212830   3.934   1.160   1.788 -0.0358 -0.2706  0.2081
  557ACOH    C212831   3.870   1.254   1.864 -0.3066  0.0323  0.0165
  557ACOH    O112832   3.748   1.259   1.882  0.0390  0.4917 -0.1952
  557ACOH    C112833   3.963   1.358   1.904  0.2368  0.0679  0.0130
  557ACOH    H112834   4.064   1.327   1.876 -0.0148 -1.0791  0.3398
  557ACOH    H212835   3.960   1.378   2.011  2.1545 -0.6557  0.2194
  557ACOH    H312836   3.942   1.453   1.855 -0.6322 -0.2020 -0.1574
  558ACOH    H412837   3.007   8.886   5.107  0.1722 -1.1208  1.4329
  558ACOH    O212838   3.083   8.861   5.051 -0.2436 -0.3356  0.5116
  558ACOH    C212839   3.180   8.956   5.066  0.1453  0.4671  0.1643
  558ACOH    O112840   3.165   9.047   5.140 -0.0130 -0.5113  0.1499
  558ACOH    C112841   3.307   8.929   4.988 -0.2733 -0.6509  0.1387
  558ACOH    H112842   3.285   8.897   4.886  2.9704  0.2344 -0.9034
  558ACOH    H212843   3.363   8.854   5.043 -1.6948 -1.1481  0.9241
  558ACOH    H312844   3.358   9.025   4.973 -2.0313  0.6797  2.3551
  559ACOH    H412845   6.872   6.209   0.700 -0.7116 -0.5992 -0.3493
  559ACOH    O212846   6.871   6.246   0.790  0.0023 -0.3285 -0.4502
  559ACOH    C212847   6.992   6.264   0.827 -0.5676 -0.2657  0.7228
  559ACOH    O112848   7.090   6.200   0.783  0.3343 -0.5660  0.0693
  559ACOH    C112849   7.006   6.338   0.955  0.0983 -0.0395  0.5467
  559ACOH    H112850   6.909   6.372   0.990 -0.4715  2.7214 -3.4188
  559ACOH    H212851   7.068   6.424   0.934 -0.4115 -0.5803 -3.4312
  559ACOH    H312852   7.041   6.272   1.035  3.0658  0.0912 -0.5924
  561ACOH    H412853   9.285   9.460   2.893 -1.1571 -0.8034  0.4579
  561ACOH    O212854   9.267   9.444   2.799  0.2214 -0.2199  0.0814
  561ACOH    C212855   9.245   9.564   2.755  0.6749 -0.6456  0.2089
  561ACOH    O112856   9.279   9.673   2.808 -0.4453  0.3883  0.4491
  561ACOH    C112857   9.225   9.573   2.614  0.2669 -0.5083  0.0306
  561ACOH    H112858   9.211   9.475   2.568  3.8740 -0.4944 -1.2756
  561ACOH    H212859   9.303   9.620   2.554  1.7583 -2.3526  0.4724
  561ACOH    H312860   9.131   9.628   2.603  0.6003 -0.0896 -0.7539
  562ACOH    H412861   4.904   8.717   0.602 -0.0987  1.3635  0.0115
  562ACOH    O212862   4.856   8.750   0.525 -0.4818  0.5273 -0.1119
  562ACOH    C212863   4.850   8.652   0.426 -0.3637 -0.2837 -0.2010
  562ACOH    O112864   4.906   8.545   0.415 -0.4999  0.1625  0.0739
  562ACOH    C112865   4.771   8.708   0.310  0.3647 -0.2298  0.3858
  562ACOH    H112866   4.834   8.716   0.221 -0.3734  3.0999  0.0985
  562ACOH    H212867   4.726   8.804   0.335 -2.0261 -0.6400 -2.2188
  562ACOH    H312868   4.689   8.642   0.282 -0.3062  0.1688  1.3842
  563ACOH    H412869   6.446   9.287   2.411 -0.2809  0.7724 -0.8198
  563ACOH    O212870   6.362   9.320   2.375 -0.9469 -0.3811 -0.3434
  563ACOH    C212871   6.305   9.385   2.470  0.1608 -0.3704  0.3465
  563ACOH    O112872   6.352   9.415   2.579  0.0780  0.5558  0.7176
  563ACOH    C112873   6.173   9.437   2.428  0.6593  0.3137  0.0787
  563ACOH    H112874   6.170   9.546   2.419  0.7491  0.1925 -1.7029
  563ACOH    H212875   6.093   9.403   2.493  1.3589 -0.7711  0.3905
  563ACOH    H312876   6.153   9.392   2.330 -0.9067 -0.9553  0.9622
  564ACOH    H412877   1.391   6.520   4.121  2.3550 -2.7836 -0.4636
  564ACOH    O212878   1.371   6.534   4.026  0.4441  0.2943  0.3163
  564ACOH    C212879   1.253   6.585   4.024  0.4936  0.0866 -0.4515
  564ACOH    O112880   1.169   6.587   4.113 -0.2644  0.0179 -0.3296
  564ACOH    C112881   1.227   6.645   3.892  0.1846 -0.1334 -0.3220
  564ACOH    H112882   1.197   6.747   3.918 -0.3506 -0.3591 -0.0416
  564ACOH    H212883   1.149   6.591   3.838  1.4295 -0.4368 -1.8510
  564ACOH    H312884   1.320   6.645   3.835  1.4016 -1.2627  1.6180
  568ACOH    H412885   6.187   6.437   0.876 -1.1515  1.9359 -1.4314
  568ACOH    O212886   6.261   6.490   0.910 -0.7067  0.1969  0.4309
  568ACOH    C212887   6.240   6.490   1.042 -1.0316 -0.4803  0.1548
  568ACOH    O112888   6.149   6.440   1.112 -0.8616 -0.1173  0.6161
  568ACOH    C112889   6.350   6.556   1.113 -0.5866 -0.0195  0.7330
  568ACOH    H112890   6.418   6.618   1.054 -0.0075  0.1334  1.5635
  568ACOH    H212891   6.409   6.487   1.173  0.5324  0.0078 -0.2917
  568ACOH    H312892   6.298   6.627   1.177  0.0085  1.2053 -0.1118
  569ACOH    H412893   5.749   9.335   1.216  1.0896 -0.8264 -0.8467
  569ACOH    O212894   5.700   9.402   1.165  0.1342 -0.4525  0.5192
  569ACOH    C212895   5.760   9.515   1.199  0.0316  0.1383 -0.2335
  569ACOH    O112896   5.876   9.533   1.219 -0.2137  0.2080 -0.2581
  569ACOH    C112897   5.658   9.618   1.201  0.5142  0.8261  0.1932
  569ACOH    H112898   5.594   9.604   1.114 -0.3530  0.5308  0.8791
  569ACOH    H212899   5.709   9.714   1.191  1.6791  0.1999  0.0544
  569ACOH    H312900   5.604   9.606   1.294  0.5946 -0.2375  0.1066
  570ACOH    H412901   1.984   7.610   5.870 -1.9451  0.0725 -0.0560
  570ACOH    O212902   2.008   7.689   5.921 -0.1074 -0.5004  0.0115
  570ACOH    C212903   1.923   7.788   5.873 -0.5227 -0.0573 -0.6275
  570ACOH    O112904   1.844   7.782   5.780  0.0277  0.1081 -0.9132
  570ACOH    C112905   1.941   7.914   5.947 -0.4654 -0.0515  0.0810
  570ACOH    H112906   1.858   7.986   5.946 -0.2245  0.2233 -0.9735
  570ACOH    H212907   2.015   7.968   5.887 -2.1397 -0.1441 -2.1577
  570ACOH    H312908   1.975   7.884   6.046  0.3249 -1.6498 -0.6596
  571ACOH    H412909   6.361   2.945   3.653 -3.6382 -3.1786  0.2355
  571ACOH    O212910   6.324   3.000   3.724  0.4991  0.2407 -0.0480
  571ACOH    C212911   6.323   2.941   3.838 -0.3094  0.4821  0.7812
  571ACOH    O112912   6.287   2.827   3.853  0.0261  0.3223  0.1498
  571ACOH    C112913   6.285   3.037   3.948 -0.8531  0.3245 -0.5662
  571ACOH    H112914   6.360   3.035   4.027 -2.3791 -2.7267  0.9231
  571ACOH    H212915   6.193   3.004   3.997 -1.7502  0.4311 -2.1483
  571ACOH    H312916   6.263   3.133   3.903 -0.1068  0.1578 -1.2951
  572ACOH    H412917   7.969   9.699   0.800  0.5693  0.3999 -0.7421
  572ACOH    O212918   7.899   9.760   0.769  0.1900  0.5171  0.3487
  572ACOH    C212919   7.958   9.826   0.669  0.5512 -0.5346  0.5235
  572ACOH    O112920   8.076   9.821   0.636  0.1959 -0.2697 -0.3117
  572ACOH    C112921   7.870   9.934   0.617 -0.1882 -0.1486 -0.1440
  572ACOH    H112922   7.772   9.932   0.665  1.3101 -2.5123  2.9823
  572ACOH    H212923   7.858   9.930   0.509 -1.3643  0.7304 -0.0572
  572ACOH    H312924   7.917  10.029   0.643 -1.5377  0.6761 -0.6411
  573ACOH    H412925   1.906   9.398   7.530  0.4522  0.5936  0.2875
  573ACOH    O212926   1.825   9.451   7.541 -0.1019 -0.1736 -0.0807
  573ACOH    C212927   1.746   9.382   7.454 -0.1447 -0.8963  0.0998
  573ACOH    O112928   1.756   9.266   7.424  0.1284 -0.1533  0.1840
  573ACOH    C112929   1.619   9.454   7.428 -0.8606  0.1214  0.7232
  573ACOH    H112930   1.576   9.486   7.523 -1.4521 -1.5042  1.0156
  573ACOH    H212931   1.555   9.376   7.386  2.3752 -1.8141 -0.8060
  573ACOH    H312932   1.630   9.533   7.353 -1.2923  0.4061  0.9587
  575ACOH    H412933   7.203   7.920   8.025 -1.4919  0.8355  0.6003
  575ACOH    O212934   7.249   7.958   8.102  0.5143 -0.3724  0.0523
  575ACOH    C212935   7.229   7.882   8.213 -0.7095 -0.5299 -0.0195
  575ACOH    O112936   7.218   7.763   8.218  0.4809  0.2364  0.3577
  575ACOH    C112937   7.288   7.961   8.326  0.5496  0.4629  0.4010
  575ACOH    H112938   7.252   8.064   8.327 -0.3152  0.1762 -0.6906
  575ACOH    H212939   7.397   7.957   8.320  0.4661  0.3096 -1.2717
  575ACOH    H312940   7.260   7.912   8.419 -2.5894  1.0358 -0.1928
  576ACOH    H412941   1.677   3.577   3.407 -1.1380 -0.4925 -0.5139
  576ACOH    O212942   1.746   3.517   3.373 -0.5358 -0.1033  0.0094
  576ACOH    C212943   1.789   3.466   3.486  0.7314  0.3371  0.4108
  576ACOH    O112944   1.794   3.522   3.594  0.2484  0.5482 -0.6011
  576ACOH    C112945   1.877   3.346   3.473  0.4961 -0.2888 -0.3955
  576ACOH    H112946   1.977   3.373   3.437  0.3346  1.3014  0.3088
  576ACOH    H212947   1.844   3.272   3.401 -0.2299 -0.3029 -0.0482
  576ACOH    H312948   1.901   3.308   3.572  0.6712 -1.0468 -0.7320
  577ACOH    H412949   9.749   4.331   2.319 -0.8348  0.9784 -0.6175
  577ACOH    O212950   9.785   4.386   2.390  0.2289 -1.0053  0.3852
  577ACOH    C212951   9.793   4.315   2.500 -0.5051  0.0855  0.5440
  577ACOH    O112952   9.812   4.197   2.505  0.7813  0.2458 -0.9623
  577ACOH    C112953   9.816   4.406   2.612 -0.1425 -0.4029  0.1072
  577ACOH    H112954   9.743   4.487   2.605 -0.0379 -0.3752 -0.7132
  577ACOH    H212955   9.914   4.449   2.593 -0.2796  0.5055  1.3818
  577ACOH    H312956   9.818   4.358   2.710  0.1672  0.5834  0.5987
  578ACOH    H412957   0.866   7.169   7.388 -1.4277 -0.7701  1.0215
  578ACOH    O212958   0.861   7.257   7.429 -0.3680 -0.1283 -0.1961
  578ACOH    C212959   0.789   7.319   7.330  0.0856 -0.7074 -0.4659
  578ACOH    O112960   0.725   7.270   7.239  0.4973  0.1262 -0.5136
  578ACOH    C112961   0.775   7.470   7.362  0.2238  0.7960  0.4983
  578ACOH    H112962   0.668   7.491   7.367 -0.3069 -1.0496 -2.3494
  578ACOH    H212963   0.814   7.519   7.274 -0.2311 -2.3350 -1.5258
  578ACOH    H312964   0.829   7.499   7.452 -1.5194  1.5212  1.3414
  579ACOH    H412965   4.857   7.827   6.570  0.6311 -1.0965  0.1760
  579ACOH    O212966   4.809   7.779   6.501 -0.2813  0.1224 -0.0674
  579ACOH    C212967   4.892   7.694   6.453 -0.2748 -0.0331  0.5399
  579ACOH    O112968   5.012   7.680   6.473 -0.7607  0.0024  0.5321
  579ACOH    C112969   4.816   7.615   6.350  0.8183 -0.1632 -0.5463
  579ACOH    H112970   4.798   7.665   6.255  3.0675  2.0922  0.1634
  579ACOH    H212971   4.722   7.586   6.397  1.0261  1.1757  0.7317
  579ACOH    H312972   4.864   7.522   6.322  0.6049 -0.5514  0.3493
  580ACOH    H412973   7.572   3.907   5.444  2.3575  1.5777 -0.5855
  580ACOH    O212974   7.577   3.955   5.528  0.7531 -0.3200  0.6403
  580ACOH    C212975   7.619   3.857   5.613  0.0036 -0.9228  0.0679
  580ACOH    O112976   7.639   3.741   5.589 -0.1230  0.6706  0.0447
  580ACOH    C112977   7.608   3.916   5.751 -0.0445 -0.5083  0.4366
  580ACOH    H112978   7.625   4.023   5.745  0.0773 -0.6068 -1.0317
  580ACOH    H212979   7.686   3.861   5.803  1.9275  0.5829 -1.3311
  580ACOH    H312980   7.510   3.902   5.798 -0.3220  1.3539  0.4372
  581ACOH    H412981   5.855   2.135   8.114  0.8857 -1.0932  0.4533
  581ACOH    O212982   5.939   2.172   8.082  0.2042 -0.0997 -0.2234
  581ACOH    C212983   5.930   2.235   7.959 -0.4449  0.3183  0.0592
  581ACOH    O112984   5.825   2.269   7.912 -0.0172  0.3132 -0.1371
  581ACOH    C112985   6.055   2.222   7.887 -0.4036 -0.4340  0.4763
  581ACOH    H112986   6.039   2.227   7.779 -0.0502  2.2023  0.5060
  581ACOH    H212987   6.117   2.140   7.922 -1.3179 -0.8967  1.0150
  581ACOH    H312988   6.112   2.315   7.898 -0.4180 -0.4982  1.1205
  583ACOH    H412989   8.341   7.325   0.217  0.0612 -0.1592 -1.4043
  583ACOH    O212990   8.269   7.373   0.172 -0.5031 -0.0840 -0.4302
  583ACOH    C212991   8.254   7.479   0.249  0.6688  0.0999 -0.3718
  583ACOH    O112992   8.306   7.505   0.353  0.3734  0.1488 -0.3549
  583ACOH    C112993   8.148   7.564   0.183 -0.2790  0.3773  0.6530
  583ACOH    H112994   8.080   7.614   0.252 -1.5418 -0.0452 -0.2911
  583ACOH    H212995   8.083   7.501   0.123 -0.0423 -0.1390  0.9363
  583ACOH    H312996   8.190   7.634   0.111  1.4058 -0.6143  0.6415
  584ACOH    H412997   5.789   3.475   1.866 -0.3839  0.6308 -0.4395
  584ACOH    O212998   5.704   3.430   1.881 -0.0766  0.0710 -0.3839
  584ACOH    C212999   5.678   3.354   1.774 -0.0327 -0.1855  1.0705
  584ACOH    O113000   5.764   3.291   1.710  0.3945  0.0721  0.1822
  584ACOH    C113001   5.540   3.347   1.740  0.0192  0.2140  0.5907
  584ACOH    H113002   5.522   3.414   1.656  0.2629 -1.3940 -0.7778
  584ACOH    H213003   5.486   3.377   1.830  0.9899  3.2497  0.2114
  584ACOH    H313004   5.504   3.251   1.703 -0.8270  0.9081 -0.4389
  585ACOH    H413005   5.564   0.982   1.648 -0.3508  0.3682 -3.3459
  585ACOH    O213006   5.659   1.001   1.640 -0.0703  0.4922 -0.1771
  585ACOH    C213007   5.712   0.887   1.591 -0.4521  0.2438  0.1232
  585ACOH    O113008   5.657   0.808   1.519 -0.0942 -0.1984  0.2497
  585ACOH    C113009   5.858   0.883   1.594 -0.3149 -0.1513  0.5972
  585ACOH    H113010   5.895   0.955   1.667  0.1719  0.0962  0.1026
  585ACOH    H213011   5.891   0.915   1.495  0.7929 -0.2207  0.9367
  585ACOH    H313012   5.887   0.780   1.617 -1.7212 -1.0175 -1.4099
  586ACOH    H413013   9.401   0.479   0.958 -1.3009 -0.9988 -2.2855
  586ACOH    O213014   9.365   0.568   0.949  0.0966 -0.0866  0.4717
  586ACOH    C213015   9.343   0.592   0.818  0.3349  0.0711 -0.2046
  586ACOH    O113016   9.353   0.518   0.721  0.8656 -0.0237 -0.2936
  586ACOH    C113017   9.294   0.731   0.804 -0.5018  0.3779 -0.2528
  586ACOH    H113018   9.300   0.778   0.705 -1.0254  0.9584 -0.0117
  586ACOH    H213019   9.349   0.793   0.874  0.8888  1.1827 -1.9966
  586ACOH    H313020   9.189   0.719   0.830 -0.1210  0.5048  1.3522
  588ACOH    H413021   8.441   3.664   3.910 -2.2619 -0.3927 -0.2288
  588ACOH    O213022   8.456   3.579   3.867 -0.0424  0.1157 -0.5346
  588ACOH    C213023   8.584   3.556   3.866  0.9387 -0.0843  0.2655
  588ACOH    O113024   8.667   3.635   3.902 -0.4001  0.5473  0.2446
  588ACOH    C113025   8.613   3.428   3.800  0.0088  1.0167  0.2860
  588ACOH    H113026   8.636   3.439   3.694 -1.3088 -0.8064 -0.2203
  588ACOH    H213027   8.530   3.358   3.805 -0.0363  1.1387  1.3404
  588ACOH    H313028   8.695   3.373   3.846  0.4450  1.4881  0.0697
  589ACOH    H413029   2.919   0.816   4.148  0.0353  0.3969 -2.1734
  589ACOH    O213030   3.012   0.801   4.172 -0.3170  0.7017 -0.6021
  589ACOH    C213031   3.091   0.875   4.097 -0.8670 -0.5455  0.0924
  589ACOH    O113032   3.051   0.944   4.004  0.6139 -0.1713  0.3497
  589ACOH    C113033   3.237   0.869   4.132  0.4098  0.4126 -0.2869
  589ACOH    H113034   3.255   0.930   4.220 -3.3575  0.3204  0.6042
  589ACOH    H213035   3.303   0.899   4.050 -0.0166  0.9664 -0.4262
  589ACOH    H313036   3.265   0.769   4.166  1.1669 -0.2528 -2.7659
  590ACOH    H413037   4.622   4.412   7.741  1.2203 -1.3616 -0.9154
  590ACOH    O213038   4.638   4.442   7.650  1.1548  0.0915 -0.4614
  590ACOH    C213039   4.763   4.402   7.624  0.6057 -0.6791  0.1035
  590ACOH    O113040   4.814   4.302   7.666 -0.2380 -1.0359  0.2804
  590ACOH    C113041   4.814   4.470   7.512  0.2148 -0.4975 -0.0262
  590ACOH    H113042   4.763   4.566   7.515  0.7507 -0.1946 -0.3514
  590ACOH    H213043   4.785   4.417   7.421 -2.1551  0.9872 -0.1485
  590ACOH    H313044   4.922   4.481   7.523  0.4486  0.5894 -2.9102
  591ACOH    H413045   3.811   2.866   2.046  2.4169  1.6409 -1.9938
  591ACOH    O213046   3.872   2.866   2.121  0.1320 -0.7169 -0.0484
  591ACOH    C213047   3.796   2.842   2.226 -0.5804  0.1070 -0.5264
  591ACOH    O113048   3.682   2.798   2.228 -0.1684 -0.0040  0.9934
  591ACOH    C113049   3.874   2.865   2.348 -0.0138 -0.3135  0.2697
  591ACOH    H113050   3.856   2.972   2.363  2.1913  0.1155 -0.0136
  591ACOH    H213051   3.981   2.852   2.331 -0.5135 -1.2222 -2.3140
  591ACOH    H313052   3.844   2.815   2.440  0.7029  0.8127  1.1263
  592ACOH    H413053   9.032   7.972   4.900 -0.2411 -0.0999  0.2972
  592ACOH    O213054   8.973   7.905   4.861 -0.1142 -0.0276 -0.0233
  592ACOH    C213055   8.851   7.956   4.826 -0.2245  0.4598  0.1963
  592ACOH    O113056   8.793   8.050   4.872 -0.2343  0.1678  0.2619
  592ACOH    C113057   8.782   7.856   4.741  0.1282 -0.0602 -0.3439
  592ACOH    H113058   8.848   7.771   4.721  1.9224  1.1832  0.1128
  592ACOH    H213059   8.750   7.911   4.653 -1.8778 -1.0342 -0.2448
  592ACOH    H313060   8.692   7.824   4.792  1.1862 -0.2495  1.4478
  593ACOH    H413061   7.541   4.520   5.612 -1.2997 -1.1069  1.1872
  593ACOH    O213062   7.621   4.526   5.667 -0.5552  0.2856 -0.0056
  593ACOH    C213063   7.679   4.647   5.657 -0.7598 -0.5640 -0.2113
  593ACOH    O113064   7.650   4.739   5.588 -0.5320 -0.8659  0.0183
  593ACOH    C113065   7.789   4.661   5.755  0.0384  0.4693 -0.1190
  593ACOH    H113066   7.821   4.558   5.771 -1.4310 -0.2681 -1.7620
  593ACOH    H213067   7.767   4.713   5.848  0.2563  1.0612 -0.3952
  593ACOH    H313068   7.864   4.723   5.705  0.2417 -0.4159 -0.9429
  594ACOH    H413069   6.826   7.076   2.395 -1.5051 -4.7356  0.9254
  594ACOH    O213070   6.762   7.108   2.461 -0.1267  0.5871 -0.1036
  594ACOH    C213071   6.730   6.988   2.509 -0.1723 -0.4522  0.3938
  594ACOH    O113072   6.775   6.877   2.468 -0.5618  0.1522  0.1669
  594ACOH    C113073   6.639   6.988   2.615  0.6522  0.1977 -0.0403
  594ACOH    H113074   6.547   6.942   2.578  0.6541  0.7466 -0.7254
  594ACOH    H213075   6.625   7.094   2.640  0.3574 -0.1762  1.4580
  594ACOH    H313076   6.678   6.947   2.708 -0.0921  0.3479  0.3439
  595ACOH    H413077   5.392   6.772   1.035  0.5555  1.7883 -2.2395
  595ACOH    O213078   5.486   6.758   1.056 -0.2156 -0.3980  0.1730
  595ACOH    C213079   5.506   6.835   1.161  0.5427 -0.5658 -0.2724
  595ACOH    O113080   5.432   6.916   1.209 -0.1390 -0.3380 -0.3206
  595ACOH    C113081   5.639   6.828   1.223 -0.8540 -0.4746  0.3015
  595ACOH    H113082   5.717   6.899   1.195 -0.3612 -0.4701  1.6616
  595ACOH    H213083   5.683   6.732   1.197  1.4418  0.5590  0.2193
  595ACOH    H313084   5.642   6.819   1.332  2.1686  2.5373  0.5650
  596ACOH    H413085   4.066   6.906   8.452 -0.2748 -2.3573  0.9238
  596ACOH    O213086   4.160   6.884   8.439  0.0800 -0.3909 -0.1283
  596ACOH    C213087   4.190   6.884   8.313 -1.1621  0.0720  0.1936
  596ACOH    O113088   4.112   6.860   8.222  0.4176 -0.1779  0.0660
  596ACOH    C113089   4.339   6.859   8.284 -0.0969 -0.2611  0.3066
  596ACOH    H113090   4.379   6.926   8.208  0.2051  1.5997  2.0451
  596ACOH    H213091   4.355   6.756   8.254 -2.5772 -0.1235 -1.6437
  596ACOH    H313092   4.395   6.878   8.376 -0.9648 -1.7812  1.1645
  597ACOH    H413093   8.765   6.598   3.246  0.7753  1.3041  1.1810
  597ACOH    O213094   8.770   6.524   3.308  0.3681  0.3486  0.1040
  597ACOH    C213095   8.829   6.419   3.247 -0.3898 -0.2199 -0.2902
  597ACOH    O113096   8.861   6.415   3.129 -0.1948 -0.5133 -0.1677
  597ACOH    C113097   8.877   6.327   3.349 -0.6084 -0.2009 -0.1700
  597ACOH    H113098   8.806   6.244   3.355 -0.6797 -0.1809 -0.7366
  597ACOH    H213099   8.878   6.379   3.445  0.2514 -0.3811 -0.0759
  597ACOH    H313100   8.970   6.284   3.313 -1.0732  0.0819 -1.7213
  598ACOH    H413101   7.156   4.377   3.710  2.0080 -0.3330  0.0153
  598ACOH    O213102   7.144   4.304   3.772 -0.2208 -0.2596 -0.2712
  598ACOH    C213103   7.188   4.339   3.893  0.9691 -0.5027 -0.6704
  598ACOH    O113104   7.253   4.438   3.917 -0.5229 -0.0910  0.2168
  598ACOH    C113105   7.174   4.225   3.989  0.0844  0.7219  0.0980
  598ACOH    H113106   7.210   4.135   3.939  0.5945  0.4684  0.9191
  598ACOH    H213107   7.071   4.208   4.019  0.5539 -0.3473  1.1255
  598ACOH    H313108   7.233   4.249   4.078  1.7364  0.2977 -0.8540
  599ACOH    H413109   7.323   7.978   1.382 -0.2385  0.8483 -2.1832
  599ACOH    O213110   7.347   7.885   1.369 -0.6517  0.4154 -0.0002
  599ACOH    C213111   7.469   7.871   1.313 -0.0104  0.0752  0.1725
  599ACOH    O113112   7.528   7.954   1.249 -0.1858 -0.1301  0.4815
  599ACOH    C113113   7.511   7.735   1.319 -0.1829 -0.3321 -0.2066
  599ACOH    H113114   7.524   7.709   1.424 -1.8932 -1.6467 -0.2848
  599ACOH    H213115   7.606   7.715   1.269 -1.0180 -2.4768 -1.0060
  599ACOH    H313116   7.432   7.669   1.282  1.3749 -2.5981  0.3998
  600ACOH    H413117   1.346   9.322   7.643  0.3963 -2.5870  0.4611
  600ACOH    O213118   1.432   9.326   7.688  0.4375 -0.4840  0.2626
  600ACOH    C213119   1.505   9.226   7.643  0.5802 -0.5552 -0.1392
  600ACOH    O113120   1.474   9.145   7.559 -0.1739  0.5884 -0.6786
  600ACOH    C113121   1.608   9.196   7.740  0.0040 -0.4339  0.6177
  600ACOH    H113122   1.651   9.096   7.731 -1.0748 -0.8864  0.4684
  600ACOH    H213123   1.558   9.186   7.836  1.2048 -0.8252  1.2279
  600ACOH    H313124   1.677   9.280   7.738 -2.3462  1.6058  2.5472
  603ACOH    H413125   5.268   1.302   3.606  4.1316 -2.1248  1.1414
  603ACOH    O213126   5.230   1.233   3.549  0.5902  0.2974  0.4804
  603ACOH    C213127   5.097   1.225   3.572 -0.0146 -0.1483  0.6278
  603ACOH    O113128   5.038   1.278   3.666 -0.3381 -0.6558  0.4522
  603ACOH    C113129   5.034   1.141   3.470  0.0632 -0.0990  0.0757
  603ACOH    H113130   4.989   1.050   3.510 -0.5860 -0.3897 -1.2981
  603ACOH    H213131   5.104   1.110   3.393  0.9897  2.2577 -0.0833
  603ACOH    H313132   4.945   1.191   3.431 -0.3978  0.0345  1.2477
  605ACOH    H413133   6.643   7.842   7.374  1.0674  1.1488  2.0445
  605ACOH    O213134   6.570   7.791   7.413  0.6124  0.4270  0.2854
  605ACOH    C213135   6.625   7.670   7.418 -0.5508  0.4328 -0.7678
  605ACOH    O113136   6.726   7.626   7.363  0.0710 -0.3008  0.6207
  605ACOH    C113137   6.551   7.595   7.525  0.7489 -0.1676 -0.0366
  605ACOH    H113138   6.449   7.592   7.487  0.3426  1.9844  0.8331
  605ACOH    H213139   6.558   7.642   7.623 -1.0283  1.4249 -0.6451
  605ACOH    H313140   6.593   7.495   7.529 -0.2959 -0.6764 -1.3440
  607ACOH    H413141   7.911   3.903   5.745  0.2299  2.9048  0.8848
  607ACOH    O213142   7.935   3.879   5.836  0.7611  0.5291  0.1596
  607ACOH    C213143   8.050   3.942   5.865 -0.4569  0.1427 -1.0389
  607ACOH    O113144   8.109   4.016   5.794 -0.2916  0.3132  0.4551
  607ACOH    C113145   8.076   3.941   6.010 -0.1732 -0.4099  0.0334
  607ACOH    H113146   7.983   3.942   6.068  0.6310 -0.3259  1.3431
  607ACOH    H213147   8.148   4.010   6.053 -2.1724  0.7154  1.7033
  607ACOH    H313148   8.108   3.840   6.034  0.4128 -0.2611 -0.1235
  609ACOH    H413149   7.588   2.965   5.488 -0.9239 -0.7485 -1.9374
  609ACOH    O213150   7.504   2.991   5.531  0.1487 -0.5215  0.0943
  609ACOH    C213151   7.413   2.896   5.501  1.1511 -0.0733  0.4190
  609ACOH    O113152   7.426   2.780   5.471 -0.0407  0.6265  0.1392
  609ACOH    C113153   7.280   2.960   5.541  0.1819 -0.3809 -0.5037
  609ACOH    H113154   7.222   2.888   5.600  1.2267  0.4786  1.5972
  609ACOH    H213155   7.217   2.983   5.455 -1.0415  0.0517  0.4833
  609ACOH    H313156   7.293   3.049   5.602  0.5223 -1.8594  1.6643
  610ACOH    H413157   4.404   3.073   4.380 -0.6114 -1.7062  0.4657
  610ACOH    O213158   4.435   3.062   4.289 -0.1554 -0.4368  0.4570
  610ACOH    C213159   4.468   2.932   4.275 -0.8788  0.2439 -0.2033
  610ACOH    O113160   4.471   2.848   4.365  0.1614 -0.5714 -0.0942
  610ACOH    C113161   4.496   2.891   4.135  0.6206  0.3100  0.6176
  610ACOH    H113162   4.474   2.968   4.060 -3.2491 -2.0097 -0.7444
  610ACOH    H213163   4.433   2.805   4.115  2.8319 -0.7200 -2.4118
  610ACOH    H313164   4.603   2.878   4.116  0.5193  1.0594 -0.5380
  611ACOH    H413165   8.901   1.202   5.016 -1.8429 -0.1415  0.5697
  611ACOH    O213166   8.872   1.295   5.021 -1.0521  0.1405  0.0705
  611ACOH    C213167   8.748   1.293   5.067 -0.1436  0.6004 -0.5801
  611ACOH    O113168   8.685   1.197   5.102  0.0316  0.2824  0.1566
  611ACOH    C113169   8.681   1.424   5.053 -0.2957  1.0280 -0.6468
  611ACOH    H113170   8.745   1.501   5.096  0.5644  0.5367 -1.0489
  611ACOH    H213171   8.578   1.423   5.090  0.5045 -4.2511  1.8425
  611ACOH    H313172   8.678   1.459   4.950  1.9075 -0.0196 -1.0862
  612ACOH    H413173   3.876   1.522   4.656 -0.5297 -0.1529 -0.8981
  612ACOH    O213174   3.958   1.557   4.617 -0.1082  0.3191  0.3921
  612ACOH    C213175   3.916   1.613   4.502  0.1684 -0.6626 -0.0368
  612ACOH    O113176   3.801   1.633   4.470 -0.9924  0.7574  0.3297
  612ACOH    C113177   4.025   1.667   4.419  0.0460  0.0158  0.6914
  612ACOH    H113178   4.121   1.618   4.406  0.7577  1.3573  0.8298
  612ACOH    H213179   4.036   1.764   4.468 -2.8834 -0.6242  2.7784
  612ACOH    H313180   3.984   1.695   4.322 -0.9936 -0.5631  0.9495
  613ACOH    H413181   1.918   7.939   1.985  0.7753  2.1103 -1.0101
  613ACOH    O213182   1.875   7.981   2.061  0.4156 -0.0179 -0.0329
  613ACOH    C213183   1.920   8.107   2.065  0.3630  0.6115  0.5826
  613ACOH    O113184   1.986   8.161   1.977  0.0500  0.0862 -0.1475
  613ACOH    C113185   1.846   8.185   2.165  0.0856  0.1627 -0.0431
  613ACOH    H113186   1.779   8.254   2.113  0.7666 -2.5446 -4.8133
  613ACOH    H213187   1.911   8.231   2.239 -0.8604  0.5352  0.5782
  613ACOH    H313188   1.779   8.118   2.220  0.4585 -1.4102 -1.4654
  614ACOH    H413189   7.448   3.203   7.828  0.4831 -0.5071  0.4915
  614ACOH    O213190   7.429   3.117   7.870  0.0265 -0.5965  0.0995
  614ACOH    C213191   7.326   3.051   7.803  0.4939  0.3077 -0.7629
  614ACOH    O113192   7.254   3.103   7.717  0.6506  0.1007 -0.4879
  614ACOH    C113193   7.306   2.915   7.876  0.4653  0.5442  0.4321
  614ACOH    H113194   7.201   2.901   7.900  0.6609 -0.3010  0.8127
  614ACOH    H213195   7.356   2.919   7.973 -0.2173 -2.9513  0.9902
  614ACOH    H313196   7.346   2.829   7.822 -1.4006  0.8048 -1.4303
  616ACOH    H413197   3.568   6.503   6.012 -0.3920  0.0458  3.1557
  616ACOH    O213198   3.662   6.482   6.030  0.2729  0.4204  0.2879
  616ACOH    C213199   3.724   6.446   5.915  0.0596  0.0480 -0.0937
  616ACOH    O113200   3.710   6.506   5.808  0.1267  0.2040 -0.0237
  616ACOH    C113201   3.859   6.388   5.947  0.1792  0.7580 -0.1404
  616ACOH    H113202   3.875   6.309   5.874 -0.8326 -1.2096  1.6992
  616ACOH    H213203   3.869   6.358   6.051 -0.2418  0.5500 -0.1602
  616ACOH    H313204   3.931   6.467   5.928  1.9889 -0.9193 -0.3404
  617ACOH    H413205   4.053   3.899   5.264  0.6532  3.8364 -1.5328
  617ACOH    O213206   3.974   3.894   5.207 -0.0983  0.4902 -0.3369
  617ACOH    C213207   3.966   3.770   5.147 -0.3205  0.2086  0.6863
  617ACOH    O113208   4.048   3.683   5.139 -0.1193  0.3147 -0.2434
  617ACOH    C113209   3.834   3.767   5.082 -0.1564  0.1098  0.0470
  617ACOH    H113210   3.753   3.772   5.155  2.1949 -0.1931  2.7652
  617ACOH    H213211   3.823   3.673   5.027  0.0993 -0.4908  0.9915
  617ACOH    H313212   3.827   3.847   5.009  1.5087  1.1250  0.9698
  618ACOH    H413213   3.836   7.727   0.186  0.8237  0.7171 -1.2420
  618ACOH    O213214   3.774   7.800   0.171 -0.2751 -0.0349 -0.4546
  618ACOH    C213215   3.845   7.886   0.088 -0.0448  1.0982  0.2043
  618ACOH    O113216   3.953   7.870   0.038 -0.5006  0.3323  0.4412
  618ACOH    C113217   3.757   7.997   0.047  0.2279  0.1607 -0.0223
  618ACOH    H113218   3.711   8.043   0.135  1.2644  2.3473 -0.6029
  618ACOH    H213219   3.690   7.973  -0.036 -2.9321  1.3487  2.0712
  618ACOH    H313220   3.820   8.073   0.000  1.0896 -0.8262 -0.4751
  619ACOH    H413221   5.468   6.931   2.667  0.1740  1.4078 -0.4763
  619ACOH    O213222   5.565   6.937   2.655  0.3167 -0.3915 -0.3377
  619ACOH    C213223   5.595   6.807   2.658  0.2982 -1.2088  0.1168
  619ACOH    O113224   5.530   6.709   2.670  0.6216  0.3922  0.1497
  619ACOH    C113225   5.747   6.805   2.636 -0.5139 -1.3015  0.0966
  619ACOH    H113226   5.797   6.901   2.646 -1.4840 -0.9965  2.3793
  619ACOH    H213227   5.748   6.754   2.540 -1.5007 -0.8887 -0.1438
  619ACOH    H313228   5.789   6.743   2.715  0.1771  0.7332  1.3585
  620ACOH    H413229   3.950   5.118   6.367 -0.0961 -0.5098  0.3764
  620ACOH    O213230   3.895   5.083   6.296  0.5635 -0.1222 -0.3436
  620ACOH    C213231   3.801   4.994   6.336  1.0257  0.0791 -0.4874
  620ACOH    O113232   3.785   4.949   6.449  0.1713  0.1893 -0.4331
  620ACOH    C113233   3.710   4.968   6.217  0.8258  0.0062  0.0664
  620ACOH    H113234   3.672   4.866   6.206 -0.8765  0.7074 -0.7035
  620ACOH    H213235   3.761   4.995   6.124 -0.7643  0.5760 -0.6514
  620ACOH    H313236   3.621   5.031   6.225 -0.6480 -2.2119  1.7209
  621ACOH    H413237   0.187   1.379   1.608  3.1451  0.3684 -0.6535
  621ACOH    O213238   0.152   1.456   1.560  0.3686 -0.2872  0.2290
  621ACOH    C213239   0.020   1.433   1.546  0.0994 -0.1497  0.3275
  621ACOH    O113240  -0.047   1.376   1.629 -0.0627  0.1317  0.1788
  621ACOH    C113241  -0.031   1.514   1.436 -0.4148  0.0479  0.6603
  621ACOH    H113242  -0.122   1.559   1.475  0.2282 -0.3308  2.6938
  621ACOH    H213243  -0.049   1.462   1.342 -0.8415  2.3391 -0.5396
  621ACOH    H313244   0.036   1.592   1.400  0.2829 -0.8838 -0.0851
  623ACOH    H413245   3.482   7.606   2.504 -0.7757  1.2262  2.4664
  623ACOH    O213246   3.576   7.604   2.530 -0.1915 -0.3382  0.3591
  623ACOH    C213247   3.651   7.700   2.465  0.4680  0.6116 -0.4413
  623ACOH    O113248   3.611   7.756   2.363 -0.0557  0.1503  0.0713
  623ACOH    C113249   3.797   7.694   2.498  0.6784 -0.1100  0.0658
  623ACOH    H113250   3.839   7.633   2.418  2.1802  2.0190 -0.8269
  623ACOH    H213251   3.813   7.635   2.588 -0.5508  2.1215  1.8139
  623ACOH    H313252   3.838   7.794   2.513  0.9938 -0.4864  1.7945
  624ACOH    H413253   9.013   0.720   5.288 -0.9583  0.6487  0.2108
  624ACOH    O213254   9.013   0.669   5.371 -0.6691 -0.3287 -0.3784
  624ACOH    C213255   8.984   0.540   5.336  0.3652 -0.6160  0.1352
  624ACOH    O113256   8.938   0.511   5.228 -0.1196  0.0692  0.3771
  624ACOH    C113257   8.967   0.458   5.458 -0.2345  0.4594  0.5048
  624ACOH    H113258   8.870   0.410   5.450  0.4557 -0.9714  0.4803
  624ACOH    H213259   8.982   0.511   5.552 -2.4018  0.4825  0.8569
  624ACOH    H313260   9.037   0.374   5.455  1.7819  2.1420 -1.3125
  625ACOH    H413261   6.159   7.259   5.688 -1.6891 -0.3364 -0.8790
  625ACOH    O213262   6.127   7.266   5.779 -0.0116 -0.0809 -0.2792
  625ACOH    C213263   6.083   7.146   5.816 -0.2553  0.0649  0.3537
  625ACOH    O113264   6.123   7.041   5.768  0.0221  0.4937 -0.0268
  625ACOH    C113265   6.027   7.152   5.952 -0.0218 -0.4365  0.7632
  625ACOH    H113266   5.940   7.086   5.959 -1.5603  1.2588 -1.8040
  625ACOH    H213267   5.994   7.254   5.968 -2.5899 -0.8118 -1.8240
  625ACOH    H313268   6.096   7.112   6.027 -0.1654 -2.5868 -0.1984
  627ACOH    H413269   6.650   9.749   1.158 -0.6759  1.0025  1.5440
  627ACOH    O213270   6.561   9.730   1.125  0.0354  0.1952  0.0067
  627ACOH    C213271   6.536   9.598   1.123 -0.5736 -0.5007 -0.7986
  627ACOH    O113272   6.593   9.511   1.190  0.0497 -0.0873 -0.6310
  627ACOH    C113273   6.420   9.564   1.042  0.2484  0.3510 -0.0757
  627ACOH    H113274   6.333   9.623   1.073  0.1254  0.0140  0.2167
  627ACOH    H213275   6.384   9.461   1.041 -1.2241  0.8384  0.2715
  627ACOH    H313276   6.434   9.593   0.938 -2.0099  0.0826 -0.4959
  628ACOH    H413277   5.623   5.147   6.040 -0.5350 -0.0946 -0.5219
  628ACOH    O213278   5.682   5.224   6.037 -0.5197 -0.0821  0.1651
  628ACOH    C213279   5.797   5.167   6.008 -0.0780 -0.3262 -0.4240
  628ACOH    O113280   5.823   5.057   5.959  0.1716 -0.1949 -0.8420
  628ACOH    C113281   5.904   5.260   6.036  0.0533  0.7311  0.8290
  628ACOH    H113282   5.860   5.349   6.081 -1.8868  0.2677 -0.0980
  628ACOH    H213283   5.958   5.291   5.947 -1.2875  2.9928  0.7748
  628ACOH    H313284   5.976   5.220   6.108  1.0017  0.5981 -0.1793
  630ACOH    H413285   0.687   1.485   0.675 -0.4911 -0.7922 -0.5903
  630ACOH    O213286   0.732   1.402   0.698  0.2072 -0.2207  0.1520
  630ACOH    C213287   0.658   1.291   0.661 -0.3079  0.5771 -0.4841
  630ACOH    O113288   0.550   1.296   0.600 -0.3330 -0.6979  0.2599
  630ACOH    C113289   0.727   1.169   0.679  0.4952 -0.2231 -0.7859
  630ACOH    H113290   0.668   1.107   0.745  0.8371  1.0802  0.7892
  630ACOH    H213291   0.826   1.185   0.724  0.5667 -0.8079 -0.7376
  630ACOH    H313292   0.734   1.112   0.587 -1.0935 -1.7650  0.0230
  631ACOH    H413293   7.675   1.690   0.584  0.7615 -1.0415 -0.6412
  631ACOH    O213294   7.634   1.725   0.503  0.1621  0.8195  0.4540
  631ACOH    C213295   7.536   1.812   0.545 -0.0787  0.1011  0.3520
  631ACOH    O113296   7.537   1.882   0.646  0.4318 -0.6777 -1.0078
  631ACOH    C113297   7.444   1.849   0.433  0.6758 -0.4311  0.6471
  631ACOH    H113298   7.338   1.832   0.449  0.5061  0.3943  0.4386
  631ACOH    H213299   7.479   1.784   0.353 -1.2676 -1.5083  0.6521
  631ACOH    H313300   7.459   1.954   0.408 -1.9551 -0.6750 -2.1569
  632ACOH    H413301   5.228   0.917   0.781 -1.5459  0.1324 -0.9207
  632ACOH    O213302   5.263   0.862   0.709 -0.0820  0.6672 -0.6443
  632ACOH    C213303   5.394   0.900   0.697  0.1946  0.0904  0.4116
  632ACOH    O113304   5.451   0.995   0.751  0.7024 -0.7116  0.0982
  632ACOH    C113305   5.453   0.834   0.576 -0.7983  0.8420  0.2403
  632ACOH    H113306   5.556   0.808   0.599 -1.1521 -0.0374  0.8873
  632ACOH    H213307   5.453   0.901   0.490  1.3911  0.0126 -0.4114
  632ACOH    H313308   5.396   0.743   0.556  2.2882 -0.8498 -1.0649
  633SOL     OW13309   2.315   1.335   7.941 -0.1527  0.0149 -0.2494
  633SOL    HW113310   2.377   1.344   8.020 -0.3059  0.0926 -0.1372
  633SOL    HW213311   2.221   1.348   7.972 -0.1010  1.5770 -0.7132
  634SOL     OW13312   4.078   4.319   6.154 -0.1787 -0.5581  0.6646
  634SOL    HW113313   4.034   4.349   6.239  1.4317 -3.4026  2.6141
  634SOL    HW213314   4.176   4.338   6.160 -0.3299  1.1920 -1.5440
  635SOL     OW13315   2.472   4.313   1.530  0.2907 -0.1986  0.1485
  635SOL    HW113316   2.491   4.356   1.442 -1.9768 -1.2380 -0.9064
  635SOL    HW213317   2.373   4.315   1.547  0.6883 -0.0411  2.6718
  637SOL     OW13318   6.705   9.856   1.759  0.1230 -0.1051  0.2410
  637SOL    HW113319   6.780   9.868   1.823  0.2247 -0.1248  0.1250
  637SOL    HW213320   6.621   9.834   1.809  0.0699  0.4823  0.4124
  638SOL     OW13321   2.561   4.792   4.853 -0.0837 -0.1801 -0.6041
  638SOL    HW113322   2.624   4.736   4.908  0.5123 -0.1859 -1.2870
  638SOL    HW213323   2.586   4.784   4.757  1.5249  3.1280 -0.5189
  639SOL     OW13324   4.417   6.705   0.904  0.2947  0.0864 -0.2110
  639SOL    HW113325   4.461   6.618   0.883 -0.9786 -0.1519 -2.0040
  639SOL    HW213326   4.463   6.778   0.853  1.6742  0.5537  1.6687
  641SOL     OW13327   5.074   1.449   5.899 -0.0957 -0.1479  0.4486
  641SOL    HW113328   5.039   1.402   5.819 -1.0409  0.3908  0.5350
  641SOL    HW213329   5.111   1.382   5.964  0.5112 -0.5937 -0.3547
  642SOL     OW13330   2.909   0.870   3.517 -0.3352  0.2007 -0.6409
  642SOL    HW113331   2.951   0.781   3.496 -0.0664  0.2051 -0.1393
  642SOL    HW213332   2.890   0.875   3.615  1.4187  1.4378 -0.3406
  643SOL     OW13333   6.918   0.785   6.945  0.0224  0.5818 -0.1537
  643SOL    HW113334   6.995   0.728   6.973  1.4728  1.6619 -1.8511
  643SOL    HW213335   6.932   0.816   6.851 -2.8714  0.1472 -0.7835
  646SOL     OW13336   3.313   5.193   4.123 -0.4906  0.5135 -0.1236
  646SOL    HW113337   3.308   5.133   4.203  0.6414 -0.4621 -0.7637
  646SOL    HW213338   3.382   5.264   4.138 -0.7414  0.7203  0.0344
  647SOL     OW13339   8.654   4.026   7.750 -0.3085  0.2598 -0.2140
  647SOL    HW113340   8.585   3.974   7.701  0.8315 -0.3553 -1.1875
  647SOL    HW213341   8.692   3.970   7.824 -1.6715  1.0113  1.0782
  648SOL     OW13342   0.333   1.564   4.580  0.6896 -0.6962 -0.1509
  648SOL    HW113343   0.416   1.535   4.627  1.5437  0.4000 -0.9831
  648SOL    HW213344   0.352   1.642   4.522 -1.3143  0.7189  1.0235
  649SOL     OW13345   1.842   6.364   3.202  0.1362 -0.4429  0.3458
  649SOL    HW113346   1.754   6.352   3.248 -0.7431  0.1877 -1.1290
  649SOL    HW213347   1.873   6.458   3.212  0.6164 -0.6460  0.8056
  650SOL     OW13348   3.945   6.194   1.596 -0.2055  0.3949 -0.7196
  650SOL    HW113349   4.031   6.241   1.619  0.6719 -1.1930 -0.6342
  650SOL    HW213350   3.869   6.258   1.602  0.9877  1.8467 -0.8436
  651SOL     OW13351   2.373   3.827   3.303  0.3521  0.2017  0.3151
  651SOL    HW113352   2.409   3.771   3.377  1.1709  0.5887  0.2165
  651SOL    HW213353   2.404   3.791   3.215 -1.4843 -0.8830  0.0845
  652SOL     OW13354   1.695   2.083   2.943 -0.2856  0.2729  0.3604
  652SOL    HW113355   1.765   2.108   2.876 -0.3271  0.0709  0.2414
  652SOL    HW213356   1.609   2.130   2.921  0.2759  1.8655  1.4951
  653SOL     OW13357   6.357   0.762   2.849  0.5084 -0.5231 -0.5826
  653SOL    HW113358   6.350   0.670   2.889  2.6468 -1.2907 -1.8509
  653SOL    HW213359   6.322   0.760   2.755  1.3157 -0.2597 -0.8979
  654SOL     OW13360   0.779   3.637   7.291 -0.3088  0.0935  0.3804
  654SOL    HW113361   0.756   3.706   7.360  1.6443  3.5114 -2.2263
  654SOL    HW213362   0.702   3.626   7.228 -0.4992  0.2237  0.5914
  655SOL     OW13363   4.618   5.729   4.305 -0.6033  0.0603  0.3944
  655SOL    HW113364   4.645   5.714   4.400 -2.0328  0.4408  0.8688
  655SOL    HW213365   4.615   5.827   4.286 -1.2059  0.0092  0.2149
  656SOL     OW13366   1.407   9.640   6.374 -0.3541  0.1152 -0.3024
  656SOL    HW113367   1.392   9.609   6.468  0.3335  2.6360  0.6658
  656SOL    HW213368   1.504   9.635   6.352 -0.3488  0.8268 -0.4309
  658SOL     OW13369   0.792   3.507   0.181  0.2539 -0.3499 -0.4515
  658SOL    HW113370   0.857   3.563   0.234 -1.4729  1.4466 -0.1921
  658SOL    HW213371   0.767   3.556   0.098 -0.0458 -1.4756 -1.0238
  660SOL     OW13372   8.687   7.868   2.861  0.1049 -0.1377  0.2387
  660SOL    HW113373   8.694   7.788   2.922  2.4585 -0.6349 -0.6412
  660SOL    HW213374   8.773   7.879   2.811 -1.5784  0.6126 -2.5866
  661SOL     OW13375   2.740   0.881   4.098 -0.4225 -0.4747 -0.1077
  661SOL    HW113376   2.688   0.846   4.176 -1.8747 -1.7379 -1.5881
  661SOL    HW213377   2.763   0.977   4.113 -0.9764 -0.6114  1.7201
  662SOL     OW13378   1.277   9.050   5.228  0.5403  0.6802 -0.7543
  662SOL    HW113379   1.301   9.120   5.161 -1.5282  2.1022 -0.0669
  662SOL    HW213380   1.276   9.090   5.320 -1.3849 -0.0299 -0.4392
  663SOL     OW13381   9.905   7.690   6.149 -0.9452 -0.8737  0.3887
  663SOL    HW113382   9.979   7.634   6.112  0.0708 -0.0459  1.1301
  663SOL    HW213383   9.824   7.633   6.164 -1.0725 -1.4163 -2.1765
  665SOL     OW13384   1.033   7.348   3.304 -0.1916 -0.8856  0.5953
  665SOL    HW113385   1.058   7.411   3.230 -0.7532 -0.3174  0.8850
  665SOL    HW213386   1.105   7.281   3.316 -0.3167 -1.3052 -0.8334
  667SOL     OW13387   1.587   1.429   2.633  0.6375 -0.2651 -0.4437
  667SOL    HW113388   1.531   1.470   2.562 -0.1677 -1.1891 -0.3508
  667SOL    HW213389   1.677   1.473   2.634  0.0295  1.0269 -0.7835
  668SOL     OW13390   3.355   0.650   2.407 -0.3681 -0.3777 -0.6866
  668SOL    HW113391   3.394   0.703   2.332  0.5597 -1.6452 -1.1034
  668SOL    HW213392   3.338   0.711   2.485  1.6046  0.3520 -0.8080
  669SOL     OW13393   6.491   3.992   0.580  0.1276  0.3344  0.4755
  669SOL    HW113394   6.580   4.019   0.615  0.4113  1.0758 -0.7653
  669SOL    HW213395   6.421   4.010   0.649  0.7137  1.4391  0.7931
  670SOL     OW13396   6.874   1.647   4.270 -0.8146 -0.1355  0.1944
  670SOL    HW113397   6.942   1.715   4.295  0.4580 -1.8826  1.5832
  670SOL    HW213398   6.846   1.660   4.175  1.4423  0.6021 -0.3781
  671SOL     OW13399   2.022   3.485   2.305 -0.0610  0.1335 -0.5739
  671SOL    HW113400   2.097   3.543   2.337 -0.5326  0.5311 -0.2001
  671SOL    HW213401   2.034   3.393   2.343  1.1326 -0.2558 -1.8161
  672SOL     OW13402   6.649   2.494   0.503 -0.3294  0.1811 -0.2886
  672SOL    HW113403   6.710   2.502   0.582  0.8624 -1.5386 -0.9976
  672SOL    HW213404   6.619   2.399   0.494 -1.8504  0.7048 -0.8859
  673SOL     OW13405   3.390   0.654   1.909 -0.0814  0.0515  0.6724
  673SOL    HW113406   3.425   0.606   1.990 -0.3087 -2.2588 -0.5725
  673SOL    HW213407   3.314   0.713   1.936 -1.3822 -2.1059  1.8749
  674SOL     OW13408   2.365   8.054   3.405  0.3011 -0.1294  0.3816
  674SOL    HW113409   2.305   8.095   3.336  0.6812  0.3348  0.3200
  674SOL    HW213410   2.426   7.989   3.361  0.2132 -0.1943  0.3561
  675SOL     OW13411   1.948   9.619   6.428  0.7970  0.3352 -0.4448
  675SOL    HW113412   2.033   9.631   6.377 -0.0730  0.4611 -1.9064
  675SOL    HW213413   1.963   9.557   6.505  1.9768 -0.4197 -1.2684
  676SOL     OW13414   7.415   5.503   6.732 -0.1914  0.1631 -0.2346
  676SOL    HW113415   7.424   5.506   6.831  1.8285 -1.1917 -0.3509
  676SOL    HW213416   7.441   5.591   6.693  0.3678  0.2618  0.3565
  677SOL     OW13417   3.886   3.482   0.354  0.2857  0.0937  0.1404
  677SOL    HW113418   3.889   3.509   0.450 -2.3306  1.4561 -0.1145
  677SOL    HW213419   3.976   3.497   0.312  0.9477  1.2062  1.9127
  679SOL     OW13420   1.105   2.640   3.249 -0.3138  0.5845  0.3702
  679SOL    HW113421   1.025   2.650   3.190 -0.5857  0.9846  0.7989
  679SOL    HW213422   1.086   2.573   3.321 -0.5047  1.1891  0.8801
  680SOL     OW13423   5.176   2.932   6.165 -0.1614  0.0714 -0.4835
  680SOL    HW113424   5.197   2.904   6.071 -2.6801 -1.7424 -0.5585
  680SOL    HW213425   5.199   2.857   6.227 -0.3843  0.5045  0.1189
  681SOL     OW13426   7.289   9.805   7.087 -0.0761 -0.2211 -0.3778
  681SOL    HW113427   7.370   9.758   7.121  1.0462  0.6281 -1.8398
  681SOL    HW213428   7.213   9.740   7.081  1.5431 -1.9618 -2.7719
  682SOL     OW13429   2.556   2.976   7.118 -0.2105  0.1936  0.1492
  682SOL    HW113430   2.562   3.022   7.029  0.5667  1.7051  0.9585
  682SOL    HW213431   2.575   2.879   7.107 -2.6115 -0.1084 -1.7301
  683SOL     OW13432   2.386   1.152   5.041 -0.7600 -0.2877 -0.0321
  683SOL    HW113433   2.419   1.159   5.135 -1.0154  0.1318  0.0277
  683SOL    HW213434   2.289   1.129   5.041 -0.6816 -0.6288 -0.1986
  684SOL     OW13435   0.963   7.496   5.541 -0.2620  0.2067 -0.6654
  684SOL    HW113436   1.051   7.535   5.566 -1.2373  0.6473  2.3893
  684SOL    HW213437   0.893   7.568   5.542 -1.5637 -0.9749  2.2205
  687SOL     OW13438   6.380   9.931   1.731 -0.2254 -0.0477 -0.7017
  687SOL    HW113439   6.394   9.871   1.651  1.8491  0.2962 -0.6224
  687SOL    HW213440   6.407  10.024   1.708  1.5269 -0.1771  0.7615
  688SOL     OW13441   9.924   6.936   6.765  0.8261 -0.0556 -0.1657
  688SOL    HW113442   9.916   6.837   6.778  0.2383  0.0553  0.3338
  688SOL    HW213443   9.908   6.958   6.669  3.8013 -0.7325 -0.8395
  690SOL     OW13444   0.020   3.183   5.923 -0.8438  0.0885 -0.3578
  690SOL    HW113445   0.056   3.132   6.001 -0.3466  1.6464  0.4425
  690SOL    HW213446   0.039   3.132   5.839  1.3977 -0.1133  0.2396
  691SOL     OW13447   0.882   3.538   4.706  0.6752 -0.3233 -0.4131
  691SOL    HW113448   0.945   3.566   4.778 -0.1322  0.3770  0.0362
  691SOL    HW213449   0.833   3.456   4.734  0.2944  0.0019 -0.1181
  692SOL     OW13450   2.335   5.773   6.352  0.3246 -0.3292 -0.3208
  692SOL    HW113451   2.401   5.698   6.358  1.8292  0.9872 -0.4058
  692SOL    HW213452   2.289   5.769   6.263  1.1154 -0.5664 -0.7240
  693SOL     OW13453   0.244   5.561   1.374 -0.0741  0.5086 -0.1845
  693SOL    HW113454   0.309   5.506   1.424 -2.2497 -0.7346  1.3439
  693SOL    HW213455   0.235   5.526   1.280  0.2648 -0.2969  0.0860
  696SOL     OW13456   5.457   7.646   5.950 -0.1738  0.1641 -0.1237
  696SOL    HW113457   5.441   7.592   5.868 -0.9671 -1.5948  1.1708
  696SOL    HW213458   5.422   7.739   5.935 -0.6206 -0.2233 -1.6444
  697SOL     OW13459   2.126   4.411   0.820 -0.2993  0.4313 -0.0311
  697SOL    HW113460   2.111   4.369   0.909  1.1391 -5.3125 -2.2551
  697SOL    HW213461   2.038   4.422   0.773 -0.8642  1.6190  1.2643
  699SOL     OW13462   0.346   1.399   5.486  0.0866 -0.3025  0.0707
  699SOL    HW113463   0.389   1.475   5.436  2.3332 -0.8280  1.1236
  699SOL    HW213464   0.251   1.422   5.506  0.6852  2.1980  0.2545
  700SOL     OW13465   0.875   1.211   6.235 -0.3795  0.4462 -0.2629
  700SOL    HW113466   0.811   1.259   6.175 -1.2681  1.2027  1.2677
  700SOL    HW213467   0.827   1.183   6.319  0.6778 -1.1848 -0.1863
  701SOL     OW13468   4.418   4.642   0.707 -0.1194 -0.5913 -0.4025
  701SOL    HW113469   4.364   4.563   0.678 -0.2817 -1.4975  2.2587
  701SOL    HW213470   4.360   4.706   0.757  0.6444 -0.1847 -0.0209
  702SOL     OW13471   8.206   6.457   0.632  0.3334  0.0810 -0.2526
  702SOL    HW113472   8.186   6.409   0.547  0.7579 -0.5586  0.0053
  702SOL    HW213473   8.243   6.548   0.612 -2.3213  1.1101 -0.7468
  703SOL     OW13474   3.103   0.678   5.398  0.1503 -0.2918  0.4990
  703SOL    HW113475   3.088   0.772   5.368 -0.3553 -1.0142 -1.6158
  703SOL    HW213476   3.029   0.650   5.459 -0.5148  0.1907 -0.0775
  704SOL     OW13477   7.285   6.550   6.907  0.2157  0.0435  0.0541
  704SOL    HW113478   7.323   6.574   6.817 -0.2696 -0.8263 -0.3894
  704SOL    HW213479   7.350   6.576   6.979  0.3452  1.2852 -0.5117
  705SOL     OW13480   8.439   8.679   6.757 -0.1960 -0.0910  0.2963
  705SOL    HW113481   8.460   8.650   6.850  1.1215  0.7188  0.2706
  705SOL    HW213482   8.437   8.599   6.697  3.0024 -0.2408  0.3083
  706SOL     OW13483   9.416   8.711   3.579 -0.1380  0.0683  0.0027
  706SOL    HW113484   9.319   8.695   3.596 -0.0571 -1.0808 -0.5071
  706SOL    HW213485   9.442   8.801   3.612 -1.5219  0.6389 -0.4554
  708SOL     OW13486   5.384   3.702   0.121 -0.2759  0.4969 -0.3332
  708SOL    HW113487   5.431   3.750   0.047  0.9623 -0.6732 -0.3250
  708SOL    HW213488   5.317   3.639   0.082 -0.4794  0.7682 -0.4199
  709SOL     OW13489   4.874   7.593   3.023  0.5166  0.6422  0.0041
  709SOL    HW113490   4.960   7.545   3.005  0.1835 -1.2918  3.0813
  709SOL    HW213491   4.879   7.638   3.112 -1.9746 -0.3335  0.6877
  710SOL     OW13492   9.811   6.427   0.426  0.0451  0.4363 -0.6772
  710SOL    HW113493   9.768   6.344   0.391 -1.3609  0.7999  0.1482
  710SOL    HW213494   9.827   6.491   0.351  0.1246 -0.1275 -1.1421
  712SOL     OW13495   5.135   6.319   0.964  0.6044 -0.2370  0.1544
  712SOL    HW113496   5.081   6.334   1.047 -2.4294 -2.4010 -1.3332
  712SOL    HW213497   5.222   6.276   0.987 -0.0453 -0.4705  2.2394
  713SOL     OW13498   1.991   2.591   2.855 -0.2444  0.6464  0.7162
  713SOL    HW113499   1.916   2.641   2.899  1.1277  1.5783  2.0533
  713SOL    HW213500   2.064   2.576   2.922  0.9700  0.1910 -0.6983
  715SOL     OW13501   7.768   6.493   6.330 -0.4976  0.2486  0.3057
  715SOL    HW113502   7.790   6.530   6.420 -1.2660  0.2838  0.4853
  715SOL    HW213503   7.734   6.399   6.339  0.4857 -0.1444 -0.0543
  716SOL     OW13504   8.557   6.756   2.954 -0.4021  0.1273  0.8116
  716SOL    HW113505   8.481   6.703   2.992 -0.2446 -1.0488 -0.4781
  716SOL    HW213506   8.616   6.788   3.029  0.1369 -2.5041  1.5704
  717SOL     OW13507   7.555   8.736   2.221 -0.1099 -0.5111  0.0176
  717SOL    HW113508   7.581   8.652   2.270 -1.9373 -1.4981 -0.6831
  717SOL    HW213509   7.535   8.808   2.288  2.2551 -0.3580  0.6134
  718SOL     OW13510   9.403   7.338   4.220 -0.0002 -0.5984  0.3809
  718SOL    HW113511   9.460   7.258   4.241  0.3273 -0.1497  1.1985
  718SOL    HW213512   9.462   7.418   4.207 -0.5710  0.3923  3.5828
  719SOL     OW13513   7.309   5.954   2.139  0.2230 -1.2337  0.3548
  719SOL    HW113514   7.390   5.996   2.181 -0.4303  0.7049 -0.2695
  719SOL    HW213515   7.227   5.992   2.181 -0.3894 -1.7133 -0.4176
  720SOL     OW13516   0.836   3.023   7.346 -0.3088 -0.0821  0.2716
  720SOL    HW113517   0.909   2.962   7.315 -0.2358  0.3484 -0.4134
  720SOL    HW213518   0.839   3.107   7.293 -0.8914  0.2053  0.6969
  721SOL     OW13519   0.548   6.427   3.909  0.3487 -0.5258  0.2062
  721SOL    HW113520   0.592   6.385   3.830  1.0219 -0.3763  0.4934
  721SOL    HW213521   0.488   6.360   3.954 -0.8587 -0.2987 -1.0359
  724SOL     OW13522   2.491   0.035   0.134  0.3880 -0.3909  0.0582
  724SOL    HW113523   2.395   0.007   0.141 -0.3472  1.8748 -0.6924
  724SOL    HW213524   2.526   0.013   0.043  0.5143 -0.9853  0.2476
  725SOL     OW13525   0.664   7.462   7.908 -0.1659 -0.1136  0.1775
  725SOL    HW113526   0.696   7.369   7.926  0.4194  0.0782  0.1593
  725SOL    HW213527   0.691   7.521   7.984 -0.2367  0.1099  0.0301
  728SOL     OW13528   0.969   8.852   7.129 -0.1828 -0.2565  0.3545
  728SOL    HW113529   1.033   8.907   7.075 -0.6427 -0.7874 -0.7478
  728SOL    HW213530   0.930   8.908   7.201  1.0997  0.2306  0.6874
  729SOL     OW13531   2.128   9.310   2.846 -0.4296  0.1379 -0.0663
  729SOL    HW113532   2.188   9.345   2.918  1.2424  0.4426 -1.5718
  729SOL    HW213533   2.073   9.235   2.882 -1.2936  1.7712  2.1529
  731SOL     OW13534   4.739   3.881   2.511 -0.4793  0.0402 -0.0458
  731SOL    HW113535   4.810   3.810   2.511 -1.9023 -1.4197  0.2295
  731SOL    HW213536   4.674   3.862   2.437 -3.6860 -1.8741  3.0670
  733SOL     OW13537   2.391   0.446   1.272  0.2224 -0.0143  0.3325
  733SOL    HW113538   2.343   0.389   1.339 -0.0098 -0.2466 -0.0240
  733SOL    HW213539   2.488   0.425   1.273 -0.2724 -2.7170 -1.9970
  734SOL     OW13540   7.012   4.542   1.032  0.3206 -0.4730 -0.2711
  734SOL    HW113541   6.920   4.516   1.060  0.8648  0.1761  2.2719
  734SOL    HW213542   7.069   4.460   1.026  0.1792 -0.6380  0.5399
  735SOL     OW13543   9.134   3.606   6.768 -0.5003  0.4832  0.2428
  735SOL    HW113544   9.199   3.532   6.784 -1.0884  0.2031  1.4281
  735SOL    HW213545   9.127   3.625   6.670  0.1252 -0.6025 -0.0137
  736SOL     OW13546   2.052   4.471   2.855 -0.3360 -0.8798 -0.0433
  736SOL    HW113547   2.050   4.397   2.923  1.8533 -0.7567  0.1941
  736SOL    HW213548   2.147   4.494   2.835 -0.9920  0.1740 -1.9917
  737SOL     OW13549   0.450   5.392   7.270  0.3025 -0.0003  0.2925
  737SOL    HW113550   0.407   5.304   7.253  1.4174 -0.1653 -1.7846
  737SOL    HW213551   0.434   5.453   7.192  1.8948  0.6872  0.4945
  739SOL     OW13552   6.668   9.894   2.602  0.2517 -0.7014  0.1965
  739SOL    HW113553   6.691   9.930   2.512  2.0116 -1.2313  0.4281
  739SOL    HW213554   6.691   9.797   2.606 -1.4351 -1.0998  0.6539
  741SOL     OW13555   9.963   2.951   6.988  0.6589 -0.3759 -0.5124
  741SOL    HW113556  10.011   2.864   6.979  0.0810 -0.6328 -1.1093
  741SOL    HW213557   9.897   2.961   6.914  0.4889  0.4234 -0.2597
  742SOL     OW13558   1.524   7.371   5.151 -0.1456  0.3732  0.1250
  742SOL    HW113559   1.510   7.462   5.112 -0.2004  1.6086  2.9446
  742SOL    HW213560   1.614   7.365   5.193  0.0408 -1.0536 -0.4213
  743SOL     OW13561   0.325   1.103   0.430 -0.7064  0.3694  0.0177
  743SOL    HW113562   0.270   1.159   0.369  0.2243  1.3781  0.0871
  743SOL    HW213563   0.333   1.149   0.519 -0.7869 -0.3604  0.4067
  745SOL     OW13564   2.088   7.401   6.928 -0.0384 -0.0239 -0.3088
  745SOL    HW113565   2.034   7.468   6.978  0.4469 -0.0303  0.2328
  745SOL    HW213566   2.031   7.321   6.908 -0.0572 -0.3054  0.8288
  746SOL     OW13567   1.198   7.827   4.088 -0.7136  0.4624  0.0779
  746SOL    HW113568   1.256   7.762   4.137  0.0537 -0.6232 -2.2150
  746SOL    HW213569   1.235   7.842   3.996 -2.1409  2.4366 -0.2081
  748SOL     OW13570   5.032   8.968   7.229  0.2101 -0.6316  0.2998
  748SOL    HW113571   4.952   8.912   7.249 -0.7078  0.0508 -1.3695
  748SOL    HW213572   5.093   8.920   7.165 -0.8266  0.4281 -1.5347
  749SOL     OW13573   9.096   9.359   7.504 -0.6574  0.5890  0.8370
  749SOL    HW113574   9.109   9.296   7.580  0.4662 -2.1070 -1.4712
  749SOL    HW213575   9.001   9.388   7.500 -1.6435 -2.4797  0.8926
  750SOL     OW13576   8.142   4.637   7.835 -0.3550 -0.3860 -0.1364
  750SOL    HW113577   8.200   4.718   7.843  1.7204 -1.8140 -0.5604
  750SOL    HW213578   8.106   4.630   7.742  1.4050 -1.2213 -0.7794
  751SOL     OW13579   3.231   8.400   5.385 -0.3471  0.2199  0.0861
  751SOL    HW113580   3.198   8.458   5.310  0.2427  0.2527 -0.1487
  751SOL    HW213581   3.308   8.445   5.431 -0.9991  0.4123  1.0095
  753SOL     OW13582   7.021   2.088   2.600  0.3919 -0.0021  0.1686
  753SOL    HW113583   7.054   2.180   2.622  0.7470 -0.3750  1.2082
  753SOL    HW213584   6.921   2.090   2.592  0.4253  0.5421 -0.1658
  754SOL     OW13585   1.480   0.115   4.809 -0.1973 -0.2015 -0.3480
  754SOL    HW113586   1.447   0.208   4.796 -0.4529 -0.1055  0.9173
  754SOL    HW213587   1.526   0.107   4.898  0.1492 -1.1852 -0.6018
  755SOL     OW13588   5.479   0.586   3.580  0.5561 -0.5965 -0.2756
  755SOL    HW113589   5.454   0.615   3.488  2.5290 -2.5154 -1.4528
  755SOL    HW213590   5.418   0.514   3.611 -1.2318  1.2611  0.6874
  758SOL     OW13591   0.941   0.652   6.002 -0.5321  0.1643 -0.1260
  758SOL    HW113592   0.967   0.664   5.906  0.6893 -1.3165 -0.0023
  758SOL    HW213593   0.928   0.555   6.021  0.8446  0.2986  1.6134
  759SOL     OW13594   7.953   9.731   6.193  0.3344 -0.1965  0.1894
  759SOL    HW113595   7.896   9.703   6.116  0.1351  0.2488  0.1731
  759SOL    HW213596   8.031   9.785   6.159 -0.6482  1.4163  0.4354
  761SOL     OW13597   0.744   0.164   5.705  0.5564  0.2350  0.7721
  761SOL    HW113598   0.812   0.095   5.727  0.9269  0.4040  0.1820
  761SOL    HW213599   0.748   0.185   5.607 -0.0724  0.5336  0.8060
  762SOL     OW13600   0.356   3.983   5.701 -0.5687 -0.0632  0.1165
  762SOL    HW113601   0.285   3.969   5.632 -1.2937 -0.0583  0.8498
  762SOL    HW213602   0.346   4.074   5.741  1.4098  0.9314 -1.5341
  763SOL     OW13603   5.174   6.464   0.720 -0.4434 -0.0020  0.0175
  763SOL    HW113604   5.263   6.431   0.690  0.9682  1.6893  2.1322
  763SOL    HW213605   5.143   6.410   0.798  0.0916  1.2022  1.0786
  764SOL     OW13606   4.906   9.378   4.882 -0.6389  0.2402 -0.2966
  764SOL    HW113607   4.946   9.425   4.961  1.3188 -0.7075 -0.6973
  764SOL    HW213608   4.812   9.409   4.869 -0.3906  1.7436  1.3109
  765SOL     OW13609   1.455   2.266   4.671  0.2168  0.9261  0.2826
  765SOL    HW113610   1.494   2.261   4.763 -1.8362 -0.1646  1.1155
  765SOL    HW213611   1.364   2.224   4.670  0.3684  0.5579 -2.3421
  766SOL     OW13612   0.305   0.229   5.375 -0.1298  0.0004  0.1914
  766SOL    HW113613   0.278   0.325   5.374 -0.0163  0.0318  0.1482
  766SOL    HW213614   0.400   0.222   5.404 -1.0827 -0.3156  3.4730
  767SOL     OW13615   1.454   4.221   7.383  0.5208  0.0342 -0.0374
  767SOL    HW113616   1.361   4.258   7.387  0.7591  0.8960 -1.7700
  767SOL    HW213617   1.450   4.121   7.385 -0.2513  0.0818  2.7457
  769SOL     OW13618   8.567   9.069   1.645  0.1453  0.2945  0.3022
  769SOL    HW113619   8.637   9.041   1.579 -0.6254 -1.8285  0.3408
  769SOL    HW213620   8.506   9.136   1.602  2.1573  2.1833  0.2778
  770SOL     OW13621   4.885   8.193   4.107  0.7409  0.4221  0.4618
  770SOL    HW113622   4.912   8.233   4.019 -1.2804  0.1725 -0.2908
  770SOL    HW213623   4.859   8.097   4.093 -1.1031  0.8184  1.0305
  771SOL     OW13624   6.060   8.800   3.692 -0.4720  0.8814 -0.0281
  771SOL    HW113625   6.019   8.714   3.661 -0.8845  1.3312 -0.7314
  771SOL    HW213626   6.120   8.781   3.769  0.6389 -0.2613 -1.1463
  772SOL     OW13627   2.129   1.157   3.539 -0.2866 -0.1043 -0.8325
  772SOL    HW113628   2.094   1.212   3.463  1.5233  1.9857 -0.2174
  772SOL    HW213629   2.215   1.113   3.510 -1.6335 -2.5412 -1.2648
  773SOL     OW13630   7.195   1.691   5.897  0.3641  0.2013 -0.2483
  773SOL    HW113631   7.183   1.750   5.817  1.6437  1.6381  0.6007
  773SOL    HW213632   7.233   1.603   5.868  1.9540  1.1466 -1.0980
  774SOL     OW13633   6.059   1.507   5.803 -0.0111 -0.1462 -0.4168
  774SOL    HW113634   6.096   1.475   5.716 -1.2270  0.6723 -1.2443
  774SOL    HW213635   5.994   1.440   5.839  1.1976 -0.9287  0.3463
  775SOL     OW13636   8.404   7.035   2.682  0.3813 -0.8208 -0.6244
  775SOL    HW113637   8.312   7.073   2.672 -0.0479 -0.9935  2.1291
  775SOL    HW213638   8.399   6.937   2.696  0.7699 -0.5211  1.8655
  777SOL     OW13639   6.589   3.955   1.868 -0.3346 -0.1265  0.0572
  777SOL    HW113640   6.564   3.949   1.965  1.3957  0.0242  0.5484
  777SOL    HW213641   6.634   4.043   1.851  1.0900 -0.9277 -0.4417
  779SOL     OW13642   5.590   7.973   5.884  0.2252  0.8791 -0.2101
  779SOL    HW113643   5.663   8.005   5.944  0.0236 -3.5930  2.6802
  779SOL    HW213644   5.629   7.926   5.805  0.4675  0.8400 -0.0676
  780SOL     OW13645   2.363   3.257   2.796  0.4375  0.0413 -0.4801
  780SOL    HW113646   2.462   3.273   2.800  0.4918 -0.4027 -0.1029
  780SOL    HW213647   2.344   3.160   2.806  0.0227  0.0068 -1.5849
  781SOL     OW13648   5.023   2.039   4.607  0.4433  0.1677  0.5757
  781SOL    HW113649   4.969   2.089   4.540  0.5398  0.1755  0.5036
  781SOL    HW213650   4.964   1.977   4.659  0.2379  0.7097  0.9955
  782SOL     OW13651   3.017   4.360   6.265  0.5418 -0.0552 -0.1080
  782SOL    HW113652   3.061   4.270   6.266  1.3346  0.3024 -1.1342
  782SOL    HW213653   3.064   4.422   6.328 -2.0886 -1.2762  3.1843
  785SOL     OW13654   9.617   4.822   6.804  0.3851 -0.2940  0.0068
  785SOL    HW113655   9.647   4.744   6.749 -0.9664 -0.5480 -0.3920
  785SOL    HW213656   9.553   4.790   6.874  0.3096  0.3754  0.2440
  787SOL     OW13657   9.788   5.995   0.586 -0.3937 -0.2706  0.0080
  787SOL    HW113658   9.707   6.053   0.594 -1.2826 -1.4085 -0.4595
  787SOL    HW213659   9.764   5.902   0.613  0.7439 -0.6360 -0.2198
  788SOL     OW13660   2.519   2.497   5.783 -0.0301 -0.7350 -0.1608
  788SOL    HW113661   2.616   2.490   5.757 -0.2121  0.1507 -1.1304
  788SOL    HW213662   2.486   2.407   5.812  0.8390 -1.2508 -0.7283
  789SOL     OW13663   7.952   0.757   4.957 -0.1118  0.2390 -0.0690
  789SOL    HW113664   7.873   0.698   4.972 -0.1136 -0.1160 -1.4472
  789SOL    HW213665   8.020   0.709   4.901  0.5017  1.0246 -0.0095
  790SOL     OW13666   4.043   3.576   7.757  0.0945 -0.4316  0.3448
  790SOL    HW113667   4.030   3.673   7.780  0.1514 -0.0520 -1.1718
  790SOL    HW213668   4.052   3.523   7.842 -2.0773  0.5781  1.2489
  791SOL     OW13669   2.131   6.109   4.886 -0.0624 -0.8548 -0.0615
  791SOL    HW113670   2.182   6.051   4.951 -0.9811 -1.2221  0.3343
  791SOL    HW213671   2.170   6.201   4.887  0.5359 -1.1036  0.3205
  792SOL     OW13672   1.917   5.642   1.608  0.1545 -0.1296  0.1620
  792SOL    HW113673   1.896   5.678   1.518 -0.8474 -0.0131  0.4366
  792SOL    HW213674   1.844   5.579   1.637 -0.1414  0.7532  1.3805
  793SOL     OW13675   8.950   5.713   2.734 -0.0665  0.3928  0.7424
  793SOL    HW113676   9.003   5.657   2.670 -1.4173  0.0022 -0.0631
  793SOL    HW213677   8.868   5.748   2.688 -1.9178 -1.2414  2.6993
  794SOL     OW13678   4.804   7.298   4.021 -0.4474  0.6529  0.0836
  794SOL    HW113679   4.814   7.379   3.962  0.8097  0.3091 -0.2002
  794SOL    HW213680   4.895   7.267   4.050 -0.8632 -1.0697 -0.3819
  795SOL     OW13681   0.729   0.785   1.816 -0.0588 -0.1505 -0.4140
  795SOL    HW113682   0.652   0.831   1.772 -0.2953 -0.2494 -0.1003
  795SOL    HW213683   0.696   0.727   1.890  0.3968  0.5734  0.3692
  796SOL     OW13684   8.951   6.779   2.910  0.2047 -0.1187  0.0042
  796SOL    HW113685   8.959   6.797   3.008  2.3605  1.9019 -0.5174
  796SOL    HW213686   8.983   6.686   2.891  1.8388  0.2249  0.9480
  797SOL     OW13687   9.666   6.552   1.622  0.4998 -0.0087 -0.6284
  797SOL    HW113688   9.695   6.480   1.685 -0.0589 -1.0098 -1.5081
  797SOL    HW213689   9.569   6.572   1.636  1.0438  1.7757  0.7769
  798SOL     OW13690   7.516   6.889   7.275  0.6431  0.5158 -0.3152
  798SOL    HW113691   7.445   6.956   7.257  1.2103  0.9335 -0.9912
  798SOL    HW213692   7.518   6.868   7.373 -1.7694 -1.0309 -0.5661
  799SOL     OW13693   8.205   6.160   2.433  0.4641 -0.1033 -0.2562
  799SOL    HW113694   8.131   6.210   2.388 -1.5401 -1.3585  1.5437
  799SOL    HW213695   8.262   6.223   2.485 -0.4067  0.6623 -0.2281
  800SOL     OW13696   5.875   2.319   4.715 -0.2265  0.3833 -0.1599
  800SOL    HW113697   5.872   2.321   4.615 -1.5459 -1.1284 -0.1787
  800SOL    HW213698   5.963   2.282   4.745 -0.1706 -0.0058 -0.7920
  803SOL     OW13699   5.535   1.679   6.059 -0.3627  1.0396  0.0257
  803SOL    HW113700   5.510   1.754   5.999  0.4870  0.9056 -0.5083
  803SOL    HW213701   5.564   1.715   6.148  2.1297  1.5121 -0.9330
  804SOL     OW13702   4.524   3.877   6.035 -0.4188 -0.3785 -0.6480
  804SOL    HW113703   4.565   3.866   5.944 -1.2881 -1.3722 -0.9296
  804SOL    HW213704   4.586   3.841   6.104 -1.1496 -2.6692 -1.1425
  805SOL     OW13705   3.273   2.345   3.606  0.4362 -0.0666 -0.7323
  805SOL    HW113706   3.203   2.275   3.599  1.0744 -0.6869 -0.9555
  805SOL    HW213707   3.246   2.413   3.674 -0.6893  0.0582 -1.3020
  806SOL     OW13708   2.301   4.654   5.879  0.3034  0.0452  0.1189
  806SOL    HW113709   2.352   4.739   5.867 -0.5798  0.6494  0.6125
  806SOL    HW213710   2.321   4.593   5.802 -0.9591  1.6748 -1.5381
  807SOL     OW13711   2.968   9.710   2.094 -0.3735 -0.3976  0.6820
  807SOL    HW113712   2.946   9.735   2.000  0.1495 -1.1826  0.3530
  807SOL    HW213713   3.013   9.621   2.096  2.8638  1.1715  1.3223
  808SOL     OW13714   0.271   1.683   6.976 -0.3922  0.2580  0.1715
  808SOL    HW113715   0.249   1.765   6.923 -0.7327 -0.8255 -1.3905
  808SOL    HW213716   0.210   1.608   6.950  0.7133 -0.8522  0.6827
  809SOL     OW13717   9.760   9.341   3.530 -0.0109 -0.4711  0.5710
  809SOL    HW113718   9.763   9.435   3.561 -1.5160 -1.0849  2.6443
  809SOL    HW213719   9.810   9.283   3.594  3.4606 -0.7460 -2.2067
  810SOL     OW13720   5.264   7.747   2.885  0.2785  0.2861 -0.3569
  810SOL    HW113721   5.289   7.680   2.955  0.7622  0.9688  0.1218
  810SOL    HW213722   5.232   7.831   2.928 -1.4567 -0.0412 -0.9682
  811SOL     OW13723   7.983   1.922   6.996  0.0318  0.1159 -0.3503
  811SOL    HW113724   8.064   1.956   7.045 -1.8020  2.4338  1.2384
  811SOL    HW213725   7.982   1.822   6.998  1.5113  0.1039  1.8628
  814SOL     OW13726   2.778   5.357   2.685 -0.6883  0.0631  0.1929
  814SOL    HW113727   2.848   5.399   2.744 -0.7402  0.1166  0.2166
  814SOL    HW213728   2.699   5.332   2.740 -0.9083  0.4992  0.0766
  815SOL     OW13729   2.918   9.514   4.521 -0.1404 -0.6883  0.1908
  815SOL    HW113730   2.985   9.571   4.472 -0.2450  0.2129  1.0691
  815SOL    HW213731   2.959   9.427   4.546 -0.6207 -1.9144 -3.0601
  816SOL     OW13732   1.272   7.683   7.123 -0.0226  0.1746 -0.1693
  816SOL    HW113733   1.289   7.668   7.221 -0.4203  0.0791 -0.1159
  816SOL    HW213734   1.320   7.766   7.094 -0.4455  0.5758  0.2600
  818SOL     OW13735   4.242   2.255   6.348  0.4640 -0.2944  0.6077
  818SOL    HW113736   4.249   2.198   6.266  1.0958  0.9331 -0.1971
  818SOL    HW213737   4.165   2.222   6.404  0.1800 -1.2934 -0.3424
  820SOL     OW13738   3.848   8.243   6.302  0.6670  0.3069  0.0551
  820SOL    HW113739   3.855   8.342   6.311  2.5365  0.1064  1.1814
  820SOL    HW213740   3.781   8.208   6.368  0.9096  0.7065  0.5180
  821SOL     OW13741   0.837   0.740   2.810  0.0423 -0.4047  0.0339
  821SOL    HW113742   0.888   0.682   2.747 -0.1344 -0.4032 -0.1121
  821SOL    HW213743   0.847   0.836   2.783 -0.4753 -0.4484 -0.3119
  824SOL     OW13744   9.755   4.071   1.266 -0.0675 -0.3318  0.1699
  824SOL    HW113745   9.764   4.167   1.292  0.7804 -0.5073  0.5372
  824SOL    HW213746   9.711   4.020   1.340 -2.0791  0.0822 -0.6965
  825SOL     OW13747   8.841   8.600   3.905  0.4010  0.7691  0.6728
  825SOL    HW113748   8.805   8.648   3.825 -0.4990 -0.7417  0.1490
  825SOL    HW213749   8.876   8.666   3.971 -3.2578  2.3496  1.1698
  827SOL     OW13750   1.378   3.423   5.256 -0.1152  0.0852 -0.2585
  827SOL    HW113751   1.407   3.496   5.317  0.4111  0.4472 -0.9336
  827SOL    HW213752   1.445   3.348   5.260 -1.8023 -1.3652  2.1397
  828SOL     OW13753   8.025   8.943   1.942 -0.2197  0.5652  0.1143
  828SOL    HW113754   7.929   8.915   1.931  0.5043 -1.7627 -0.5150
  828SOL    HW213755   8.054   8.992   1.860 -0.7109  0.8029  0.0765
  829SOL     OW13756   4.581   0.750   4.581  0.3969  0.4638  0.3394
  829SOL    HW113757   4.627   0.675   4.535  1.3016 -0.8110  3.1977
  829SOL    HW213758   4.486   0.724   4.600 -0.5571  1.7515 -2.4792
  830SOL     OW13759   9.747   4.544   6.771  0.1107  0.0829  0.0050
  830SOL    HW113760   9.752   4.496   6.859  3.3310 -2.2172 -1.3654
  830SOL    HW213761   9.680   4.499   6.712  1.0399 -0.9544 -0.2502
  831SOL     OW13762   9.601   6.975   1.551 -0.0096 -0.0968  0.1909
  831SOL    HW113763   9.582   7.021   1.638 -0.3592  0.2933 -0.0888
  831SOL    HW213764   9.698   6.951   1.546 -0.3998 -2.1680  1.6746
  832SOL     OW13765   0.640   2.147   3.278  0.6388  0.2854  0.1248
  832SOL    HW113766   0.575   2.160   3.354 -1.6026  0.4808 -1.7810
  832SOL    HW213767   0.651   2.049   3.260 -1.8620  0.3158 -1.7954
  833SOL     OW13768   1.647   8.003   4.645 -0.8308  0.0149 -0.7049
  833SOL    HW113769   1.689   7.923   4.689  0.7179  0.5211 -1.2618
  833SOL    HW213770   1.658   7.995   4.546 -1.4743  0.4816 -0.8115
  834SOL     OW13771   3.920   9.879   6.607  0.0729 -0.2578 -0.3185
  834SOL    HW113772   3.882   9.946   6.543 -0.0556 -0.7305 -0.7430
  834SOL    HW213773   3.947   9.925   6.692 -1.6451  0.0538  0.0781
  835SOL     OW13774   4.826   4.470   5.070  0.3419  0.2048  0.1982
  835SOL    HW113775   4.795   4.564   5.054 -3.5298 -0.7819  1.5225
  835SOL    HW213776   4.815   4.416   4.986  2.5685  0.8433 -0.5631
  836SOL     OW13777   0.863   1.937   6.339  0.0516 -0.3461 -0.0154
  836SOL    HW113778   0.901   1.879   6.412  1.7823  1.0464  0.2069
  836SOL    HW213779   0.804   2.007   6.380  1.8996  1.1270  0.1726
  837SOL     OW13780   3.625   6.421   0.332  0.1179  0.3284 -0.5250
  837SOL    HW113781   3.672   6.376   0.409 -1.5117  1.2794  1.0526
  837SOL    HW213782   3.530   6.390   0.328  0.0303  0.7280 -1.8200
  838SOL     OW13783   0.700   2.658   7.524  0.9272  0.0807 -0.1733
  838SOL    HW113784   0.718   2.681   7.428 -0.0700 -0.1089 -0.4087
  838SOL    HW213785   0.699   2.742   7.579  1.3084  0.2083 -0.3635
  839SOL     OW13786   4.387   8.141   1.874  0.5540 -0.2853  0.3399
  839SOL    HW113787   4.438   8.221   1.907  0.4862 -0.2550  0.3719
  839SOL    HW213788   4.302   8.171   1.832  0.9490 -0.2765 -0.4621
  841SOL     OW13789   8.181   6.892   2.994  0.2437 -0.2688 -0.1227
  841SOL    HW113790   8.099   6.839   3.018  0.9639 -1.1873  0.3106
  841SOL    HW213791   8.160   6.951   2.916 -1.0841  0.1331  0.5260
  842SOL     OW13792   8.432   5.118   0.480  0.3590 -0.5703  0.3656
  842SOL    HW113793   8.457   5.215   0.474 -1.8471 -0.0539 -1.1321
  842SOL    HW213794   8.514   5.062   0.469  2.0155  1.1128  3.4557
  844SOL     OW13795   7.998   2.583   3.565 -0.0169  0.0354  0.1974
  844SOL    HW113796   7.995   2.501   3.622  0.4749  0.1749  0.4233
  844SOL    HW213797   8.055   2.566   3.485 -0.4454 -0.0545 -0.0916
  845SOL     OW13798   3.387   4.286   2.903 -0.0432 -0.2859  0.0097
  845SOL    HW113799   3.316   4.270   2.834  0.0051 -0.7465  0.0624
  845SOL    HW213800   3.471   4.317   2.858  0.0144 -0.6671 -0.1520
  846SOL     OW13801   0.829   7.596   3.573 -0.2778  0.1043 -0.1722
  846SOL    HW113802   0.805   7.618   3.668 -1.0949 -1.3406 -0.0300
  846SOL    HW213803   0.925   7.618   3.557 -0.5117  1.7158  0.5686
  847SOL     OW13804   8.673   1.045   5.912 -0.4234 -0.1240 -0.4374
  847SOL    HW113805   8.587   1.078   5.872 -1.1460 -3.2548 -1.6277
  847SOL    HW213806   8.720   0.989   5.845  0.6001 -1.7398  1.5950
  849SOL     OW13807   8.207   2.068   2.384 -0.3359 -0.1285 -0.1680
  849SOL    HW113808   8.214   2.117   2.297 -2.0055  0.5213  0.0440
  849SOL    HW213809   8.116   2.027   2.392  0.3021 -1.4284  0.6265
  850SOL     OW13810   3.815   4.855   3.690 -0.2917 -0.5217 -0.1784
  850SOL    HW113811   3.845   4.801   3.611  0.5137  0.7013 -0.7282
  850SOL    HW213812   3.751   4.925   3.660  0.3591  0.2352  0.1651
  851SOL     OW13813   3.787   6.360   0.752  0.0477  0.2604  0.2156
  851SOL    HW113814   3.701   6.369   0.803  0.5139  1.4164  0.8083
  851SOL    HW213815   3.859   6.410   0.799  1.4129 -1.9309  0.5005
  852SOL     OW13816   8.759   9.633   6.489 -0.4049  0.4148 -0.5460
  852SOL    HW113817   8.805   9.623   6.577 -0.7250 -1.4923 -0.5678
  852SOL    HW213818   8.666   9.666   6.504 -0.2445  0.7231 -0.2213
  853SOL     OW13819   3.195   6.511   3.010  0.0015 -0.3181 -0.1023
  853SOL    HW113820   3.112   6.467   3.045 -1.2621  0.3172 -2.1921
  853SOL    HW213821   3.232   6.458   2.934  2.1077 -1.1228  1.4304
  854SOL     OW13822   8.131   8.088   5.386 -0.3219 -0.3438  0.3935
  854SOL    HW113823   8.228   8.108   5.402  0.2563 -2.0757 -0.7832
  854SOL    HW213824   8.079   8.173   5.389  1.2478  0.6310  0.9237
  855SOL     OW13825   7.460   1.253   0.775  0.1599  0.5416  0.6515
  855SOL    HW113826   7.556   1.279   0.763  0.0484  0.4966 -0.4009
  855SOL    HW213827   7.454   1.169   0.829  0.7868 -0.2079 -0.4356
  858SOL     OW13828   5.319   3.879   2.004  0.1862 -0.1816 -0.4287
  858SOL    HW113829   5.274   3.947   2.062  0.9915 -0.2128  0.2478
  858SOL    HW213830   5.284   3.788   2.025 -0.2085 -0.0798 -0.6597
  860SOL     OW13831   1.899   0.320   5.535 -0.1863  0.3288 -0.3938
  860SOL    HW113832   1.987   0.316   5.488 -0.0005 -0.3985 -0.0019
  860SOL    HW213833   1.854   0.407   5.515 -0.7296 -0.5141 -2.9974
  862SOL     OW13834   3.421   8.271   0.124  0.0527  0.4472  0.1587
  862SOL    HW113835   3.502   8.254   0.180  1.1677 -0.6208 -1.7745
  862SOL    HW213836   3.346   8.214   0.156  0.9521 -0.8410 -0.0216
  863SOL     OW13837   1.022   6.679   1.225  0.4365 -0.6326  0.0574
  863SOL    HW113838   1.113   6.708   1.198  0.5841 -0.4809  0.7186
  863SOL    HW213839   0.957   6.701   1.152  1.2919 -2.8611 -1.4307
  865SOL     OW13840   4.675   7.554   2.846 -0.0013  0.0189  0.0666
  865SOL    HW113841   4.732   7.572   2.927  1.8779 -1.6143 -0.8625
  865SOL    HW213842   4.584   7.591   2.862  1.2800  2.7653  1.5948
  866SOL     OW13843   3.683   0.646   1.404 -0.0214  0.3263  0.3470
  866SOL    HW113844   3.727   0.586   1.337 -1.3762  1.1257 -1.2936
  866SOL    HW213845   3.743   0.655   1.484  1.5445 -0.7938 -0.6558
  867SOL     OW13846   2.535   0.475   5.915 -0.6789 -0.1550  0.1538
  867SOL    HW113847   2.464   0.487   5.985 -0.7872  0.5390 -0.0692
  867SOL    HW213848   2.604   0.547   5.925 -0.4259 -0.3568 -0.1328
  869SOL     OW13849   0.681   9.688   2.465  0.1350 -0.1507 -0.0902
  869SOL    HW113850   0.635   9.604   2.494  1.6760 -1.5873 -1.6866
  869SOL    HW213851   0.673   9.757   2.537  0.7264 -2.3834  2.1990
  870SOL     OW13852   1.815   5.630   6.007  0.0264  0.5113 -0.5494
  870SOL    HW113853   1.733   5.598   5.959 -0.3166  2.3825 -1.2453
  870SOL    HW213854   1.789   5.701   6.073  1.0482  0.9528 -0.6146
  871SOL     OW13855   2.931   5.762   2.019  0.3959 -0.0359 -0.0889
  871SOL    HW113856   2.912   5.843   2.075 -1.1081 -0.1602 -0.3936
  871SOL    HW213857   2.863   5.691   2.039  1.5209 -1.1092 -0.0568
  872SOL     OW13858   8.154   8.479   0.216  0.3072  0.0686  0.0717
  872SOL    HW113859   8.195   8.569   0.229  0.5038  0.2822 -1.8479
  872SOL    HW213860   8.110   8.450   0.301  0.7849  1.6825  0.9009
  873SOL     OW13861   8.492   0.500   0.766 -0.2499  0.0903  0.1199
  873SOL    HW113862   8.567   0.436   0.752  0.4812  0.8579  0.4631
  873SOL    HW213863   8.528   0.584   0.807 -1.5074 -0.0479  1.5300
  874SOL     OW13864   0.170   3.752   4.718  0.5179 -0.2899 -0.3278
  874SOL    HW113865   0.243   3.775   4.654  0.7247 -0.9301 -0.3298
  874SOL    HW213866   0.118   3.674   4.683 -1.1437  1.1115 -1.0716
  876SOL     OW13867   2.451   7.861   1.147 -0.3166  0.0571 -0.0314
  876SOL    HW113868   2.364   7.816   1.126 -0.8134 -0.4672  3.0007
  876SOL    HW213869   2.433   7.950   1.189  0.6258  0.3565 -0.2559
  877SOL     OW13870   7.803   5.480   6.827 -0.6003 -0.1099 -0.2868
  877SOL    HW113871   7.801   5.573   6.791 -2.3678 -0.3528 -0.8729
  877SOL    HW213872   7.810   5.482   6.927  3.0594  0.5808 -0.4886
  878SOL     OW13873   7.648   0.345   6.953  0.2740 -0.1824  0.1732
  878SOL    HW113874   7.648   0.364   7.052  0.2850 -1.0249  0.3403
  878SOL    HW213875   7.689   0.256   6.937  3.2100  1.2958 -0.8940
  879SOL     OW13876   1.300   7.629   6.445  0.2657  0.6591  0.3978
  879SOL    HW113877   1.255   7.596   6.528  4.3395 -2.5833  1.4906
  879SOL    HW213878   1.347   7.715   6.464  0.4861  0.3563  1.2330
  880SOL     OW13879   7.034   0.832   4.366 -0.4837  0.3402  0.1288
  880SOL    HW113880   7.023   0.858   4.270 -0.5040  0.7779  0.2492
  880SOL    HW213881   7.052   0.734   4.372  1.4897  0.6405 -0.4625
  881SOL     OW13882   2.550   6.277   1.039 -0.4162 -0.6007  0.1840
  881SOL    HW113883   2.544   6.181   1.065 -2.3267 -0.0754  1.7757
  881SOL    HW213884   2.609   6.326   1.104  1.0605 -0.7914 -0.9788
  882SOL     OW13885   0.636   4.645   4.826  0.0244  0.3711  0.1578
  882SOL    HW113886   0.611   4.732   4.785  0.1042  0.4735  0.3257
  882SOL    HW213887   0.566   4.576   4.803  0.2310  0.3515 -0.3978
  884SOL     OW13888   8.340   3.610   1.728 -0.3894 -0.2537  0.0656
  884SOL    HW113889   8.273   3.633   1.799 -0.3091  0.4167 -0.0759
  884SOL    HW213890   8.425   3.658   1.747 -0.5550  0.3790 -0.8211
  885SOL     OW13891   9.785   8.967   2.817  0.2019 -0.7715  0.3062
  885SOL    HW113892   9.851   9.031   2.855  0.4622 -0.0366 -1.3619
  885SOL    HW213893   9.697   9.012   2.805 -0.4947 -1.6144  2.0635
  887SOL     OW13894   6.588   2.390   1.532 -0.1210  0.8672  0.1298
  887SOL    HW113895   6.536   2.455   1.588  0.3197  0.5338  0.9294
  887SOL    HW213896   6.650   2.441   1.471 -1.3268  1.2645 -0.7873
  888SOL     OW13897   4.518   0.438   7.789  0.6856  0.1013 -0.4536
  888SOL    HW113898   4.559   0.432   7.880 -0.1325 -0.2165 -0.1061
  888SOL    HW213899   4.456   0.361   7.774 -0.1470  0.8243 -0.8003
  889SOL     OW13900   9.530   0.844   0.018  0.7376 -0.4816 -0.3544
  889SOL    HW113901   9.611   0.823  -0.036 -0.1927 -1.3796 -1.4262
  889SOL    HW213902   9.543   0.814   0.113  1.6540 -0.5878 -0.5175
  890SOL     OW13903   9.815   6.697   7.187  0.4379 -0.3235  0.8998
  890SOL    HW113904   9.758   6.774   7.216 -0.2565 -0.9333  1.1776
  890SOL    HW213905   9.757   6.617   7.173  0.4138  0.3746 -3.9370
  893SOL     OW13906   0.819   6.347   0.055 -0.4310  0.5104 -0.2142
  893SOL    HW113907   0.860   6.343  -0.036  0.4931 -0.3708  0.2210
  893SOL    HW213908   0.826   6.440   0.091  2.4382  0.1011  0.3903
  894SOL     OW13909   5.890   0.059   3.824  0.3331  0.3820  1.0629
  894SOL    HW113910   5.971   0.036   3.878  0.9144 -1.7611 -0.6314
  894SOL    HW213911   5.811   0.010   3.861  0.5201 -0.2511  0.6364
  895SOL     OW13912   3.846   7.962   6.829  0.1273  0.2935 -0.0330
  895SOL    HW113913   3.864   7.981   6.926  1.6965 -0.5867 -0.1257
  895SOL    HW213914   3.755   7.996   6.804 -0.2907  0.5319  1.7446
  896SOL     OW13915   8.360   9.622   0.706 -0.3360  0.0638 -0.6191
  896SOL    HW113916   8.296   9.613   0.782 -2.0720  1.8965 -1.8058
  896SOL    HW213917   8.313   9.661   0.627  1.8131 -0.2926 -2.1284
  897SOL     OW13918   8.057   1.975   4.492  0.1856  0.0385  0.3827
  897SOL    HW113919   8.080   1.879   4.508 -0.8902 -0.2215  0.4178
  897SOL    HW213920   7.982   2.002   4.552 -0.0326  0.6810 -0.1648
  898SOL     OW13921   3.819   7.849   3.914  0.1784 -0.4336  0.4924
  898SOL    HW113922   3.797   7.891   3.827  3.1099 -0.2693 -0.2406
  898SOL    HW213923   3.883   7.773   3.899 -0.5736 -1.4630  2.3351
  899SOL     OW13924   0.499   9.690   3.366  0.1053  0.9145 -0.0774
  899SOL    HW113925   0.423   9.650   3.417 -0.1773 -2.6712 -3.1066
  899SOL    HW213926   0.465   9.721   3.277  1.5950  2.2507 -0.1950
  900SOL     OW13927   4.837   2.173   1.109  0.1598  0.1359  0.0972
  900SOL    HW113928   4.770   2.230   1.156  1.6938  2.0910 -0.0426
  900SOL    HW213929   4.920   2.226   1.092  1.2280 -1.8341 -0.9760
  902SOL     OW13930   7.744   8.228   5.472 -0.6551  0.7036 -0.1332
  902SOL    HW113931   7.772   8.215   5.568 -1.4756 -2.3477 -0.2490
  902SOL    HW213932   7.664   8.288   5.469 -0.4335  1.0826  1.0745
  903SOL     OW13933   3.075   2.860   4.191 -0.1423  0.1545 -0.3071
  903SOL    HW113934   3.115   2.781   4.237  0.2197 -0.8085 -2.2566
  903SOL    HW213935   3.136   2.939   4.201  0.8731 -0.5631 -0.8236
  904SOL     OW13936   3.822   8.383   0.953  0.5035 -0.3901 -0.2204
  904SOL    HW113937   3.908   8.363   0.906  0.5039  1.4406 -1.0282
  904SOL    HW213938   3.841   8.416   1.045  0.7372  1.0429 -0.7657
  906SOL     OW13939   7.351   8.268   3.762 -0.0600 -0.2240  0.0498
  906SOL    HW113940   7.383   8.174   3.754  0.4145 -0.0379 -0.2521
  906SOL    HW213941   7.278   8.284   3.696 -0.4069 -0.4898  0.3630
  907SOL     OW13942   2.906   0.515   7.512 -0.4204 -0.3945  0.2124
  907SOL    HW113943   2.938   0.604   7.545 -1.9595  0.0157  0.6482
  907SOL    HW213944   2.968   0.481   7.441 -0.5716  1.6408 -0.9069
  908SOL     OW13945   0.109   9.742   5.345 -0.3247  0.5142 -0.0257
  908SOL    HW113946   0.145   9.833   5.366  1.8271 -0.6146  1.3924
  908SOL    HW213947   0.056   9.708   5.422  0.8270 -0.3562  0.4005
  909SOL     OW13948   0.008   1.740   2.072 -0.0211 -0.3916 -0.1625
  909SOL    HW113949  -0.030   1.681   2.143  2.8403 -1.0787  0.8780
  909SOL    HW213950   0.008   1.835   2.104  0.2977 -0.5603  0.3551
  910SOL     OW13951   7.022   0.680   6.101 -0.0409 -0.1373  0.2687
  910SOL    HW113952   7.103   0.730   6.133 -1.0916  0.4422  2.0844
  910SOL    HW213953   6.999   0.711   6.009  1.8932 -0.4364 -0.3489
  911SOL     OW13954   3.826   4.873   0.466  0.6895 -0.1575  0.0187
  911SOL    HW113955   3.828   4.777   0.439 -0.0070 -0.6284  1.5820
  911SOL    HW213956   3.901   4.922   0.421  0.8301 -1.3431 -1.0688
  912SOL     OW13957   2.036   1.120   3.944  0.6965 -0.7045 -0.1165
  912SOL    HW113958   1.964   1.053   3.926 -0.0025 -0.1453  0.5497
  912SOL    HW213959   2.114   1.075   3.988 -0.5209 -0.7757  2.0673
  913SOL     OW13960   2.571   7.338   4.512  0.3207  0.4557 -0.4955
  913SOL    HW113961   2.660   7.376   4.485  0.5448  0.6300  0.4896
  913SOL    HW213962   2.530   7.291   4.433  2.2364 -1.4320 -0.4184
  914SOL     OW13963   2.348   4.887   5.479 -0.5639  0.8443  0.3176
  914SOL    HW113964   2.448   4.889   5.472 -0.5817  1.3567  0.2448
  914SOL    HW213965   2.318   4.951   5.550 -0.8092  0.3105  0.7087
  916SOL     OW13966   3.589   7.636   1.451 -0.2058 -0.1093  0.7267
  916SOL    HW113967   3.666   7.664   1.394  0.5585 -0.2236  1.6870
  916SOL    HW213968   3.532   7.571   1.401 -1.0103  1.7735 -0.8705
  917SOL     OW13969   6.719   0.581   2.749  0.5763 -0.2375  0.5920
  917SOL    HW113970   6.699   0.670   2.708 -0.1611 -0.1477  1.1448
  917SOL    HW213971   6.752   0.519   2.678  0.1940  0.1958  0.0306
  918SOL     OW13972   0.986   0.542   0.010  0.2139 -0.0460  0.2169
  918SOL    HW113973   0.939   0.526  -0.077  2.2524 -0.5266 -0.8189
  918SOL    HW213974   0.998   0.641   0.024 -0.5982  0.0552  0.2279
  919SOL     OW13975   9.258   6.274   7.571 -0.0504 -0.3033  0.7390
  919SOL    HW113976   9.171   6.314   7.599  0.0726  0.2606  0.3378
  919SOL    HW213977   9.290   6.211   7.641  1.1957  2.4983  2.7639
  920SOL     OW13978   0.833   7.100   2.402 -0.1729 -0.0653  0.3128
  920SOL    HW113979   0.765   7.027   2.402 -0.3514  0.0968 -0.3845
  920SOL    HW213980   0.803   7.173   2.340 -0.2845  0.8652  1.4535
  922SOL     OW13981   6.715   2.302   2.136 -0.5717  0.2505  0.0005
  922SOL    HW113982   6.680   2.213   2.106 -3.0506  1.6048 -1.2420
  922SOL    HW213983   6.798   2.288   2.191 -1.5397 -2.8926  0.7800
  923SOL     OW13984   9.135   8.213   5.483 -0.6886 -0.3512 -0.5780
  923SOL    HW113985   9.142   8.148   5.407 -1.7170 -1.7870  0.5329
  923SOL    HW213986   9.099   8.167   5.564  0.7199  1.0909  0.9059
  924SOL     OW13987   7.702   7.334   7.285  0.2274  0.2237  0.6611
  924SOL    HW113988   7.789   7.294   7.316  1.1993  2.5228  0.9586
  924SOL    HW213989   7.648   7.362   7.364 -1.3169 -2.1849  0.5224
  925SOL     OW13990   1.315   9.589   0.673 -0.0441  0.2627  0.1458
  925SOL    HW113991   1.297   9.551   0.583  0.3352 -0.5243  0.3961
  925SOL    HW213992   1.328   9.515   0.739 -0.7053  0.8217  0.9253
  927SOL     OW13993   0.559   9.468   2.856 -0.5198 -0.3043  1.1111
  927SOL    HW113994   0.546   9.378   2.897  1.5430 -0.7892  0.7878
  927SOL    HW213995   0.656   9.480   2.834 -0.9329  1.6185  0.2703
  928SOL     OW13996   6.189   1.500   0.004  0.3583  0.0032 -0.3355
  928SOL    HW113997   6.184   1.541  -0.088 -0.0379  0.9235  0.0864
  928SOL    HW213998   6.097   1.495   0.043  0.4839 -0.7201 -0.1241
  930SOL     OW13999   3.609   2.493   7.748 -0.1860 -0.3645 -0.6409
  930SOL    HW114000   3.527   2.435   7.749  0.2490 -1.0104 -1.4352
  930SOL    HW214001   3.637   2.509   7.654  0.2110  0.4272 -0.3922
  931SOL     OW14002   2.188   3.529   3.659  0.5184 -0.1651 -0.7384
  931SOL    HW114003   2.135   3.567   3.734  2.5313 -1.2826  1.2870
  931SOL    HW214004   2.156   3.568   3.572 -0.4403  2.7095  0.8630
  933SOL     OW14005   7.729   9.813   2.907 -0.0343 -0.3795  0.1729
  933SOL    HW114006   7.792   9.791   2.833  0.0548  1.4462 -0.3105
  933SOL    HW214007   7.690   9.728   2.943  1.6556 -1.4328 -0.4196
  935SOL     OW14008   6.777   1.095   1.818 -0.1460 -0.1929  0.2560
  935SOL    HW114009   6.876   1.092   1.834  0.0144 -1.2460 -0.9331
  935SOL    HW214010   6.731   1.106   1.906  0.9236 -2.2101  1.1228
  936SOL     OW14011   3.626   9.983   0.174 -0.4358 -0.3092  0.3091
  936SOL    HW114012   3.632  10.041   0.092 -0.0281 -0.7033  0.0569
  936SOL    HW214013   3.660  10.034   0.253  1.3251 -0.6972 -0.1757
  938SOL     OW14014   3.790   7.286   0.370 -0.3006 -0.8049 -0.0407
  938SOL    HW114015   3.703   7.255   0.407 -0.8071 -0.6567 -1.0971
  938SOL    HW214016   3.850   7.207   0.354 -0.4375 -0.9542  0.1873
  940SOL     OW14017   5.935   7.823   6.102 -0.1234 -0.4991 -0.5354
  940SOL    HW114018   5.889   7.848   6.188  0.5142  0.8436 -0.5689
  940SOL    HW214019   6.004   7.753   6.120  0.1270 -0.0981  0.0865
  941SOL     OW14020   5.017   4.090   2.193  0.1795 -0.0201  0.5000
  941SOL    HW114021   4.984   4.015   2.135  1.8927 -1.6105  1.5067
  941SOL    HW214022   4.964   4.091   2.278 -0.3462  0.4132  0.1736
  942SOL     OW14023   3.580   0.095   1.706 -0.5414 -0.7035  0.3770
  942SOL    HW114024   3.601   0.006   1.666 -0.7341 -0.7392  0.3546
  942SOL    HW214025   3.585   0.165   1.634 -0.0163 -0.6418  0.4734
  943SOL     OW14026   3.365   8.656   7.711  0.3164  0.2586 -0.4213
  943SOL    HW114027   3.329   8.578   7.659 -1.3161 -0.1866  1.3043
  943SOL    HW214028   3.295   8.726   7.719 -0.2827 -0.6619  3.0909
  944SOL     OW14029   0.639   8.931   4.550  0.0208 -0.1091 -0.2386
  944SOL    HW114030   0.552   8.972   4.525 -0.4726 -1.4674 -0.7626
  944SOL    HW214031   0.670   8.870   4.477  2.4013  1.8819 -0.9575
  945SOL     OW14032   6.529   5.120   1.987  0.5001 -0.1672  0.5347
  945SOL    HW114033   6.448   5.102   2.043 -1.4482  0.8574 -1.8554
  945SOL    HW214034   6.609   5.129   2.045 -1.7969  3.0605  3.3476
  946SOL     OW14035   4.321   7.351   4.775  0.1667 -0.2815  0.4816
  946SOL    HW114036   4.329   7.449   4.757  1.6374 -0.6584 -0.9924
  946SOL    HW214037   4.227   7.330   4.803 -0.1848  1.5263  0.6891
  948SOL     OW14038   0.838   2.796   0.404  0.0036 -0.1592 -0.4731
  948SOL    HW114039   0.883   2.714   0.369  0.6182  0.7883 -1.9225
  948SOL    HW214040   0.761   2.819   0.346 -0.5019 -0.0059  0.2468
  949SOL     OW14041   2.115   8.979   2.407  0.8275 -0.5561 -0.0294
  949SOL    HW114042   2.066   9.009   2.325 -1.1725 -1.2847  0.8882
  949SOL    HW214043   2.177   9.052   2.437  0.2095  0.4292 -1.0914
  950SOL     OW14044   5.658   1.137   6.395 -0.0741 -0.1516 -0.5153
  950SOL    HW114045   5.601   1.057   6.378 -2.8017  1.8489 -1.0777
  950SOL    HW214046   5.606   1.205   6.447  2.8368  0.4867  1.6967
  952SOL     OW14047   4.460   8.938   0.639  0.2522  0.0351  0.0906
  952SOL    HW114048   4.541   8.967   0.589  0.7191  0.3886  1.0263
  952SOL    HW214049   4.484   8.926   0.736 -0.4362 -1.3640  0.1045
  953SOL     OW14050   8.514   6.945   2.036 -0.0080  0.3338  0.3176
  953SOL    HW114051   8.551   7.036   2.022 -0.8590  1.0251  2.3492
  953SOL    HW214052   8.559   6.902   2.115  0.1220 -0.8457 -0.3907
  954SOL     OW14053   5.205   7.717   2.595  0.1444  0.2524 -0.1023
  954SOL    HW114054   5.118   7.760   2.575 -0.8840 -1.8935 -0.4188
  954SOL    HW214055   5.228   7.731   2.691 -0.3060  1.2271 -0.1312
  955SOL     OW14056   8.199   7.497   0.627 -0.5295  0.5336  1.0303
  955SOL    HW114057   8.284   7.455   0.658 -1.2434 -0.7156  1.3228
  955SOL    HW214058   8.169   7.453   0.543 -0.3956  1.6181  0.4064
  956SOL     OW14059   1.568   0.084   5.092 -0.2092 -0.0453  0.1094
  956SOL    HW114060   1.656   0.083   5.044  0.4861 -1.5164  1.3765
  956SOL    HW214061   1.530  -0.008   5.093 -1.3313  0.4152  0.3752
  957SOL     OW14062   2.538   4.820   1.684  0.2502  0.1881  0.4633
  957SOL    HW114063   2.636   4.828   1.666  0.1952 -0.7010 -0.2605
  957SOL    HW214064   2.510   4.893   1.747  1.3015  0.6617  0.4013
  959SOL     OW14065   4.723   1.193   0.137  0.1794  0.1602 -0.6583
  959SOL    HW114066   4.709   1.291   0.120 -0.2095  0.0798 -0.7924
  959SOL    HW214067   4.821   1.172   0.130 -0.0243 -0.0102 -3.5534
  960SOL     OW14068   3.116   0.064   4.411 -0.5391 -0.1037  0.7397
  960SOL    HW114069   3.126   0.149   4.463 -0.0512  0.3355 -0.0776
  960SOL    HW214070   3.178   0.064   4.333  1.7995 -2.5848  2.4879
  961SOL     OW14071   8.880   2.261   2.075  0.0680 -0.1118 -0.3757
  961SOL    HW114072   8.920   2.187   2.021  0.1134 -0.8131  0.5981
  961SOL    HW214073   8.954   2.319   2.111  0.0247  0.5185 -1.2748
  962SOL     OW14074   9.887   8.758   7.086  0.6301  0.3742 -0.0354
  962SOL    HW114075   9.868   8.684   7.021  0.0539 -1.8635  2.6175
  962SOL    HW214076   9.983   8.786   7.076  0.6251 -0.1046 -1.6657
  963SOL     OW14077   5.885   3.778   2.392  0.7866  0.0202 -0.4275
  963SOL    HW114078   5.892   3.875   2.368 -0.3073  0.3503  0.5271
  963SOL    HW214079   5.816   3.734   2.336 -0.1910  0.2814  0.5528
  964SOL     OW14080   7.475   3.619   0.580  0.1906  0.4414  0.2336
  964SOL    HW114081   7.430   3.631   0.492 -0.7653  1.0114  0.7909
  964SOL    HW214082   7.456   3.527   0.615  0.5139  0.2395 -0.1208
  965SOL     OW14083   4.929   4.116   7.103  0.0434 -0.3670  0.1284
  965SOL    HW114084   4.938   4.112   7.003 -0.3205 -2.4496  0.1572
  965SOL    HW214085   4.855   4.179   7.127 -1.6206 -1.8150 -1.0421
  966SOL     OW14086   7.093   1.117   4.885 -0.8172  0.1356  0.3846
  966SOL    HW114087   7.171   1.072   4.842  0.6645  0.9381  2.1777
  966SOL    HW214088   7.061   1.061   4.961  0.0917  1.3502  1.6856
  967SOL     OW14089   1.715   8.548   5.981  0.0511  0.1189  1.2948
  967SOL    HW114090   1.636   8.605   5.954  0.5546  0.2283  0.0048
  967SOL    HW214091   1.698   8.509   6.071 -1.9478 -0.6939  0.5964
  968SOL     OW14092   2.478   4.847   5.764 -0.3910  0.0140 -0.0473
  968SOL    HW114093   2.452   4.824   5.670  1.2935  0.4271 -0.6395
  968SOL    HW214094   2.484   4.947   5.773 -0.5864 -0.0226  0.5116
  970SOL     OW14095   1.706   4.265   2.173  0.1529 -0.2127 -0.2842
  970SOL    HW114096   1.721   4.320   2.090 -1.1738  1.2826  0.4304
  970SOL    HW214097   1.644   4.314   2.234  1.1942 -1.2553  1.6505
  974SOL     OW14098   8.468   4.260   2.375  0.2060 -0.2815 -0.3990
  974SOL    HW114099   8.566   4.276   2.385  0.3250 -1.6036  0.8724
  974SOL    HW214100   8.419   4.347   2.376  1.1747  0.2814  1.5516
  976SOL     OW14101   1.422   4.562   1.136 -0.4493  0.0062 -0.6939
  976SOL    HW114102   1.352   4.551   1.066  0.4298 -0.8876 -1.4557
  976SOL    HW214103   1.512   4.568   1.092  0.1831 -1.3235  0.4034
  978SOL     OW14104   9.416   4.875   2.940  0.2344 -0.0009  0.0090
  978SOL    HW114105   9.475   4.812   2.890 -1.1387 -0.8018 -0.6100
  978SOL    HW214106   9.406   4.844   3.035 -2.4783 -2.1720 -0.9232
  979SOL     OW14107   8.572   4.259   7.581  0.2179 -0.0047  0.3195
  979SOL    HW114108   8.568   4.169   7.626 -1.6149  1.1440  2.5716
  979SOL    HW214109   8.664   4.274   7.545  0.9401 -2.1948  1.1679
  980SOL     OW14110   3.624   2.299   3.198 -0.2716 -0.1686 -0.2033
  980SOL    HW114111   3.645   2.291   3.100 -1.1533 -0.2599 -0.3870
  980SOL    HW214112   3.694   2.251   3.251 -1.1024 -2.1972 -0.9027
  981SOL     OW14113   8.850   1.240   0.381  0.7292 -0.2486 -0.2356
  981SOL    HW114114   8.821   1.275   0.470  0.8863 -0.8090  0.0416
  981SOL    HW214115   8.900   1.311   0.331 -1.9697  1.0786 -1.1459
  982SOL     OW14116   3.420   3.577   5.401  0.2929  0.5429 -0.1606
  982SOL    HW114117   3.515   3.601   5.421 -0.4163  2.0127  1.5219
  982SOL    HW214118   3.364   3.660   5.400 -1.5126 -0.6055  1.8604
  985SOL     OW14119   7.399   2.337   3.903  0.2793  0.6167  0.0128
  985SOL    HW114120   7.310   2.323   3.946 -0.4859  0.8349 -1.4647
  985SOL    HW214121   7.463   2.267   3.934 -0.7265 -0.2180  0.2302
  986SOL     OW14122   4.808   2.785   0.424  0.4319 -0.1739  0.6343
  986SOL    HW114123   4.804   2.865   0.365 -0.4219 -1.1968 -0.7316
  986SOL    HW214124   4.744   2.795   0.500 -0.9321 -0.2859 -0.4824
  987SOL     OW14125   9.839   6.728   1.985 -0.0637 -0.6235  0.2568
  987SOL    HW114126   9.761   6.668   1.968 -1.4951  1.1274  0.5139
  987SOL    HW214127   9.862   6.778   1.901  1.4198 -1.8430 -0.0841
  988SOL     OW14128   2.669   5.486   3.493 -0.5387  0.0871  0.0628
  988SOL    HW114129   2.762   5.465   3.462  0.2664 -2.0437  3.6306
  988SOL    HW214130   2.612   5.405   3.482 -0.9696  0.2059  1.3872
  989SOL     OW14131   9.675   0.386   2.011  0.0634  0.5303 -0.3430
  989SOL    HW114132   9.735   0.395   2.090  0.2415 -1.6488 -0.1946
  989SOL    HW214133   9.585   0.425   2.032  0.0050 -0.3215  1.0765
  990SOL     OW14134   9.765   6.821   0.790 -0.3441  0.1790  0.3028
  990SOL    HW114135   9.693   6.871   0.838 -0.4834  0.7924 -0.5363
  990SOL    HW214136   9.730   6.791   0.700 -0.3585 -1.6450  0.8892
  992SOL     OW14137   6.926   6.676   1.711 -0.2979  0.1422 -0.0803
  992SOL    HW114138   6.854   6.610   1.688 -1.9917  1.3706  1.4852
  992SOL    HW214139   7.000   6.629   1.758 -1.5129 -0.6943  1.0558
  993SOL     OW14140   3.721   5.548   7.890 -0.3511  0.0155 -0.0177
  993SOL    HW114141   3.671   5.483   7.833 -0.2034  0.9504 -1.2322
  993SOL    HW214142   3.751   5.625   7.834  0.0834  0.7895  1.2649
  994SOL     OW14143   3.988   1.660   6.080 -0.2748  0.0540  0.6735
  994SOL    HW114144   3.900   1.675   6.033 -0.2869 -1.9315 -0.0186
  994SOL    HW214145   3.985   1.571   6.127  1.3381  0.0091  0.7035
  995SOL     OW14146   0.136   3.859   7.642  0.2107  0.2935  0.4786
  995SOL    HW114147   0.215   3.910   7.608 -0.0363  1.2595  1.3239
  995SOL    HW214148   0.128   3.872   7.741  0.8453 -2.3706  0.9121
  999SOL     OW14149   7.886   0.006   4.122  0.3713 -0.0450  0.1169
  999SOL    HW114150   7.853   0.070   4.192 -3.0770 -0.8329 -0.6716
  999SOL    HW214151   7.883   0.051   4.033  0.2803 -0.5112 -0.1143
 1000SOL     OW14152   6.892   5.529   6.801  0.0811 -0.2678  0.4889
 1000SOL    HW114153   6.933   5.519   6.892 -0.9467 -0.2845  0.9584
 1000SOL    HW214154   6.964   5.545   6.734  0.6873  2.4638  1.7008
 1002SOL     OW14155   4.611   3.992   0.660 -0.2486  0.5695 -0.0400
 1002SOL    HW114156   4.611   4.075   0.606  1.6550  0.5060 -0.1664
 1002SOL    HW214157   4.649   4.011   0.751  0.1013 -0.1227 -0.0341
 1003SOL     OW14158   8.882   3.228   3.910  0.6436 -0.5361  0.4901
 1003SOL    HW114159   8.799   3.180   3.883  0.5273 -0.8276  1.3485
 1003SOL    HW214160   8.929   3.262   3.828 -0.0501 -0.8095 -0.0288
 1005SOL     OW14161   4.597   4.125   7.287 -0.0666  1.1058  0.0277
 1005SOL    HW114162   4.589   4.114   7.386 -1.0631 -0.3218 -0.2002
 1005SOL    HW214163   4.631   4.040   7.247 -0.5167  1.3809 -0.9455
 1008SOL     OW14164   1.068   0.593   0.448  0.3241  0.3065 -0.0609
 1008SOL    HW114165   1.075   0.622   0.544  1.0614  1.6308 -0.5025
 1008SOL    HW214166   1.160   0.590   0.408  0.3150 -2.9755  0.0442
 1009SOL     OW14167   5.582   5.220   0.573 -0.8572  0.2804  0.1184
 1009SOL    HW114168   5.627   5.281   0.508  1.7514  0.4051  1.9671
 1009SOL    HW214169   5.606   5.125   0.552 -0.6648  0.2657  0.4033
 1010SOL     OW14170   1.053   1.014   1.204 -0.5897  0.0484  0.3054
 1010SOL    HW114171   1.032   1.085   1.271  0.5463 -1.3913  2.2469
 1010SOL    HW214172   1.149   0.988   1.211 -1.1337 -2.1734  0.1761
 1011SOL     OW14173   0.282   0.631   2.385 -0.6989 -0.5718 -0.0679
 1011SOL    HW114174   0.221   0.688   2.330 -0.4591  0.5371  0.7738
 1011SOL    HW214175   0.350   0.690   2.430 -1.7610 -1.2348  2.5312
 1012SOL     OW14176   8.414   7.586   1.734  0.4534 -0.3898 -0.1181
 1012SOL    HW114177   8.344   7.651   1.705  0.8807 -0.1917 -0.7144
 1012SOL    HW214178   8.383   7.493   1.716  0.3051 -0.3072 -0.2955
 1013SOL     OW14179   3.269   0.309   7.369 -0.3225  0.4992 -0.3017
 1013SOL    HW114180   3.257   0.403   7.402  1.4462 -0.1400  2.3519
 1013SOL    HW214181   3.340   0.307   7.299  0.3679  1.0180  0.3702
 1014SOL     OW14182   3.127   9.712   5.927 -0.3886  0.1145  0.0925
 1014SOL    HW114183   3.097   9.800   5.888 -2.2710 -0.8718 -0.7589
 1014SOL    HW214184   3.140   9.646   5.853 -2.5151 -1.3477  0.9792
 1015SOL     OW14185   6.870   7.299   5.210 -0.1484 -0.4500 -0.0828
 1015SOL    HW114186   6.916   7.325   5.125 -0.3877 -0.7792 -0.3161
 1015SOL    HW214187   6.771   7.297   5.195 -0.1715 -0.8695  0.1023
 1016SOL     OW14188   2.980   8.645   0.965  0.9519  0.1374  0.1649
 1016SOL    HW114189   2.964   8.713   0.893 -0.4943  0.0682  0.3882
 1016SOL    HW214190   2.980   8.691   1.054  0.2723 -0.1015  0.2935
 1017SOL     OW14191   8.151   2.377   2.178 -0.5242  0.2936  0.0580
 1017SOL    HW114192   8.162   2.444   2.105 -1.7110 -1.4058 -1.7130
 1017SOL    HW214193   8.186   2.288   2.148  0.7125 -0.0177  2.2560
 1018SOL     OW14194   5.757   1.026   6.863 -0.2098 -0.0191  0.3248
 1018SOL    HW114195   5.836   0.987   6.911  0.3576  0.4714 -0.2083
 1018SOL    HW214196   5.768   1.125   6.854 -0.1010 -0.1548 -1.1852
 1019SOL     OW14197   3.230   1.948   4.845  0.1006 -0.3254  0.1842
 1019SOL    HW114198   3.141   1.904   4.847 -0.3937  0.6305 -0.0628
 1019SOL    HW214199   3.298   1.885   4.807 -0.3591 -1.2300  0.8400
 1023SOL     OW14200   2.686   1.885   2.578 -0.4747  0.0248  0.0039
 1023SOL    HW114201   2.670   1.949   2.502  0.7766  1.6664  1.0818
 1023SOL    HW214202   2.605   1.883   2.636 -0.3160  1.1161  0.2835
 1024SOL     OW14203   2.034   5.125   7.577 -0.0736  0.0271 -1.0247
 1024SOL    HW114204   2.037   5.061   7.500  1.1571  0.3449 -1.2540
 1024SOL    HW214205   2.083   5.209   7.552  0.7009 -0.0312  0.2422
 1026SOL     OW14206   9.153   3.217   6.258  0.6705  0.2247  0.0735
 1026SOL    HW114207   9.056   3.228   6.235  0.5969  1.3839  0.8694
 1026SOL    HW214208   9.206   3.199   6.175  0.2497  2.9930 -0.8522
 1027SOL     OW14209   1.684   2.315   3.495  0.0583 -1.1430 -0.0992
 1027SOL    HW114210   1.758   2.377   3.470  0.9171 -1.2755  2.0210
 1027SOL    HW214211   1.609   2.367   3.536  0.1184 -1.3361  0.2527
 1028SOL     OW14212   9.618   6.971   5.705  1.0915  0.3609  0.5826
 1028SOL    HW114213   9.563   6.968   5.622  1.0699  0.6029  0.5859
 1028SOL    HW214214   9.595   6.893   5.763 -1.0984  1.8151  1.7370
 1030SOL     OW14215   6.718   0.029   3.793  0.7480 -0.1774 -0.1134
 1030SOL    HW114216   6.628   0.072   3.792  0.9599  0.3330  1.2974
 1030SOL    HW214217   6.779   0.080   3.732  0.4365  0.2764 -0.0517
 1032SOL     OW14218   8.494   9.245   0.417  0.6237  0.1487 -0.2458
 1032SOL    HW114219   8.527   9.178   0.484 -0.0225  1.6075  1.5746
 1032SOL    HW214220   8.403   9.277   0.444  0.1646  0.4156 -2.0852
 1033SOL     OW14221   7.103   2.123   4.345 -0.0280  0.0524  0.2684
 1033SOL    HW114222   7.036   2.082   4.407  0.0519 -1.3032 -0.5271
 1033SOL    HW214223   7.070   2.117   4.251  0.7278  0.3474 -0.0209
 1034SOL     OW14224   6.823   1.806   1.789  0.1706 -0.1172 -0.4373
 1034SOL    HW114225   6.899   1.824   1.852  1.6059  0.5729 -2.2937
 1034SOL    HW214226   6.756   1.748   1.833  1.1542  0.3375  1.7120
 1035SOL     OW14227   2.561   0.379   6.274 -0.3711  0.1985  0.6242
 1035SOL    HW114228   2.555   0.358   6.371  1.5357 -0.5508  0.6009
 1035SOL    HW214229   2.596   0.300   6.224 -0.4711  0.8723 -0.5442
 1036SOL     OW14230   3.675   5.497   5.860  0.4009  0.0589 -0.2474
 1036SOL    HW114231   3.740   5.421   5.855  1.3405  0.9576 -1.8747
 1036SOL    HW214232   3.585   5.465   5.828  0.2266 -0.9512  1.1945
 1037SOL     OW14233   8.108   1.235   4.253 -0.6099 -0.2197  1.0070
 1037SOL    HW114234   8.092   1.137   4.238 -0.2976 -0.8056  4.1044
 1037SOL    HW214235   8.147   1.276   4.171 -1.5001 -2.5158 -0.6149
 1038SOL     OW14236   7.385   9.908   6.639  0.1753 -0.4124  0.1955
 1038SOL    HW114237   7.469   9.884   6.687 -0.6205 -0.6917  1.4858
 1038SOL    HW214238   7.366   9.840   6.568  1.3459 -0.0185 -0.4939
 1041SOL     OW14239   5.317   8.464   6.918  0.2270 -0.1237  0.1244
 1041SOL    HW114240   5.402   8.413   6.907  0.1621 -0.1219 -0.3583
 1041SOL    HW214241   5.337   8.556   6.952  0.2649 -0.8655  2.1720
 1044SOL     OW14242   3.474   4.664   2.695  0.5400  0.2165  0.1923
 1044SOL    HW114243   3.552   4.717   2.659 -0.3827  2.0481  0.8466
 1044SOL    HW214244   3.453   4.693   2.788 -0.4191 -0.8572  0.3294
 1047SOL     OW14245   1.888   1.324   5.926 -0.1694  0.2363  0.4985
 1047SOL    HW114246   1.866   1.233   5.962 -1.6794  0.7146  0.8014
 1047SOL    HW214247   1.812   1.386   5.943  1.1814  1.7799  1.0253
 1048SOL     OW14248   9.541   1.273   2.535 -0.3651  0.2700  0.2259
 1048SOL    HW114249   9.460   1.268   2.477 -0.7983 -1.4424  0.9361
 1048SOL    HW214250   9.591   1.358   2.516 -0.6518 -0.1205 -2.3993
 1049SOL     OW14251   0.702   3.751   0.522  0.5339  0.0152 -0.3292
 1049SOL    HW114252   0.747   3.662   0.525  0.9639  0.2549  0.7117
 1049SOL    HW214253   0.616   3.744   0.472  1.0300 -0.7710 -1.0653
 1050SOL     OW14254   1.423   5.726   5.644  0.0136  0.2854  0.1747
 1050SOL    HW114255   1.409   5.758   5.550 -0.2420 -0.1691  0.0610
 1050SOL    HW214256   1.356   5.656   5.666 -0.3401  0.8584  0.9199
 1052SOL     OW14257   9.260   4.712   5.963  0.1453 -0.1282 -0.1563
 1052SOL    HW114258   9.173   4.664   5.948 -0.2920  0.5713  0.1092
 1052SOL    HW214259   9.272   4.780   5.890 -0.1986  0.7268  0.5800
 1053SOL     OW14260   3.140   2.373   4.791  0.0575 -0.0732  0.6906
 1053SOL    HW114261   3.211   2.425   4.744 -0.5498  0.3697  0.2613
 1053SOL    HW214262   3.115   2.419   4.877  0.5247 -0.4068  1.0089
 1054SOL     OW14263   3.265   0.159   2.372  0.1585  0.0352 -0.3894
 1054SOL    HW114264   3.319   0.243   2.375 -0.1498  0.2415 -0.6892
 1054SOL    HW214265   3.203   0.161   2.294 -1.6451  0.6198  1.0155
 1055SOL     OW14266   3.264   4.737   0.935 -0.4059 -0.0394  0.8212
 1055SOL    HW114267   3.217   4.757   1.021  1.1250 -0.4917  1.7871
 1055SOL    HW214268   3.224   4.656   0.893 -2.4644  1.3215  0.0907
 1056SOL     OW14269   0.812   3.994   2.070 -0.3630  0.4131 -0.1872
 1056SOL    HW114270   0.852   4.055   2.002 -2.8876  1.1661 -1.0824
 1056SOL    HW214271   0.797   3.903   2.029 -2.4422  1.0359 -0.9014
 1057SOL     OW14272   0.631   8.098   0.239  0.2303 -0.3351 -0.3967
 1057SOL    HW114273   0.563   8.169   0.218 -0.6039 -1.0285 -0.0879
 1057SOL    HW214274   0.590   8.008   0.225  1.4301 -0.7629 -1.2452
 1058SOL     OW14275   0.762   7.680   1.535  0.0441  0.1457  0.6237
 1058SOL    HW114276   0.760   7.725   1.445  0.0345 -1.6879 -0.3051
 1058SOL    HW214277   0.760   7.581   1.523 -1.0149 -0.1081  2.6912
 1059SOL     OW14278   0.829   8.992   2.719  0.0630  0.5400 -0.6494
 1059SOL    HW114279   0.860   9.017   2.627 -1.4573 -1.0183 -1.6196
 1059SOL    HW214280   0.729   8.995   2.722 -0.0388 -2.2957  0.0655
 1061SOL     OW14281   1.631   2.203   0.942  0.0945  0.0551  0.0828
 1061SOL    HW114282   1.717   2.193   0.891 -0.4079  1.3578 -1.0482
 1061SOL    HW214283   1.554   2.198   0.878 -0.5032  2.7689  0.5242
 1062SOL     OW14284   3.171   1.174   4.296 -0.2874  0.1793  0.0894
 1062SOL    HW114285   3.136   1.263   4.322  1.3595  0.6251  0.8114
 1062SOL    HW214286   3.097   1.107   4.299 -1.5398  1.5210 -0.5183
 1063SOL     OW14287   2.220   9.961   5.453  0.3565 -0.0725 -0.4848
 1063SOL    HW114288   2.122   9.979   5.453  0.2204 -0.8014 -0.1238
 1063SOL    HW214289   2.246   9.917   5.539  1.0884  0.6118 -0.3536
 1064SOL     OW14290   5.670   7.809   5.667 -0.4825  0.3370 -0.3023
 1064SOL    HW114291   5.724   7.828   5.585 -1.5123 -0.4441 -1.1729
 1064SOL    HW214292   5.713   7.735   5.719  1.7771  2.7787  1.4222
 1066SOL     OW14293   6.884   0.556   1.373  0.6299 -0.0948  0.4724
 1066SOL    HW114294   6.850   0.511   1.291  1.7569 -0.4975  0.2185
 1066SOL    HW214295   6.840   0.645   1.383  1.9637  0.8359 -1.6629
 1067SOL     OW14296   9.541   2.939   2.000 -0.0247 -0.1563 -0.5179
 1067SOL    HW114297   9.578   2.856   1.960 -1.6848 -1.3760  0.3815
 1067SOL    HW214298   9.568   2.945   2.096 -2.6966 -1.4725  0.3690
 1069SOL     OW14299   9.269   9.213   2.542 -0.3840 -0.2425 -0.8342
 1069SOL    HW114300   9.197   9.256   2.597  0.4563 -1.9651  1.7038
 1069SOL    HW214301   9.233   9.132   2.496 -0.1796 -0.9081  0.1617
 1070SOL     OW14302   1.411   7.041   4.964 -0.0893 -0.0040 -0.0632
 1070SOL    HW114303   1.377   7.133   4.942 -0.4723  0.1597  1.1496
 1070SOL    HW214304   1.356   7.002   5.038  0.8970 -0.6778  0.3334
 1071SOL     OW14305   9.059   9.341   3.986 -0.0075 -0.0703  0.1751
 1071SOL    HW114306   9.040   9.434   4.018  0.0101  0.3498 -1.0091
 1071SOL    HW214307   9.129   9.344   3.915  0.4494 -1.0554  0.5766
 1072SOL     OW14308   1.139   9.107   2.370 -0.1015 -0.3855 -0.0582
 1072SOL    HW114309   1.112   9.197   2.334 -1.5617 -1.0632 -0.6905
 1072SOL    HW214310   1.239   9.102   2.376  0.1294  0.2926 -2.6162
 1073SOL     OW14311   5.671   1.603   1.369  0.7820  0.7868 -0.0228
 1073SOL    HW114312   5.682   1.603   1.468 -0.3184 -1.7694  0.1352
 1073SOL    HW214313   5.574   1.597   1.345  1.0604  0.8894 -1.2465
 1074SOL     OW14314   4.443   9.917   3.830  0.0781 -0.2262 -0.3067
 1074SOL    HW114315   4.441  10.015   3.811  0.9304 -0.2045 -0.2876
 1074SOL    HW214316   4.411   9.867   3.749 -1.5090  0.1103  0.0957
 1075SOL     OW14317   1.202   9.824   6.395  0.1700  0.3804 -0.1194
 1075SOL    HW114318   1.285   9.769   6.401 -0.7781 -1.1189 -0.5246
 1075SOL    HW214319   1.202   9.875   6.309  0.0273 -0.6662 -0.7424
 1076SOL     OW14320   7.905   5.645   3.012 -0.4076  0.3338 -0.1263
 1076SOL    HW114321   7.917   5.618   3.107 -0.0388 -0.4473 -0.3838
 1076SOL    HW214322   7.862   5.571   2.961  1.7516 -0.3075 -1.1151
 1077SOL     OW14323   2.445   0.448   0.711  0.4514 -0.5618  0.6549
 1077SOL    HW114324   2.366   0.469   0.655  0.2640 -0.9588  0.7659
 1077SOL    HW214325   2.463   0.524   0.773  1.5289  0.4808 -0.9187
 1078SOL     OW14326   9.041   5.670   4.437  0.0665 -0.6617 -0.4707
 1078SOL    HW114327   9.092   5.756   4.435  0.5623 -0.8925  1.1446
 1078SOL    HW214328   9.090   5.601   4.383 -0.2261  0.0021 -1.5961
 1079SOL     OW14329   1.454   0.955   1.687  0.1300  0.5316  0.0476
 1079SOL    HW114330   1.404   1.029   1.733  0.2376 -0.6383  2.0703
 1079SOL    HW214331   1.546   0.948   1.725  1.6385  2.1572 -3.1290
 1082SOL     OW14332   3.209   1.100   6.605 -1.1829  0.8444 -0.0653
 1082SOL    HW114333   3.270   1.029   6.571 -1.9814  0.1047  0.0468
 1082SOL    HW214334   3.226   1.115   6.703 -0.3723  1.4738 -0.2926
 1083SOL     OW14335   7.817   1.870   3.871  0.2998 -0.2526 -0.6177
 1083SOL    HW114336   7.869   1.809   3.931 -1.1598 -1.3887 -0.4669
 1083SOL    HW214337   7.834   1.965   3.896  0.3947 -0.6909  1.0308
 1084SOL     OW14338   3.602   1.711   0.447  0.5123 -0.2050  0.4097
 1084SOL    HW114339   3.596   1.656   0.364  2.1541 -2.0085  1.4461
 1084SOL    HW214340   3.515   1.758   0.462 -0.0999 -0.5855 -1.8312
 1085SOL     OW14341   1.198   2.047   2.660 -0.3060  0.2094 -0.3691
 1085SOL    HW114342   1.156   2.137   2.661 -0.3017  0.2413 -1.5622
 1085SOL    HW214343   1.130   1.978   2.686 -0.0881  0.6238  1.3620
 1086SOL     OW14344   0.720   0.058   6.684 -0.0147  0.2212  0.0119
 1086SOL    HW114345   0.673   0.043   6.597  0.8242  0.5134 -0.4919
 1086SOL    HW214346   0.717   0.155   6.708 -0.7457  0.0618  0.6025
 1087SOL     OW14347   2.494   9.542   4.103 -0.3500 -0.3733  0.1971
 1087SOL    HW114348   2.395   9.554   4.104 -0.3092  0.8778 -3.3211
 1087SOL    HW214349   2.535   9.595   4.177 -2.1619  0.9868  0.2539
 1088SOL     OW14350   4.516   0.435   3.836 -0.5604 -0.1286  0.1340
 1088SOL    HW114351   4.449   0.486   3.890 -0.2100 -0.3905  0.8158
 1088SOL    HW214352   4.602   0.485   3.832 -0.0718 -0.8659  1.1869
 1089SOL     OW14353   7.288   6.967   4.009  0.1579  0.2094 -0.0616
 1089SOL    HW114354   7.321   6.952   3.916 -0.2143 -2.3323  0.1751
 1089SOL    HW214355   7.331   6.901   4.071 -2.1502 -0.3775  0.9632
 1090SOL     OW14356   0.784   8.266   5.377  0.7374  0.0596 -0.5847
 1090SOL    HW114357   0.846   8.194   5.347  0.1014 -0.3375 -0.9511
 1090SOL    HW214358   0.768   8.258   5.475  1.4733  0.3280 -0.4395
 1091SOL     OW14359   0.777   0.401   4.838 -0.5748 -0.5525  0.4297
 1091SOL    HW114360   0.849   0.381   4.772 -0.8849  1.7975 -0.6679
 1091SOL    HW214361   0.807   0.474   4.899 -2.0936  0.6651 -0.2341
 1093SOL     OW14362   4.116   5.754   7.385 -0.3196 -0.1754  0.0286
 1093SOL    HW114363   4.212   5.775   7.366 -0.2868  0.6013  1.0031
 1093SOL    HW214364   4.068   5.839   7.406 -0.7302 -0.8220  1.7026
 1094SOL     OW14365   2.347   4.780   7.362  0.7600 -0.2660 -0.4554
 1094SOL    HW114366   2.329   4.761   7.459 -0.1713 -3.2189 -1.1607
 1094SOL    HW214367   2.445   4.771   7.344  0.8647 -0.2415  0.0988
 1096SOL     OW14368   3.958   8.521   3.708 -0.1551 -0.6132  0.1267
 1096SOL    HW114369   3.874   8.547   3.757  0.3837  0.3408  0.5468
 1096SOL    HW214370   3.946   8.538   3.611 -0.2520  0.0235  0.2508
 1097SOL     OW14371   7.494   2.400   0.909  0.3619  0.0315 -0.4982
 1097SOL    HW114372   7.403   2.407   0.950 -0.7367 -2.4037 -2.3869
 1097SOL    HW214373   7.562   2.436   0.973 -2.0234  3.2809  0.3751
 1098SOL     OW14374   4.983   0.649   2.369  0.1067  0.0084 -0.1632
 1098SOL    HW114375   4.887   0.663   2.393  0.5510  0.8659  1.1483
 1098SOL    HW214376   5.012   0.717   2.302 -0.3430 -0.6108 -1.0047
 1100SOL     OW14377   2.766   0.532   3.597 -0.4119  0.4073  0.6147
 1100SOL    HW114378   2.707   0.539   3.517 -1.1176  2.0008  1.2541
 1100SOL    HW214379   2.854   0.577   3.578 -0.6028  0.8404  0.7582
 1101SOL     OW14380   2.537   9.952   1.776 -0.1237  0.1184 -0.2255
 1101SOL    HW114381   2.545   9.866   1.826 -0.1888 -0.3485 -1.0159
 1101SOL    HW214382   2.447   9.957   1.732 -0.3264  0.8312  0.2596
 1102SOL     OW14383   2.545   6.535   5.616  0.0548  0.5213  0.7780
 1102SOL    HW114384   2.541   6.625   5.574  0.7144 -1.0734 -2.8950
 1102SOL    HW214385   2.639   6.512   5.638  0.1078  0.0199  0.0466
 1103SOL     OW14386   7.290   7.066   6.376  0.1770 -0.8105 -0.3438
 1103SOL    HW114387   7.200   7.029   6.397  0.7597 -3.2003 -1.8449
 1103SOL    HW214388   7.282   7.161   6.346 -1.6781 -0.6383  0.6439
 1104SOL     OW14389   1.080   0.633   0.728  0.1546 -0.1063 -0.3502
 1104SOL    HW114390   1.012   0.706   0.732 -0.1766 -0.5112  4.0978
 1104SOL    HW214391   1.167   0.665   0.764  0.0910 -1.7455  1.3788
 1106SOL     OW14392   9.229   8.681   0.246 -0.0214 -0.8874 -0.1726
 1106SOL    HW114393   9.259   8.747   0.315 -0.1563 -0.0668 -0.8779
 1106SOL    HW214394   9.279   8.595   0.257  1.2525 -0.1526 -0.1748
 1110SOL     OW14395   8.999   1.016   0.457  0.2567  0.3163 -0.4362
 1110SOL    HW114396   8.939   1.091   0.429  1.5257  1.9221  0.9802
 1110SOL    HW214397   8.999   1.010   0.557  1.9586 -0.0437 -0.4436
 1112SOL     OW14398   3.241   4.566   6.374  0.0977 -0.1348  0.0695
 1112SOL    HW114399   3.236   4.659   6.338  0.2556 -0.6169 -1.2206
 1112SOL    HW214400   3.182   4.558   6.454 -0.1591  0.9952 -0.0052
 1113SOL     OW14401   7.238   8.191   6.537  0.1111  0.3541 -0.3839
 1113SOL    HW114402   7.201   8.139   6.459 -0.4035  1.0318 -0.5953
 1113SOL    HW214403   7.332   8.163   6.554 -0.4690 -1.3835  0.1377
 1114SOL     OW14404   5.779   9.875   6.821 -0.0765 -0.3399 -0.5492
 1114SOL    HW114405   5.696   9.851   6.871  1.1468 -0.1168  1.6535
 1114SOL    HW214406   5.816   9.792   6.778  0.4710 -1.1523  1.4237
 1115SOL     OW14407   3.292   6.207   2.589 -0.4070  0.2020  0.4352
 1115SOL    HW114408   3.317   6.111   2.577  1.0773  0.1247  3.4783
 1115SOL    HW214409   3.199   6.221   2.558 -0.8392 -2.3527  0.4343
 1116SOL     OW14410   9.200   9.713   2.357  0.5296 -0.1470 -0.3442
 1116SOL    HW114411   9.100   9.717   2.371 -0.0155  0.8411 -4.0991
 1116SOL    HW214412   9.241   9.795   2.396 -0.3395  0.2582 -0.2515
 1117SOL     OW14413   7.673   9.069   3.667  0.7204 -0.2692  0.1608
 1117SOL    HW114414   7.612   9.050   3.744  0.2099 -1.2194 -0.4650
 1117SOL    HW214415   7.765   9.086   3.701  0.3309  0.1277  1.0430
 1118SOL     OW14416   0.621   6.227   2.938  0.0920  0.0528  0.3993
 1118SOL    HW114417   0.692   6.263   2.878  1.9206 -2.6773  0.8178
 1118SOL    HW214418   0.553   6.176   2.885  0.5966 -0.6191  0.3822
 1119SOL     OW14419   1.681   4.493   6.643 -0.2503  0.1297 -0.1789
 1119SOL    HW114420   1.753   4.427   6.620  1.0270  1.1619  0.7660
 1119SOL    HW214421   1.597   4.470   6.594  0.5158 -1.5247 -0.7322
 1120SOL     OW14422   5.664   1.340   3.445  0.0517 -0.6236  0.6339
 1120SOL    HW114423   5.675   1.242   3.427 -2.0777 -0.7374 -0.0815
 1120SOL    HW214424   5.637   1.387   3.361 -0.7015  0.2915  1.3788
 1121SOL     OW14425   5.087   9.792   1.801  0.5241 -1.4875  0.2590
 1121SOL    HW114426   5.126   9.882   1.820 -0.6246 -0.8281 -0.4368
 1121SOL    HW214427   5.074   9.742   1.887 -0.1250 -0.4501  0.7711
 1122SOL     OW14428   8.812   9.313   3.527 -0.3340  0.1040 -0.5410
 1122SOL    HW114429   8.722   9.346   3.556 -0.0470  0.4936 -0.0849
 1122SOL    HW214430   8.835   9.351   3.437  0.7213  2.5269  0.7076
 1123SOL     OW14431   5.894   2.326   2.104  0.0449  0.2224 -0.0326
 1123SOL    HW114432   5.952   2.383   2.162 -0.8377  0.4624  0.6356
 1123SOL    HW214433   5.803   2.367   2.099  0.0093  0.0251 -1.3202
 1124SOL     OW14434   2.497   6.074   7.678 -0.4446  0.5551 -0.4561
 1124SOL    HW114435   2.586   6.114   7.657  0.3997  0.5161  2.8425
 1124SOL    HW214436   2.426   6.144   7.665  0.1735  0.9415 -1.8915
 1126SOL     OW14437   8.444   2.636   5.893  0.4762 -0.5895 -0.2438
 1126SOL    HW114438   8.412   2.672   5.806 -0.3471 -2.5175 -0.7816
 1126SOL    HW214439   8.368   2.587   5.938  0.9601  0.1702  1.4252
 1128SOL     OW14440   3.745   3.551   5.782  0.5929  0.2737 -0.0680
 1128SOL    HW114441   3.815   3.622   5.780  1.1238 -0.2566 -0.7669
 1128SOL    HW214442   3.781   3.469   5.828 -0.1298  0.5695  1.0416
 1129SOL     OW14443   2.956   0.053   7.135  0.2116  0.4206 -0.0575
 1129SOL    HW114444   3.022  -0.010   7.176  0.0920  0.4967  0.2508
 1129SOL    HW214445   3.003   0.112   7.070  0.2129 -0.3900 -0.7942
 1130SOL     OW14446   4.461   9.398   1.034  0.1150  0.0228  0.1675
 1130SOL    HW114447   4.428   9.475   1.088  2.6719  0.7486  0.7180
 1130SOL    HW214448   4.395   9.377   0.962 -1.0786  2.0415  0.6550
 1131SOL     OW14449   3.917   0.784   2.716  0.1405  0.1343  0.8314
 1131SOL    HW114450   4.009   0.823   2.703 -1.0831  3.0109  0.2898
 1131SOL    HW214451   3.897   0.720   2.642  1.5370 -0.1805  0.7171
 1132SOL     OW14452   7.594   4.797   0.726  0.0206  0.2673  0.5892
 1132SOL    HW114453   7.506   4.752   0.709 -0.2803  0.2594  2.0424
 1132SOL    HW214454   7.661   4.729   0.755  0.0972  0.4722  0.8963
 1134SOL     OW14455   4.572   8.157   5.840  0.1190 -0.2862 -0.4164
 1134SOL    HW114456   4.500   8.090   5.858  0.2320 -0.4900 -0.7329
 1134SOL    HW214457   4.534   8.234   5.789 -0.0301 -0.0634  0.0245
 1135SOL     OW14458   8.623   2.644   2.811 -0.4330 -0.0650 -0.4011
 1135SOL    HW114459   8.705   2.701   2.825 -0.8990 -0.1592  3.0503
 1135SOL    HW214460   8.638   2.583   2.733  2.4166  0.5739 -0.4087
 1136SOL     OW14461   2.189   6.217   6.451  0.3308 -0.4024  0.2060
 1136SOL    HW114462   2.113   6.276   6.480  2.5920  2.3323  0.7230
 1136SOL    HW214463   2.227   6.170   6.530  0.1735 -0.5590  0.1887
 1137SOL     OW14464   2.992   8.303   2.028  0.1207  0.1503 -0.0070
 1137SOL    HW114465   3.038   8.369   2.088 -0.1222 -0.1092  0.4655
 1137SOL    HW214466   3.016   8.210   2.056  2.1488  0.0398 -1.9795
 1138SOL     OW14467   3.609   7.175   7.417 -0.1993  0.4934 -0.4060
 1138SOL    HW114468   3.536   7.177   7.485  0.9224  0.8223  0.8313
 1138SOL    HW214469   3.636   7.081   7.399  0.4561  0.4639  0.6848
 1139SOL     OW14470   5.490   5.778   0.946 -0.3664 -0.0597 -0.1540
 1139SOL    HW114471   5.533   5.693   0.978 -0.0409 -0.0818 -0.6296
 1139SOL    HW214472   5.412   5.755   0.887 -0.8017 -0.0226  0.4126
 1140SOL     OW14473   5.853   9.629   6.233  0.4430 -0.3481 -0.0281
 1140SOL    HW114474   5.854   9.604   6.136 -0.9159  0.4514 -0.2515
 1140SOL    HW214475   5.920   9.701   6.250 -1.4896  1.7600 -1.0109
 1143SOL     OW14476   0.837   9.139   2.070 -0.2161  0.3506 -0.0747
 1143SOL    HW114477   0.810   9.216   2.127  2.9433 -0.7255  3.0586
 1143SOL    HW214478   0.784   9.058   2.096  0.8648 -0.0153  1.0283
 1144SOL     OW14479   2.427   7.077   2.804 -0.2766  0.2512 -0.2146
 1144SOL    HW114480   2.479   7.100   2.886 -0.5741 -0.1484  0.0865
 1144SOL    HW214481   2.483   7.018   2.745 -0.0339  0.6035 -0.3345
 1146SOL     OW14482   3.806   6.744   2.854 -0.3672 -0.3117  0.1880
 1146SOL    HW114483   3.834   6.692   2.773 -1.0841 -1.7486  0.8477
 1146SOL    HW214484   3.720   6.707   2.890 -0.1932  0.4834  1.4605
 1147SOL     OW14485   0.453   3.657   7.900  0.5116 -0.1945  0.0062
 1147SOL    HW114486   0.446   3.559   7.881  1.5458 -0.1000 -0.9785
 1147SOL    HW214487   0.441   3.674   7.997  0.4029 -1.3188  0.1913
 1148SOL     OW14488   2.610   5.643   3.288 -0.3143 -0.0809  0.2651
 1148SOL    HW114489   2.672   5.719   3.268 -0.9773  0.3071 -0.3389
 1148SOL    HW214490   2.636   5.600   3.374  1.1380 -0.2770 -0.2548
 1149SOL     OW14491   7.298   5.971   6.755 -0.1608 -0.1580 -0.0603
 1149SOL    HW114492   7.224   5.978   6.688  0.6193 -0.5575 -0.9750
 1149SOL    HW214493   7.286   6.041   6.825 -0.6705  0.6253 -0.9255
 1151SOL     OW14494   8.684   2.812   3.563 -0.0749 -0.0219  0.0432
 1151SOL    HW114495   8.693   2.791   3.465 -1.0032 -1.9865  0.3482
 1151SOL    HW214496   8.605   2.764   3.600  0.9059 -0.1763  2.0171
 1152SOL     OW14497   3.262   6.228   6.348 -0.2164  0.5300 -0.0609
 1152SOL    HW114498   3.280   6.258   6.441  1.6841 -0.9192  0.0731
 1152SOL    HW214499   3.230   6.133   6.349  2.0513 -0.2955 -0.9878
 1153SOL     OW14500   6.253   0.519   1.787  0.2949 -0.1470  0.1942
 1153SOL    HW114501   6.343   0.482   1.810  0.9112  1.1414 -0.1104
 1153SOL    HW214502   6.253   0.554   1.694  0.0351  1.5736  0.8295
 1154SOL     OW14503   1.697   7.058   1.937 -0.1747  0.1252 -0.4038
 1154SOL    HW114504   1.757   7.070   1.858  0.0924 -0.8335 -0.3491
 1154SOL    HW214505   1.753   7.038   2.018 -0.4375  1.1895  0.0522
 1155SOL     OW14506   5.831   9.046   2.191  0.5583  0.2075  0.0701
 1155SOL    HW114507   5.748   9.064   2.138  0.1319  1.4476  1.1101
 1155SOL    HW214508   5.866   8.955   2.170 -0.3769  0.1618 -1.2940
 1156SOL     OW14509   2.591   7.914   5.555  0.3131  0.0912  0.3602
 1156SOL    HW114510   2.671   7.858   5.573  1.2502  0.9202 -1.0728
 1156SOL    HW214511   2.538   7.874   5.480  0.3666  0.5038  0.0982
 1158SOL     OW14512   1.573   7.589   1.387 -0.0075 -0.0743 -0.3597
 1158SOL    HW114513   1.622   7.551   1.465 -1.2229 -0.0124  0.4491
 1158SOL    HW214514   1.622   7.670   1.353  0.4987 -0.0655  0.3744
 1159SOL     OW14515   2.810   1.754   2.958 -0.0421  0.3945 -0.1024
 1159SOL    HW114516   2.886   1.737   3.020 -0.2111 -0.6498 -0.1623
 1159SOL    HW214517   2.780   1.849   2.966  0.4871  0.4908  0.7894
 1160SOL     OW14518   8.265   2.791   1.303 -0.0145 -1.0340 -0.1158
 1160SOL    HW114519   8.340   2.848   1.269 -1.0705  0.9920  0.7836
 1160SOL    HW214520   8.223   2.742   1.227  0.1595  0.3477 -1.1211
 1161SOL     OW14521   2.875   7.805   2.773 -0.7452 -0.2399 -0.1539
 1161SOL    HW114522   2.927   7.728   2.735  0.1464  0.8717 -1.1998
 1161SOL    HW214523   2.879   7.883   2.711 -1.8776  0.5857  0.7695
 1164SOL     OW14524   6.039   7.542   6.396 -0.3271 -0.1384 -0.0893
 1164SOL    HW114525   6.054   7.557   6.298  0.9517 -1.2901 -0.0669
 1164SOL    HW214526   6.124   7.557   6.446 -0.9795  0.4706  0.8626
 1165SOL     OW14527   9.426   5.642   2.544 -0.0600 -0.1616  0.6966
 1165SOL    HW114528   9.452   5.711   2.611  2.2618 -2.2681  2.0436
 1165SOL    HW214529   9.387   5.563   2.591 -0.5265 -0.7493 -0.6420
 1166SOL     OW14530   6.265   1.474   1.508  0.2158  0.1451  0.2249
 1166SOL    HW114531   6.236   1.558   1.553  0.7374 -0.0675  0.9598
 1166SOL    HW214532   6.188   1.410   1.505 -0.4455  0.9726 -1.1394
 1167SOL     OW14533   2.891   3.356   4.977 -0.0240 -0.1533 -0.0597
 1167SOL    HW114534   2.951   3.432   4.950 -1.5736  0.7656 -1.0808
 1167SOL    HW214535   2.796   3.381   4.956 -0.9104 -1.0095  2.7839
 1168SOL     OW14536   2.945   0.186   7.910 -0.6137  0.8045  0.5528
 1168SOL    HW114537   2.999   0.243   7.971  0.1899  1.7880 -1.0340
 1168SOL    HW214538   2.905   0.243   7.838  0.6655 -0.6836 -1.4019
 1171SOL     OW14539   4.086   0.488   4.924  0.2560 -0.8207  0.1671
 1171SOL    HW114540   4.106   0.579   4.887  1.9678 -1.5704 -0.8348
 1171SOL    HW214541   3.991   0.483   4.952  0.0442  1.1534 -0.1767
 1172SOL     OW14542   3.667   5.378   3.094  0.1286 -0.4727  0.2018
 1172SOL    HW114543   3.679   5.278   3.089  0.1295 -0.3943 -1.4569
 1172SOL    HW214544   3.572   5.401   3.074  0.4487 -0.0399 -0.8346
 1173SOL     OW14545   9.942   4.780   6.377  0.1397 -0.3147  0.4315
 1173SOL    HW114546   9.860   4.785   6.433  0.5126  0.6161  0.8997
 1173SOL    HW214547  10.023   4.795   6.434  0.5052  1.0722 -0.4218
 1175SOL     OW14548   2.381   1.338   6.453  0.6514 -0.2381  0.1911
 1175SOL    HW114549   2.286   1.369   6.458  1.0051  0.9922 -0.3517
 1175SOL    HW214550   2.410   1.303   6.542  0.1675  0.8497  0.7834
 1178SOL     OW14551   9.345   4.686   6.663  0.6664  0.5398  0.4265
 1178SOL    HW114552   9.259   4.634   6.670 -0.2704  2.1461  1.1706
 1178SOL    HW214553   9.397   4.654   6.585 -0.0834 -1.2464  0.6299
 1181SOL     OW14554   1.631   4.959   0.682  0.2616 -0.0896  0.1271
 1181SOL    HW114555   1.712   5.000   0.639 -1.0869  2.4734 -0.0496
 1181SOL    HW214556   1.570   4.925   0.611 -0.3383  0.9825  0.1167
 1183SOL     OW14557   0.121   5.568   7.546 -0.1218  0.0108  0.6394
 1183SOL    HW114558   0.190   5.635   7.518 -0.4688  0.0567 -0.1156
 1183SOL    HW214559   0.136   5.483   7.496  0.2059 -0.4154  1.4600
 1184SOL     OW14560   5.520   9.257   3.760 -0.3199 -0.2613 -0.1201
 1184SOL    HW114561   5.488   9.228   3.670  1.4655  1.1101 -1.2350
 1184SOL    HW214562   5.556   9.178   3.810 -0.0960 -0.8087 -1.1404
 1185SOL     OW14563   0.772   0.611   3.063 -0.3381  0.5164 -0.5503
 1185SOL    HW114564   0.839   0.628   3.135 -3.1722  0.8132  2.1073
 1185SOL    HW214565   0.818   0.612   2.974  2.9439  1.9233  1.0759
 1186SOL     OW14566   8.333   0.116   5.284 -0.2416  0.6888 -0.3770
 1186SOL    HW114567   8.385   0.169   5.217 -0.3815 -0.4565 -1.4131
 1186SOL    HW214568   8.235   0.126   5.266 -0.2634 -0.0329 -0.6774
 1187SOL     OW14569   2.979   3.734   3.637  0.3073 -0.2385  0.2522
 1187SOL    HW114570   2.929   3.649   3.650 -1.6196  0.6822 -0.9749
 1187SOL    HW214571   2.936   3.807   3.690  1.1523  0.2930  0.2281
 1188SOL     OW14572   2.173   9.070   0.378  0.4626  0.7045  0.6496
 1188SOL    HW114573   2.073   9.070   0.383  0.4808  2.6439  1.2456
 1188SOL    HW214574   2.201   9.057   0.282 -0.4112  2.0357  0.1919
 1190SOL     OW14575   9.865   1.397   5.200  0.1457  0.1292 -0.4763
 1190SOL    HW114576   9.845   1.489   5.233  2.0882 -0.0704  1.3378
 1190SOL    HW214577   9.863   1.333   5.276  4.0755 -0.4534 -0.7363
 1191SOL     OW14578   0.630   7.198   5.958 -0.2751  0.3314  0.2559
 1191SOL    HW114579   0.570   7.155   6.025 -0.5385  0.5645  0.1713
 1191SOL    HW214580   0.694   7.260   6.004 -1.1072  1.2417  0.1900
 1192SOL     OW14581   3.510   1.066   2.057 -0.2378 -0.1239 -0.1503
 1192SOL    HW114582   3.587   1.116   2.097 -1.6277  1.4979  0.6152
 1192SOL    HW214583   3.506   1.084   1.959 -0.4683  0.9642  0.0453
 1193SOL     OW14584   7.996   5.076   0.928  0.0746  0.9571 -0.0376
 1193SOL    HW114585   7.932   5.078   0.851 -0.0735 -0.0354  0.0457
 1193SOL    HW214586   8.049   4.991   0.924 -1.0547  0.1274  1.8481
 1194SOL     OW14587   7.745   7.487   7.718 -0.1303 -0.2084  0.0104
 1194SOL    HW114588   7.735   7.587   7.723  2.5804  0.0854  0.4770
 1194SOL    HW214589   7.801   7.463   7.638  0.0146 -1.2731  0.4248
 1195SOL     OW14590   0.426   0.286   0.853 -0.6613  0.1496 -0.3364
 1195SOL    HW114591   0.401   0.204   0.802  1.6233 -1.5010  1.0796
 1195SOL    HW214592   0.441   0.361   0.789 -1.4034 -0.9068 -1.7821
 1196SOL     OW14593   1.791   1.994   6.237  0.2258 -0.0848  0.2773
 1196SOL    HW114594   1.757   1.932   6.308 -0.0389 -0.9398 -0.5810
 1196SOL    HW214595   1.888   2.013   6.252 -0.1396  0.7933  1.6125
 1197SOL     OW14596   1.295   2.624   4.060  0.1956  0.2631  0.0213
 1197SOL    HW114597   1.379   2.570   4.057  0.3987  0.5009  1.2091
 1197SOL    HW214598   1.316   2.719   4.038  0.4333  0.5475  1.4648
 1198SOL     OW14599   3.272   3.023   2.042 -0.0972 -0.3905  0.2581
 1198SOL    HW114600   3.204   3.031   1.969 -0.6612  0.1695  0.8429
 1198SOL    HW214601   3.237   3.066   2.126  1.7112  1.5025  0.0683
 1199SOL     OW14602   7.658   7.109   1.563  0.2532  0.1579  0.1378
 1199SOL    HW114603   7.585   7.041   1.572  0.6499 -0.2585  0.2749
 1199SOL    HW214604   7.620   7.194   1.527  0.0056 -0.6325 -1.5221
 1201SOL     OW14605   6.844   3.260   1.379  0.7335 -0.4529 -0.1000
 1201SOL    HW114606   6.752   3.222   1.370  0.5681 -0.0300 -0.1939
 1201SOL    HW214607   6.910   3.185   1.380  0.2921 -0.8377  1.3305
 1202SOL     OW14608   6.849   3.887   1.540  0.5980  0.3581 -0.7383
 1202SOL    HW114609   6.765   3.846   1.506 -0.6951  0.6384  1.9756
 1202SOL    HW214610   6.917   3.815   1.557 -0.3298 -0.2625  0.3971
 1205SOL     OW14611   2.898   9.592   7.649 -0.4674  0.2208  0.0845
 1205SOL    HW114612   2.949   9.531   7.708 -1.5358  1.1858  2.0585
 1205SOL    HW214613   2.827   9.541   7.600 -0.3106 -0.3862  0.4923
 1206SOL     OW14614   9.503   4.650   6.080  0.2481  0.0003  0.4729
 1206SOL    HW114615   9.545   4.571   6.036  0.5522 -0.0168  0.7951
 1206SOL    HW214616   9.408   4.658   6.050  0.5767  0.2489 -0.5374
 1209SOL     OW14617   2.641   6.336   2.723  0.1908 -0.3010  0.1867
 1209SOL    HW114618   2.711   6.394   2.765  0.3869  0.2140 -0.8263
 1209SOL    HW214619   2.620   6.371   2.632 -1.5793 -0.3075  0.5770
 1210SOL     OW14620   0.093   1.533   6.876  0.7635 -0.0808  0.5530
 1210SOL    HW114621   0.083   1.589   6.794 -1.0809 -1.6854 -0.3514
 1210SOL    HW214622   0.073   1.438   6.854 -2.3510 -0.1706  3.4355
 1211SOL     OW14623   0.620   5.543   3.560 -0.0843  0.2605  0.0724
 1211SOL    HW114624   0.659   5.630   3.529  1.3226 -0.4467 -0.1708
 1211SOL    HW214625   0.558   5.508   3.490  0.9538  0.0405 -0.7435
 1212SOL     OW14626   9.502   3.540   4.936 -0.2098 -0.2002 -0.2934
 1212SOL    HW114627   9.590   3.574   4.968  0.0560 -0.8009 -0.3816
 1212SOL    HW214628   9.472   3.466   4.995  0.5714 -1.7314 -1.7606
 1213SOL     OW14629   3.802   7.535   6.097  0.2507  0.7709 -0.0889
 1213SOL    HW114630   3.742   7.459   6.121 -0.3124  0.9602 -0.8626
 1213SOL    HW214631   3.794   7.608   6.165  0.3693  0.3643  0.3542
 1214SOL     OW14632   3.080   5.964   1.184 -0.2425 -0.5743 -0.1836
 1214SOL    HW114633   3.180   5.963   1.183 -0.2428 -0.8780 -1.6415
 1214SOL    HW214634   3.046   5.919   1.101 -1.5669  0.5296 -0.2537
 1215SOL     OW14635   4.768   8.805   1.695 -0.2272  0.5617  0.0761
 1215SOL    HW114636   4.820   8.742   1.637 -2.2335 -0.0101 -1.1497
 1215SOL    HW214637   4.814   8.894   1.697 -0.4096  0.7593 -2.8444
 1216SOL     OW14638   7.309   1.896   3.540  0.3854 -0.1900  0.3735
 1216SOL    HW114639   7.224   1.845   3.555  0.3223 -0.3867 -0.5774
 1216SOL    HW214640   7.361   1.900   3.625  0.3692 -1.8329  0.4831
 1217SOL     OW14641   2.745   7.544   5.092 -0.3471 -0.6146 -0.2432
 1217SOL    HW114642   2.832   7.581   5.059 -0.5185  1.0360  1.0844
 1217SOL    HW214643   2.670   7.579   5.036 -0.3415 -0.4728 -0.1613
 1218SOL     OW14644   0.914   2.483   7.552  0.1528  0.0857 -0.6698
 1218SOL    HW114645   0.830   2.534   7.538  1.2319  1.9981 -0.4325
 1218SOL    HW214646   0.909   2.431   7.637 -0.7319  0.2857 -0.6017
 1219SOL     OW14647   1.361   3.163   1.716  0.0657 -0.1332 -0.5189
 1219SOL    HW114648   1.391   3.221   1.792 -0.1429 -0.1261 -0.4426
 1219SOL    HW214649   1.356   3.217   1.632  0.5046 -0.1897 -0.5817
 1220SOL     OW14650   2.676   6.162   1.949  0.4003  0.0223 -0.5260
 1220SOL    HW114651   2.737   6.226   1.996 -1.8514  0.9480  1.2467
 1220SOL    HW214652   2.636   6.100   2.016 -0.3871 -0.7367 -1.6969
 1223SOL     OW14653   3.139   7.854   5.020 -0.3183  0.3031 -0.3658
 1223SOL    HW114654   3.159   7.825   4.927  1.9315  1.4889 -0.2873
 1223SOL    HW214655   3.186   7.794   5.085  2.6745  2.7596 -0.1596
 1224SOL     OW14656   4.531   1.381   1.135 -0.5703 -0.0778  0.6540
 1224SOL    HW114657   4.456   1.437   1.171  1.4387  2.6713  0.6804
 1224SOL    HW214658   4.601   1.440   1.096  0.6800 -2.7036 -1.1975
 1225SOL     OW14659   7.671   0.932   2.267 -0.4281  0.4395  0.1616
 1225SOL    HW114660   7.638   0.923   2.361 -1.4782  1.0238 -0.1408
 1225SOL    HW214661   7.727   0.853   2.243  0.0299  0.4003  1.3547
 1226SOL     OW14662   7.986   6.316   7.047 -0.3255 -0.0277 -0.4072
 1226SOL    HW114663   7.909   6.326   6.984 -1.3220  2.1492  1.1196
 1226SOL    HW214664   7.976   6.232   7.099 -0.3714 -0.9906 -1.9289
 1227SOL     OW14665   2.872   8.816   3.289  0.4847  0.4017 -0.1832
 1227SOL    HW114666   2.901   8.853   3.201  1.7744  1.7471  0.7770
 1227SOL    HW214667   2.943   8.756   3.325 -0.5016 -0.9997 -0.5392
 1228SOL     OW14668   1.374   4.990   5.072 -0.5950 -0.4338  0.0368
 1228SOL    HW114669   1.281   5.024   5.062  0.1074  1.6288  0.3168
 1228SOL    HW214670   1.406   4.954   4.985 -0.8478  0.9392 -0.6217
 1230SOL     OW14671   3.496   5.693   5.351 -0.0726 -0.4023  0.2954
 1230SOL    HW114672   3.536   5.729   5.267 -1.8974  0.4242 -0.2371
 1230SOL    HW214673   3.569   5.668   5.414  1.2969  0.1084 -1.0524
 1233SOL     OW14674   9.488   5.048   6.782  0.4908  0.1247 -0.1293
 1233SOL    HW114675   9.549   4.975   6.810 -1.6230 -1.5072  0.3745
 1233SOL    HW214676   9.499   5.066   6.684  0.6066 -1.3009 -0.3900
 1234SOL     OW14677   3.137   6.403   1.382  0.0192  1.4437  0.1429
 1234SOL    HW114678   3.127   6.412   1.481 -0.2533  1.4145  0.1176
 1234SOL    HW214679   3.181   6.485   1.345 -0.1264  1.5702  0.2518
 1235SOL     OW14680   8.995   0.437   3.240  0.0172 -0.4916  0.3751
 1235SOL    HW114681   8.905   0.400   3.216  0.4400 -0.3914 -1.4335
 1235SOL    HW214682   9.064   0.365   3.235  0.8188  0.4035 -3.0206
 1236SOL     OW14683   2.221   6.399   3.469  0.0917 -0.0494 -0.0382
 1236SOL    HW114684   2.216   6.470   3.398 -1.0055 -0.8731 -0.8143
 1236SOL    HW214685   2.263   6.317   3.431 -0.3366 -0.4330  0.3113
 1237SOL     OW14686   0.832   7.700   6.363  0.1422 -0.0833  0.0591
 1237SOL    HW114687   0.861   7.624   6.421 -0.5581 -1.4185 -1.3270
 1237SOL    HW214688   0.912   7.743   6.322  0.4411 -1.0722 -0.4040
 1240SOL     OW14689   3.290   7.975   7.418 -0.2132 -0.4016  0.6820
 1240SOL    HW114690   3.240   7.934   7.494  0.2260  0.1549  1.2773
 1240SOL    HW214691   3.341   7.904   7.370  1.1223 -0.4671  2.1516
 1242SOL     OW14692   6.626   8.510   6.161 -0.3940 -0.1934 -0.0983
 1242SOL    HW114693   6.605   8.607   6.163 -0.2551 -0.1774  1.2841
 1242SOL    HW214694   6.549   8.458   6.198 -0.9559 -0.7113 -1.9512
 1243SOL     OW14695   9.272   1.500   3.228 -0.0132 -0.4977  0.2724
 1243SOL    HW114696   9.201   1.491   3.159 -1.4757  0.8000  1.5698
 1243SOL    HW214697   9.290   1.411   3.270 -2.6665 -0.4344  1.6492
 1244SOL     OW14698   5.778   0.698   3.317 -0.0333  0.3730 -0.5734
 1244SOL    HW114699   5.710   0.768   3.296  0.3995  0.4142 -1.9227
 1244SOL    HW214700   5.868   0.740   3.326  0.0147  0.1599 -0.0730
 1246SOL     OW14701   3.610   3.120   5.323 -0.1107 -0.4249 -0.3766
 1246SOL    HW114702   3.673   3.114   5.401 -1.6467 -0.3519  0.8825
 1246SOL    HW214703   3.553   3.038   5.320 -0.2948 -0.2699 -1.2309
 1247SOL     OW14704   4.336   4.083   7.139  0.4545  0.5225 -0.7536
 1247SOL    HW114705   4.265   4.054   7.203  0.1008 -0.5377 -1.6194
 1247SOL    HW214706   4.425   4.081   7.186  0.0576  0.8747  0.0337
 1248SOL     OW14707   0.377   8.552   2.775  0.5532  0.6177  0.2703
 1248SOL    HW114708   0.363   8.460   2.738 -0.8524  0.9208  0.0279
 1248SOL    HW214709   0.324   8.618   2.722  0.8779  1.4535  0.9728
 1249SOL     OW14710   1.461   2.984   1.235  0.1755  0.6279 -0.3641
 1249SOL    HW114711   1.531   3.038   1.188  0.8848 -0.4018 -0.5129
 1249SOL    HW214712   1.459   2.892   1.197 -0.2399  0.2081  0.6560
 1251SOL     OW14713   7.990   8.459   3.297  0.1274 -0.3279  0.1215
 1251SOL    HW114714   7.928   8.459   3.376  0.3190 -0.3643  0.2707
 1251SOL    HW214715   7.978   8.374   3.246  0.6853 -0.7227  0.6429
 1252SOL     OW14716   8.423   3.123   1.591 -0.1705  0.2472  0.9079
 1252SOL    HW114717   8.342   3.139   1.535 -0.6824 -0.4102  1.4494
 1252SOL    HW214718   8.399   3.063   1.667  1.2389 -1.3810  0.0797
 1254SOL     OW14719   4.647   9.179   6.358 -0.0591  0.5213 -0.1676
 1254SOL    HW114720   4.696   9.198   6.274  0.5649  0.5905  0.2134
 1254SOL    HW214721   4.568   9.240   6.366 -0.6347 -0.0785 -1.1270
 1255SOL     OW14722   0.621   7.335   1.192 -0.0372  0.1646 -0.3634
 1255SOL    HW114723   0.677   7.257   1.164 -0.3317 -0.4979  0.8584
 1255SOL    HW214724   0.680   7.410   1.219  0.2487  0.3360 -1.4196
 1257SOL     OW14725   6.597   9.875   5.755  0.7101  0.1071  0.0775
 1257SOL    HW114726   6.557   9.832   5.837  2.1717  0.0690  0.7883
 1257SOL    HW214727   6.595   9.810   5.679 -0.1621 -0.0474  0.2287
 1260SOL     OW14728   4.926   2.956   2.112 -0.0169  0.2561 -0.2388
 1260SOL    HW114729   4.971   2.976   2.026 -1.5360  3.8610 -0.2707
 1260SOL    HW214730   4.847   2.896   2.095  1.0400 -0.9413 -1.0009
 1262SOL     OW14731   7.298   4.796   2.730  0.0751 -0.2135 -0.0757
 1262SOL    HW114732   7.214   4.742   2.740 -1.1783  1.7573  0.2889
 1262SOL    HW214733   7.317   4.810   2.633 -0.1108 -0.5161 -0.1586
 1263SOL     OW14734   9.866   5.505   7.327 -0.3662 -0.4462  0.4569
 1263SOL    HW114735   9.858   5.470   7.420 -0.5190 -0.0926  0.5737
 1263SOL    HW214736   9.776   5.533   7.294 -0.0222  1.1755  0.8757
 1264SOL     OW14737   6.958   6.918   2.835 -0.0541  0.5044  0.1651
 1264SOL    HW114738   6.978   6.824   2.806 -2.3480 -0.3955  1.3653
 1264SOL    HW214739   7.015   6.942   2.913 -0.2401 -0.2716  0.5386
 1265SOL     OW14740   8.666   0.194   3.528  0.0186  0.2369  0.1261
 1265SOL    HW114741   8.690   0.190   3.431 -0.4588 -4.4783  0.0771
 1265SOL    HW214742   8.749   0.207   3.582  0.4002  1.9062 -0.8231
 1266SOL     OW14743   2.779   8.729   2.617  0.2338 -0.1666  0.0669
 1266SOL    HW114744   2.809   8.685   2.702 -0.9799  0.3495  0.7875
 1266SOL    HW214745   2.686   8.764   2.629 -0.5078 -1.3418 -1.9545
 1267SOL     OW14746   1.271   5.511   5.639 -0.1487 -0.2179  0.2448
 1267SOL    HW114747   1.295   5.459   5.721 -0.8403 -1.1034 -0.1119
 1267SOL    HW214748   1.189   5.471   5.597  0.8101 -0.3944 -1.4725
 1268SOL     OW14749   0.080   7.126   3.629  0.3364 -0.6360 -0.5357
 1268SOL    HW114750   0.103   7.063   3.555  1.0452 -0.3630 -0.5530
 1268SOL    HW214751   0.121   7.093   3.715 -0.0098 -0.6546 -0.3770
 1270SOL     OW14752   0.986   4.934   7.521 -0.3380 -0.4127  0.3793
 1270SOL    HW114753   0.951   4.987   7.598  0.2357  0.4622  0.0387
 1270SOL    HW214754   1.080   4.960   7.503  0.0540 -1.7757  0.4057
 1271SOL     OW14755   3.331   1.811   6.961  0.0123 -0.3592 -0.3105
 1271SOL    HW114756   3.231   1.818   6.963 -0.1076 -1.8085 -0.0476
 1271SOL    HW214757   3.357   1.715   6.947  1.3668  0.2223 -1.8756
 1272SOL     OW14758   6.756   8.384   2.298  0.1550 -0.9377  0.1100
 1272SOL    HW114759   6.739   8.350   2.205  1.5534 -3.2946  0.6694
 1272SOL    HW214760   6.843   8.433   2.300 -0.2522 -0.2081  0.0161
 1273SOL     OW14761   4.837   1.619   1.782  0.3091 -0.4565  0.0289
 1273SOL    HW114762   4.868   1.714   1.786 -0.7287 -0.1175  0.2211
 1273SOL    HW214763   4.792   1.602   1.694  0.6267 -0.8115 -0.0666
 1276SOL     OW14764   9.562   5.580   2.322 -0.1050 -0.4757 -0.0345
 1276SOL    HW114765   9.510   5.610   2.402 -2.4572  0.4324 -1.8334
 1276SOL    HW214766   9.499   5.561   2.247  2.0277 -1.6401 -1.5791
 1277SOL     OW14767   2.182   9.602   6.298 -0.2991 -0.3445 -0.0274
 1277SOL    HW114768   2.260   9.561   6.251 -0.8148  0.3172 -1.4851
 1277SOL    HW214769   2.137   9.667   6.237 -1.6633 -0.3121  0.9945
 1278SOL     OW14770   8.380   0.805   3.291  0.1278 -0.3575  0.1486
 1278SOL    HW114771   8.425   0.811   3.381  0.1333  0.7476  0.0867
 1278SOL    HW214772   8.321   0.885   3.278 -2.7422 -2.3225  0.6790
 1279SOL     OW14773   8.222   6.353   6.619 -0.1615 -1.1339 -0.2130
 1279SOL    HW114774   8.234   6.406   6.703 -0.6099 -3.4631  1.3589
 1279SOL    HW214775   8.158   6.401   6.558 -0.0628  0.4243  0.8795
 1280SOL     OW14776   8.513   7.716   0.162 -0.2471 -0.0461 -0.5846
 1280SOL    HW114777   8.443   7.755   0.103 -2.2984 -1.2191  1.0126
 1280SOL    HW214778   8.602   7.755   0.138 -1.6311  2.6095 -1.6379
 1282SOL     OW14779   2.421   6.537   1.457  0.3812 -0.0578  0.5350
 1282SOL    HW114780   2.355   6.585   1.399 -0.8265 -2.3329 -0.0344
 1282SOL    HW214781   2.512   6.574   1.443 -0.1795  0.5717 -1.5100
 1283SOL     OW14782   6.277   8.234   4.052  0.1154  0.3907  0.5093
 1283SOL    HW114783   6.233   8.144   4.056  1.8193 -0.3888  1.9989
 1283SOL    HW214784   6.210   8.305   4.076 -1.2057 -0.4695 -0.5607
 1284SOL     OW14785   4.006   2.633   5.475 -0.3562 -0.3784 -0.1619
 1284SOL    HW114786   4.083   2.684   5.436 -0.8019 -1.1423 -2.1047
 1284SOL    HW214787   3.926   2.646   5.418 -0.8522 -2.0941  0.1322
 1285SOL     OW14788   1.361   7.943   2.200  0.2048 -0.3427  0.4957
 1285SOL    HW114789   1.450   7.898   2.203  0.9954  1.2008  0.5804
 1285SOL    HW214790   1.317   7.936   2.290  0.1854 -1.2017  0.4228
 1286SOL     OW14791   8.512   4.752   2.792  0.8234  0.2604 -0.1731
 1286SOL    HW114792   8.502   4.848   2.769  0.9102  0.5368  0.9119
 1286SOL    HW214793   8.596   4.716   2.749  0.3803  0.4584 -1.2097
 1287SOL     OW14794   2.350   0.750   7.507  0.2877 -0.1216  0.1171
 1287SOL    HW114795   2.323   0.842   7.536  2.2888  0.4739  0.2182
 1287SOL    HW214796   2.425   0.757   7.441 -0.6110 -1.6429 -1.0801
 1289SOL     OW14797   7.878   0.614   7.530  0.5426 -0.1877  0.3498
 1289SOL    HW114798   7.902   0.523   7.563 -0.0164 -0.4193  0.1139
 1289SOL    HW214799   7.961   0.661   7.499  0.5513 -1.4619 -1.6541
 1290SOL     OW14800   5.980   5.518   1.994 -0.2631  0.7884 -0.0258
 1290SOL    HW114801   5.957   5.515   1.896 -2.2507 -0.3507  0.4333
 1290SOL    HW214802   5.902   5.484   2.046  1.2038  0.3540  1.8979
 1294SOL     OW14803   5.506   5.844   1.396 -1.0429 -0.6264 -0.0463
 1294SOL    HW114804   5.455   5.863   1.313 -1.5346  0.9185  0.5803
 1294SOL    HW214805   5.445   5.847   1.475 -0.3383 -0.6614  0.5144
 1295SOL     OW14806   7.237   0.215   1.199  0.5858 -0.1917  0.4377
 1295SOL    HW114807   7.143   0.246   1.213 -0.4675 -2.8529 -0.5449
 1295SOL    HW214808   7.280   0.269   1.126 -0.8894 -0.3856 -0.5889
 1296SOL     OW14809   9.638   3.780   0.214 -0.0569 -0.0918 -0.1611
 1296SOL    HW114810   9.712   3.832   0.257 -0.0939 -0.5008  0.4012
 1296SOL    HW214811   9.565   3.843   0.187 -0.7623 -0.0066  1.8693
 1297SOL     OW14812   1.548   5.393   7.107 -0.1934  0.3153 -0.5085
 1297SOL    HW114813   1.513   5.318   7.050 -0.1617  0.0314 -0.1610
 1297SOL    HW214814   1.475   5.459   7.123 -0.5300 -0.1865  0.0693
 1298SOL     OW14815   9.078   8.092   5.022  0.3498 -0.3336  0.4390
 1298SOL    HW114816   9.012   8.100   5.096 -0.4002 -1.5587 -0.0940
 1298SOL    HW214817   9.090   8.182   4.978  1.0805  0.4816  2.2506
 1299SOL     OW14818   7.695   2.095   0.385  0.3517  0.0512  0.5073
 1299SOL    HW114819   7.645   2.146   0.456 -1.3030 -0.1638 -0.4808
 1299SOL    HW214820   7.751   2.025   0.427  0.7841  1.1201  1.7323
 1300SOL     OW14821   6.977   3.121   3.480  0.0361  0.5179  0.0984
 1300SOL    HW114822   6.918   3.078   3.549 -1.3655  2.7830  0.3737
 1300SOL    HW214823   7.067   3.139   3.519 -0.4042  0.7790  0.9995
 1301SOL     OW14824   6.819   0.174   5.860 -0.0889 -0.3940  0.7087
 1301SOL    HW114825   6.850   0.264   5.889 -0.0976 -0.4581  0.9171
 1301SOL    HW214826   6.882   0.138   5.792 -1.7862  1.1076 -1.7293
 1302SOL     OW14827   5.769   9.855   4.017  0.6207  0.1917 -0.0344
 1302SOL    HW114828   5.729   9.788   4.080  0.3581  1.9278  1.6960
 1302SOL    HW214829   5.786   9.811   3.929 -2.4663 -1.3342  0.0422
 1303SOL     OW14830   2.351   5.017   0.179 -0.4668  0.1944 -0.6072
 1303SOL    HW114831   2.434   4.968   0.151 -1.7336 -2.8880  0.8032
 1303SOL    HW214832   2.376   5.105   0.219  1.9984  0.0754 -1.8076
 1305SOL     OW14833   3.838   2.065   6.944  0.2434 -0.2584 -0.0525
 1305SOL    HW114834   3.755   2.105   6.984 -0.0505 -1.7644  0.8963
 1305SOL    HW214835   3.917   2.119   6.971 -0.5607  2.1540 -2.2917
 1306SOL     OW14836   2.744   7.740   3.814 -0.0140  0.0067 -0.6482
 1306SOL    HW114837   2.834   7.700   3.797  0.6692  1.3807 -0.3425
 1306SOL    HW214838   2.704   7.772   3.728 -1.2927 -2.7644 -1.1489
 1307SOL     OW14839   4.799   4.032   7.547  0.8157  0.4207  0.1791
 1307SOL    HW114840   4.833   4.117   7.588  0.8498  1.6318 -2.2761
 1307SOL    HW214841   4.702   4.041   7.528  0.9818  0.2182 -0.8038
 1308SOL     OW14842   1.801   3.254   4.769 -0.5378 -0.1480 -0.5199
 1308SOL    HW114843   1.804   3.213   4.861  0.5007 -0.5480 -0.7256
 1308SOL    HW214844   1.829   3.349   4.775  1.6243 -0.7498 -0.7215
 1310SOL     OW14845   8.701   2.690   7.638 -0.3168 -0.5432 -0.1409
 1310SOL    HW114846   8.611   2.650   7.655 -0.3709 -0.8690 -1.1716
 1310SOL    HW214847   8.728   2.672   7.543 -0.4067  1.9777 -0.6822
 1311SOL     OW14848   3.103   6.511   5.731  0.4488 -0.2477 -0.3237
 1311SOL    HW114849   3.099   6.412   5.716  0.6764 -0.3499  0.2770
 1311SOL    HW214850   3.197   6.543   5.718  1.3006 -0.8013  3.5847
 1312SOL     OW14851   1.374   1.918   1.274  0.5319  0.0578  0.0961
 1312SOL    HW114852   1.304   1.858   1.313  0.6449  0.3629  0.7745
 1312SOL    HW214853   1.463   1.874   1.279  0.4654 -0.1343 -0.3384
 1313SOL     OW14854   0.665   6.833   0.371 -0.2020 -0.0356 -0.2643
 1313SOL    HW114855   0.738   6.900   0.361 -0.8220  0.7621  0.4404
 1313SOL    HW214856   0.605   6.859   0.447 -0.0242 -1.7935  0.5136
 1314SOL     OW14857   4.735   2.098   4.437  0.4161  0.0320  0.6973
 1314SOL    HW114858   4.727   2.172   4.370  0.5818  1.4192  2.1718
 1314SOL    HW214859   4.726   2.010   4.391  0.0341  0.9719 -1.0670
 1315SOL     OW14860   2.862   6.816   0.901  0.2235  0.2544  0.3631
 1315SOL    HW114861   2.840   6.741   0.838  0.5829 -0.3839  0.9859
 1315SOL    HW214862   2.780   6.872   0.916 -0.2260 -0.4068  0.4166
 1317SOL     OW14863   9.239   5.646   7.474  0.1504  0.4831  0.4483
 1317SOL    HW114864   9.221   5.559   7.428  2.0966  1.4632 -2.3046
 1317SOL    HW214865   9.315   5.634   7.538  0.4808  0.1639  0.0005
 1318SOL     OW14866   8.753   0.222   3.274 -0.8886  0.2699  0.1901
 1318SOL    HW114867   8.822   0.154   3.251  0.0791  1.1975  0.3291
 1318SOL    HW214868   8.701   0.245   3.191 -1.9711 -1.4481  0.3697
 1319SOL     OW14869   9.646   4.275   7.677  0.4781  0.5955 -0.4207
 1319SOL    HW114870   9.570   4.266   7.741 -1.3340  1.0911 -2.4494
 1319SOL    HW214871   9.669   4.184   7.641  0.1878  0.5606 -0.5256
 1320SOL     OW14872   2.806   7.522   7.290  0.0692 -0.6343  0.3024
 1320SOL    HW114873   2.761   7.575   7.361 -1.2899 -0.6678 -0.5101
 1320SOL    HW214874   2.794   7.424   7.308 -0.1976 -0.6428  0.0908
 1322SOL     OW14875   4.163   8.593   3.158 -0.2143  0.3576 -0.6758
 1322SOL    HW114876   4.121   8.607   3.248  0.5444  0.7492 -0.3725
 1322SOL    HW214877   4.214   8.507   3.158 -0.9424 -0.0849 -1.0229
 1323SOL     OW14878   3.208   5.979   4.780 -0.2128  0.3586  0.5554
 1323SOL    HW114879   3.123   5.927   4.767  0.1273 -0.3085  0.9768
 1323SOL    HW214880   3.199   6.040   4.858  0.3567 -1.1128  1.7877
 1324SOL     OW14881   7.163   8.530   5.210  0.0974  0.0115 -0.7472
 1324SOL    HW114882   7.094   8.530   5.282 -0.3344 -0.4245 -1.1634
 1324SOL    HW214883   7.248   8.493   5.246 -0.0893 -0.1179 -0.4371
 1326SOL     OW14884   7.539   5.745   3.018  0.4509 -0.0763  0.3224
 1326SOL    HW114885   7.535   5.654   2.977 -0.0857 -0.6049  1.5043
 1326SOL    HW214886   7.628   5.785   3.002  0.5419 -0.6280 -0.6006
 1328SOL     OW14887   3.959   6.943   3.451  0.3614 -0.1239 -0.4230
 1328SOL    HW114888   4.041   6.890   3.432  1.0701  0.8199 -0.0109
 1328SOL    HW214889   3.975   7.004   3.528 -0.9714 -0.4652  0.1413
 1329SOL     OW14890   1.897   9.120   0.385  0.3354  0.4738 -0.6027
 1329SOL    HW114891   1.823   9.053   0.383  0.2190  0.5953 -0.4361
 1329SOL    HW214892   1.865   9.204   0.428  1.4774 -0.5855  2.4598
 1330SOL     OW14893   0.675   6.786   2.248 -0.2559  0.4962  0.0777
 1330SOL    HW114894   0.694   6.763   2.343 -1.7533 -0.8549  0.0726
 1330SOL    HW214895   0.699   6.708   2.189 -3.3064 -0.3374 -0.1767
 1331SOL     OW14896   1.035   0.400   0.855 -0.2855  0.1571  1.2400
 1331SOL    HW114897   1.060   0.487   0.813  1.6689 -0.9656  0.0238
 1331SOL    HW214898   0.939   0.380   0.834 -0.0254  0.7955 -0.6311
 1332SOL     OW14899   1.694   2.584   5.531 -0.1171 -0.1874 -0.6592
 1332SOL    HW114900   1.653   2.494   5.521  0.2534 -0.2531 -1.6298
 1332SOL    HW214901   1.630   2.654   5.498 -0.9097  0.0164  1.2711
 1333SOL     OW14902   1.198   0.139   0.354  0.5868  0.1642  0.5600
 1333SOL    HW114903   1.187   0.050   0.398 -1.4908  0.4571  0.6891
 1333SOL    HW214904   1.294   0.167   0.358  1.3932 -2.3628 -0.0667
 1334SOL     OW14905   1.632   0.952   7.180 -0.0541 -0.0959  0.3906
 1334SOL    HW114906   1.621   1.031   7.241 -0.0135 -0.9539  1.5402
 1334SOL    HW214907   1.594   0.871   7.225  2.0586 -1.1908  0.2467
 1335SOL     OW14908   3.699   1.679   6.770 -0.6018 -0.0860 -0.5932
 1335SOL    HW114909   3.639   1.641   6.840 -0.2284 -0.8440 -0.6786
 1335SOL    HW214910   3.656   1.671   6.680 -1.0781  0.8810 -0.4559
 1336SOL     OW14911   8.771   5.498   2.950 -0.0377  0.6492 -0.5173
 1336SOL    HW114912   8.797   5.581   2.900  0.0555  0.6768 -0.4245
 1336SOL    HW214913   8.673   5.499   2.966 -0.3800 -0.3637 -2.4958
 1338SOL     OW14914   3.380   2.871   7.340  0.5263  0.2652 -0.0559
 1338SOL    HW114915   3.282   2.871   7.322  0.3646 -0.9744  0.7630
 1338SOL    HW214916   3.398   2.837   7.432  1.6386  2.0320  0.4104
 1339SOL     OW14917   8.080   4.131   1.948  0.7519 -0.0672 -0.6100
 1339SOL    HW114918   8.084   4.219   1.901  0.3490  0.4828  0.3563
 1339SOL    HW214919   8.163   4.119   2.003 -0.3242  0.8868  1.2766
 1340SOL     OW14920   2.212   0.560   2.239  0.2231 -0.1331  0.2845
 1340SOL    HW114921   2.221   0.599   2.330 -2.1508  0.6918  0.2094
 1340SOL    HW214922   2.194   0.462   2.246 -1.1721  0.1505  0.7557
 1341SOL     OW14923   1.233   2.502   6.246 -0.4763  0.0069 -0.4164
 1341SOL    HW114924   1.187   2.558   6.177  0.4883  0.0897 -0.9942
 1341SOL    HW214925   1.322   2.473   6.212  0.1999  0.4172  0.9713
 1342SOL     OW14926   8.179   8.783   1.182 -0.4817  0.2210  0.0771
 1342SOL    HW114927   8.219   8.854   1.123  2.0360 -0.6898  0.6214
 1342SOL    HW214928   8.124   8.826   1.253  1.5560  1.6862  0.8131
 1344SOL     OW14929   3.352   8.434   2.740  0.8990  0.5077  0.3641
 1344SOL    HW114930   3.363   8.524   2.698 -0.8970  0.6238  0.0865
 1344SOL    HW214931   3.259   8.401   2.723  1.1675 -0.8666  1.4929
 1345SOL     OW14932   4.491   6.724   0.568  0.3571  0.1093 -0.2654
 1345SOL    HW114933   4.561   6.667   0.610  0.1379 -0.0579 -0.1261
 1345SOL    HW214934   4.495   6.816   0.608  0.2050 -0.0258  0.0559
 1346SOL     OW14935   9.576   8.407   6.841  0.5660  0.3953 -0.2813
 1346SOL    HW114936   9.525   8.487   6.808  1.0670  2.0777  2.8532
 1346SOL    HW214937   9.522   8.359   6.910  1.3843 -0.4102 -0.1858
 1347SOL     OW14938   8.286   2.646   3.882 -0.0627  0.0175 -0.0681
 1347SOL    HW114939   8.213   2.578   3.884 -0.1522  0.1145 -0.0188
 1347SOL    HW214940   8.280   2.699   3.798 -0.8966  0.9446  0.5624
 1348SOL     OW14941   0.217   9.997   7.869  0.1013  0.4000 -0.3572
 1348SOL    HW114942   0.244   9.952   7.954  0.9593 -0.1828 -0.9147
 1348SOL    HW214943   0.255  10.090   7.866 -0.5167  0.6704  0.1964
 1352SOL     OW14944   8.951   5.763   6.804 -0.0132  0.4117  1.1808
 1352SOL    HW114945   8.951   5.683   6.744  1.4685  0.4476  1.1155
 1352SOL    HW214946   8.914   5.737   6.894 -0.0625 -0.2001  0.9873
 1353SOL     OW14947   3.367   5.883   4.567 -0.3030 -0.0032 -0.1692
 1353SOL    HW114948   3.329   5.939   4.641  0.5505  0.6840 -0.2397
 1353SOL    HW214949   3.465   5.869   4.583 -0.6438 -2.0992  0.2332
 1354SOL     OW14950   8.314   1.972   1.145  0.2698  0.3948  0.4928
 1354SOL    HW114951   8.285   1.889   1.097  1.8299 -0.0426  0.2698
 1354SOL    HW214952   8.241   2.040   1.141 -0.8720 -0.8208  0.3329
 1357SOL     OW14953   0.091   9.506   6.102 -0.2405 -0.1051 -0.1944
 1357SOL    HW114954   0.133   9.596   6.115  0.7268 -0.3631 -1.4005
 1357SOL    HW214955   0.027   9.510   6.024 -0.8958 -0.2318  0.3355
 1358SOL     OW14956   6.586   0.575   1.135 -0.6160 -0.3258 -0.2538
 1358SOL    HW114957   6.518   0.536   1.072 -1.3180 -0.0297  0.3197
 1358SOL    HW214958   6.556   0.561   1.229  0.4478 -0.7922  0.0283
 1359SOL     OW14959   5.584   4.540   2.423  0.9465 -0.6495 -0.1855
 1359SOL    HW114960   5.617   4.575   2.335 -1.9909 -0.4673 -1.2887
 1359SOL    HW214961   5.589   4.613   2.492  1.5783 -0.2604 -0.6349
 1360SOL     OW14962   3.648   4.681   3.892  0.6685 -0.3147  0.5444
 1360SOL    HW114963   3.627   4.671   3.989  1.6350 -0.5446  0.7409
 1360SOL    HW214964   3.654   4.779   3.869  1.3847 -0.2623  0.9356
 1361SOL     OW14965   6.684   1.781   2.658 -0.7533  0.3508 -0.1356
 1361SOL    HW114966   6.669   1.749   2.752  1.2604 -1.0448 -0.2397
 1361SOL    HW214967   6.772   1.747   2.626 -2.1454 -0.5730 -3.1227
 1362SOL     OW14968   0.677   6.706   3.564  0.4963 -0.0407 -0.1525
 1362SOL    HW114969   0.674   6.805   3.579  0.9814 -0.4633  3.2724
 1362SOL    HW214970   0.765   6.681   3.524  0.9802  0.7696  0.3832
 1363SOL     OW14971   0.166   2.234   7.051  0.0048  0.3480  0.5258
 1363SOL    HW114972   0.225   2.185   7.115 -0.2611 -0.6785 -0.0092
 1363SOL    HW214973   0.199   2.219   6.958 -0.5894  0.4746  0.2942
 1365SOL     OW14974   2.752   7.516   3.085 -0.7290  1.0409 -0.0105
 1365SOL    HW114975   2.679   7.487   3.023 -0.8204  1.1365  0.0537
 1365SOL    HW214976   2.832   7.457   3.072 -1.2206  0.1896  0.7467
 1366SOL     OW14977   1.082   1.068   0.524  0.0164  0.0090 -0.5699
 1366SOL    HW114978   1.173   1.032   0.506 -0.9885 -1.3269 -3.2963
 1366SOL    HW214979   1.015   1.019   0.467 -2.3852  1.0173  1.2933
 1367SOL     OW14980   0.269   5.583   2.232 -0.2632  0.5037  0.1182
 1367SOL    HW114981   0.309   5.493   2.250  0.0231  0.3689 -1.1847
 1367SOL    HW214982   0.170   5.573   2.219 -0.6110  0.7171  2.4228
 1368SOL     OW14983   7.776   3.006   0.947  0.1110 -0.0449  0.3105
 1368SOL    HW114984   7.853   3.066   0.967 -0.4885  1.0800 -0.6687
 1368SOL    HW214985   7.800   2.944   0.872  0.1770  0.0767  0.2317
 1369SOL     OW14986   1.145   6.059   6.446 -0.2119 -0.3029 -1.0850
 1369SOL    HW114987   1.234   6.018   6.466 -0.6017  0.4288  2.5043
 1369SOL    HW214988   1.077   6.021   6.509 -1.4660  2.6435 -0.6160
 1370SOL     OW14989   8.801   5.964   6.004 -0.2624 -0.7535 -0.1621
 1370SOL    HW114990   8.828   5.979   5.908 -2.0365 -1.7168 -0.8340
 1370SOL    HW214991   8.877   5.989   6.064  0.7702  0.1507 -1.8064
 1372SOL     OW14992   6.936   7.234   3.400 -0.3409 -0.1888  0.6452
 1372SOL    HW114993   6.988   7.221   3.484  0.3315 -1.0492  0.1017
 1372SOL    HW214994   6.839   7.240   3.421 -0.2153 -0.8969  1.4376
 1373SOL     OW14995   6.314   8.003   6.190 -0.4199 -0.3795 -0.3814
 1373SOL    HW114996   6.387   8.041   6.133 -1.1658 -1.6828 -2.2423
 1373SOL    HW214997   6.350   7.929   6.247  0.6426  1.8516  1.9505
 1374SOL     OW14998   1.872   7.839   6.903  0.3558  0.2416  0.3080
 1374SOL    HW114999   1.775   7.823   6.917  0.1600 -0.0222 -1.3407
 1374SOL    HW215000   1.919   7.838   6.992 -1.2563  1.2008  1.1875
 1375SOL     OW15001   9.666   1.044   3.615 -0.7191 -0.1745  0.0285
 1375SOL    HW115002   9.738   0.975   3.625 -0.9892 -0.5085 -0.3128
 1375SOL    HW215003   9.703   1.125   3.569 -0.1957  0.2329  1.1485
 1376SOL     OW15004   0.680   3.462   5.002  0.4497  0.4385  0.4246
 1376SOL    HW115005   0.757   3.464   5.066  0.9169  1.1110 -0.1452
 1376SOL    HW215006   0.615   3.392   5.030  0.7499  0.5970  1.5224
 1377SOL     OW15007   4.339   4.062   6.175  0.1989 -0.0887 -0.3547
 1377SOL    HW115008   4.422   4.008   6.158  0.0733  0.2603 -2.2410
 1377SOL    HW215009   4.352   4.119   6.256  1.4963 -0.6259 -0.1643
 1380SOL     OW15010   1.679   7.482   1.664  0.0940 -0.0646  0.0013
 1380SOL    HW115011   1.690   7.382   1.663 -0.3888 -0.1145 -0.5962
 1380SOL    HW215012   1.610   7.507   1.732  0.0647 -0.1516  0.0034
 1381SOL     OW15013   6.279   0.859   3.162 -0.1557 -0.0270  0.1093
 1381SOL    HW115014   6.348   0.930   3.172 -1.5907  1.2339  1.2742
 1381SOL    HW215015   6.268   0.837   3.065  1.7979 -0.1808 -0.0907
 1382SOL     OW15016   2.227   4.052   0.594  0.1298  0.2318  0.6540
 1382SOL    HW115017   2.273   4.135   0.627  0.1198  0.3687  0.3224
 1382SOL    HW215018   2.128   4.061   0.608  0.2892 -0.4869  2.3124
 1383SOL     OW15019   9.045   4.510   4.652  0.3296 -0.4429 -0.0982
 1383SOL    HW115020   8.997   4.451   4.718 -0.4983  1.3667  0.9368
 1383SOL    HW215021   9.140   4.480   4.644  0.6821 -0.1525  2.5999
 1384SOL     OW15022   8.917   5.933   1.151 -0.3972 -0.2622 -0.1777
 1384SOL    HW115023   8.928   5.979   1.239  1.2125  1.0446 -1.0330
 1384SOL    HW215024   8.990   5.963   1.089 -1.4198 -1.2954 -1.8940
 1385SOL     OW15025   6.023   8.370   5.987  0.0527 -0.2528  0.5373
 1385SOL    HW115026   6.015   8.364   5.887  1.0532 -0.6692  0.4718
 1385SOL    HW215027   5.936   8.399   6.026 -1.4773 -3.6570 -0.1540
 1388SOL     OW15028   5.257   0.482   7.817  0.1613 -0.2506 -0.0317
 1388SOL    HW115029   5.166   0.446   7.799 -0.5113  1.2309  0.3171
 1388SOL    HW215030   5.309   0.417   7.872 -1.1953 -0.4620  1.0156
 1389SOL     OW15031   7.935   8.509   4.120  0.3645 -0.3094 -0.2577
 1389SOL    HW115032   7.934   8.441   4.047 -0.5089  0.2010 -0.7353
 1389SOL    HW215033   7.868   8.484   4.190 -0.3303  0.3196 -0.6875
 1390SOL     OW15034   5.370   8.145   7.018  0.1877  0.2655 -0.0242
 1390SOL    HW115035   5.426   8.161   6.936 -0.4711  0.2505 -0.4781
 1390SOL    HW215036   5.335   8.052   7.017 -0.1310  0.3832  0.0897
 1391SOL     OW15037   3.565   9.004   3.400 -0.1791 -0.0210 -0.1863
 1391SOL    HW115038   3.543   8.924   3.345  0.4534 -1.1450  1.1837
 1391SOL    HW215039   3.641   8.983   3.462  0.4007  1.8104 -0.2289
 1393SOL     OW15040   2.740   9.753   7.321 -0.2137 -0.3562  0.2429
 1393SOL    HW115041   2.791   9.679   7.277  0.2535 -1.3526  2.4119
 1393SOL    HW215042   2.790   9.785   7.401 -1.3071  1.0629  0.3769
 1394SOL     OW15043   5.780   3.850   0.437  0.6134  0.0944 -0.8963
 1394SOL    HW115044   5.878   3.868   0.446  1.2092 -3.2147 -0.0662
 1394SOL    HW215045   5.753   3.782   0.506 -2.0543  0.2203 -1.7913
 1395SOL     OW15046   9.020   1.825   6.419 -0.3065  0.1486 -0.3948
 1395SOL    HW115047   8.932   1.777   6.414  1.0026 -2.3839  0.3854
 1395SOL    HW215048   9.050   1.847   6.326 -2.1547  1.8191 -0.6325
 1396SOL     OW15049   4.253   9.031   2.010 -0.2363  0.3754 -0.6925
 1396SOL    HW115050   4.230   9.098   1.940  2.6607  1.2330 -0.8839
 1396SOL    HW215051   4.325   8.969   1.976 -0.6021 -0.8099  0.6084
 1399SOL     OW15052   9.944   2.238   1.262  0.1283 -0.0299 -0.1311
 1399SOL    HW115053   9.882   2.191   1.325  0.6470 -0.9515 -0.2971
 1399SOL    HW215054  10.032   2.254   1.307  0.4647 -0.5943 -0.5791
 1400SOL     OW15055   6.673   8.059   4.988  0.0584 -0.4569  0.4167
 1400SOL    HW115056   6.583   8.066   5.030 -0.7652 -0.4360 -1.3153
 1400SOL    HW215057   6.693   8.143   4.937  0.2069 -1.2484 -0.8462
 1401SOL     OW15058   7.934   2.806   3.436  0.1777 -0.0551 -0.1483
 1401SOL    HW115059   7.939   2.718   3.483 -0.7752  0.0764  0.2111
 1401SOL    HW215060   7.841   2.843   3.443  0.3075  0.4980 -1.1702
 1402SOL     OW15061   6.553   8.675   3.741 -0.3884 -0.9200  0.1185
 1402SOL    HW115062   6.542   8.600   3.807  1.5200 -0.0406  1.5037
 1402SOL    HW215063   6.649   8.704   3.741 -1.1397  1.6181 -0.3052
 1403SOL     OW15064   5.555   5.039   1.681  0.0394 -0.1377 -0.6212
 1403SOL    HW115065   5.625   5.006   1.617 -1.0075 -0.4581 -1.6182
 1403SOL    HW215066   5.570   5.137   1.698  1.6212 -0.5309  0.3534
 1404SOL     OW15067   1.423   9.815   7.508 -0.4929 -0.4479 -0.2239
 1404SOL    HW115068   1.406   9.877   7.432 -1.3281 -0.7427 -0.2827
 1404SOL    HW215069   1.405   9.862   7.594  0.4692 -0.1085 -0.1980
 1406SOL     OW15070   8.352   9.262   5.218 -0.1575 -0.2045  0.3266
 1406SOL    HW115071   8.421   9.189   5.213 -0.0421  0.0283 -1.6447
 1406SOL    HW215072   8.398   9.351   5.226 -0.2467 -0.1091 -0.2404
 1407SOL     OW15073   6.695   2.203   0.486  0.0500  0.1012  0.3761
 1407SOL    HW115074   6.750   2.180   0.567  0.2550 -0.2020  0.1485
 1407SOL    HW215075   6.744   2.176   0.404 -0.5880 -0.4541  0.1830
 1408SOL     OW15076   8.858   7.601   2.376 -0.0369 -0.5832  0.4383
 1408SOL    HW115077   8.825   7.507   2.385 -0.1953 -0.4014  1.7532
 1408SOL    HW215078   8.803   7.662   2.433  1.0867  0.0577  0.8547
 1409SOL     OW15079   0.447   1.084   2.343  0.0651  0.7125 -0.4682
 1409SOL    HW115080   0.518   1.070   2.274  1.2015 -0.9889  1.0075
 1409SOL    HW215081   0.454   1.176   2.380  1.3897  0.6265 -0.4860
 1410SOL     OW15082   3.974   1.898   1.669  0.3604  0.3066  0.3128
 1410SOL    HW115083   3.926   1.855   1.593  0.8279  0.0298  0.1684
 1410SOL    HW215084   3.911   1.957   1.720 -0.0883  0.0661  0.0377
 1411SOL     OW15085   1.763   2.251   1.443 -0.2040 -0.2847 -0.6011
 1411SOL    HW115086   1.719   2.338   1.420  1.9427  0.6642 -1.2429
 1411SOL    HW215087   1.862   2.265   1.449  0.3412 -3.1025 -2.5435
 1412SOL     OW15088   8.987   2.704   0.215  0.6893 -0.4216  0.1830
 1412SOL    HW115089   8.916   2.774   0.221  0.0610 -1.2229  2.5279
 1412SOL    HW215090   8.984   2.662   0.124 -1.2997  0.1308 -0.0378
 1413SOL     OW15091   0.077   5.355   2.908  0.1710  0.2752  0.2172
 1413SOL    HW115092   0.041   5.419   2.840 -1.9668 -0.9256  0.1902
 1413SOL    HW215093   0.114   5.274   2.862  3.1230  1.5538  0.2356
 1414SOL     OW15094   0.105   2.133   2.110 -0.2561 -0.7123 -0.1895
 1414SOL    HW115095   0.092   2.071   2.188 -0.0194  0.1215  0.5215
 1414SOL    HW215096   0.073   2.224   2.135 -0.8848 -0.6116 -1.3381
 1417SOL     OW15097   2.409   2.496   2.955 -0.4782  0.4803 -0.4387
 1417SOL    HW115098   2.461   2.477   3.038 -2.0808 -0.1831  0.4307
 1417SOL    HW215099   2.328   2.549   2.978 -0.7829  0.5390 -1.6331
 1418SOL     OW15100   2.256   7.274   2.705 -0.1113 -0.5194  0.0664
 1418SOL    HW115101   2.317   7.205   2.744 -0.2904 -1.0943 -0.6470
 1418SOL    HW215102   2.279   7.364   2.742  1.5346 -0.6408 -0.6015
 1419SOL     OW15103   1.665   8.441   7.662  0.5219 -0.0869  0.3395
 1419SOL    HW115104   1.725   8.504   7.712 -0.7825  0.3770  1.3334
 1419SOL    HW215105   1.582   8.489   7.634  0.6637 -0.6900 -1.1747
 1420SOL     OW15106   6.692   9.349   6.786  0.1621  0.6440 -0.4862
 1420SOL    HW115107   6.771   9.395   6.745 -0.2342  1.2916 -0.5249
 1420SOL    HW215108   6.712   9.330   6.882 -0.0764  1.8576 -0.1884
 1421SOL     OW15109   2.000   5.259   6.170  0.2188  0.0328 -0.2384
 1421SOL    HW115110   1.943   5.246   6.252 -0.6500 -1.0877 -1.0021
 1421SOL    HW215111   2.023   5.356   6.160  0.8273  0.1087  1.6556
 1422SOL     OW15112   9.954   0.407   0.221 -0.2410 -0.1279  0.3470
 1422SOL    HW115113   9.914   0.377   0.135  0.2795  0.9549 -0.2731
 1422SOL    HW215114  10.044   0.447   0.205  1.0716 -2.3985  1.7067
 1424SOL     OW15115   3.898   2.705   6.989 -0.7577  0.1816 -0.3320
 1424SOL    HW115116   3.991   2.716   6.954 -0.0716 -1.4819  0.9010
 1424SOL    HW215117   3.885   2.767   7.067 -1.3854  1.8900 -1.7509
 1425SOL     OW15118   2.030   9.577   5.036 -0.1207 -0.6985  0.2181
 1425SOL    HW115119   2.009   9.563   4.939 -0.2442 -0.2224  0.1750
 1425SOL    HW215120   1.962   9.530   5.092  0.1151 -1.2174  0.0778
 1426SOL     OW15121   7.879   5.149   2.637  0.1967  0.1626  0.4136
 1426SOL    HW115122   7.787   5.125   2.608  0.1681 -1.1437  1.5652
 1426SOL    HW215123   7.933   5.066   2.650  1.0941  0.8493  1.1819
 1428SOL     OW15124   9.647   5.588   3.365 -0.2453 -0.4409 -0.3162
 1428SOL    HW115125   9.675   5.496   3.392 -1.8943 -0.0702  2.8694
 1428SOL    HW215126   9.559   5.583   3.318 -0.9731 -0.4019  1.0130
 1429SOL     OW15127   6.512   1.680   5.849 -0.4494 -0.1243 -0.1910
 1429SOL    HW115128   6.453   1.633   5.783 -1.6793  0.9195  0.1443
 1429SOL    HW215129   6.547   1.764   5.808 -1.1595  0.4909  0.4539
 1430SOL     OW15130   1.199   2.191   3.290  0.2369 -0.3278  0.2985
 1430SOL    HW115131   1.149   2.208   3.205 -0.4198 -3.1226  0.0668
 1430SOL    HW215132   1.297   2.195   3.273  0.1097 -1.6173 -0.7652
 1431SOL     OW15133   0.050   2.821   0.423  0.4468 -0.4015  0.2251
 1431SOL    HW115134  -0.043   2.858   0.423  0.6427  0.0948  0.7834
 1431SOL    HW215135   0.047   2.725   0.451  0.4308  0.5036  3.5377
 1432SOL     OW15136   6.183   4.893   1.484 -0.0623  0.5090  0.1430
 1432SOL    HW115137   6.127   4.953   1.541 -1.3014 -0.5705  0.0869
 1432SOL    HW215138   6.263   4.863   1.535 -0.4721  0.6281  0.8597
 1433SOL     OW15139   6.202   9.287   5.069  0.1130  0.0058 -0.8471
 1433SOL    HW115140   6.119   9.231   5.063  1.1959 -1.5211 -1.6931
 1433SOL    HW215141   6.278   9.241   5.023  1.6412  1.0354  0.5770
 1434SOL     OW15142   7.356   3.797   2.836  0.4322  0.1415  0.4961
 1434SOL    HW115143   7.266   3.767   2.803  0.8262 -1.0925  0.4958
 1434SOL    HW215144   7.346   3.844   2.924 -0.2731  0.5018  0.2225
 1436SOL     OW15145   6.533   9.225   5.801  0.1035  0.1527  0.5057
 1436SOL    HW115146   6.468   9.264   5.867 -1.1976 -1.5585  0.2559
 1436SOL    HW215147   6.511   9.258   5.710  0.9405  1.2830  0.7001
 1437SOL     OW15148   7.744   8.161   1.333 -0.3660  0.1642 -0.8515
 1437SOL    HW115149   7.673   8.112   1.281 -0.1217  1.0364 -2.0319
 1437SOL    HW215150   7.811   8.199   1.269  0.5140  0.3580  0.1877
 1438SOL     OW15151   3.746   8.930   3.037 -0.3656 -0.2149  0.3287
 1438SOL    HW115152   3.769   9.005   2.976 -1.8000  0.2275  0.3274
 1438SOL    HW215153   3.827   8.872   3.050  0.7212  1.2672  0.2683
 1439SOL     OW15154   0.392   9.376   7.382 -0.2174 -0.3441  0.0041
 1439SOL    HW115155   0.379   9.376   7.481 -1.0444  0.1251 -0.0987
 1439SOL    HW215156   0.314   9.420   7.338  0.8640  0.8374 -0.7700
 1441SOL     OW15157   6.481   7.213   5.475 -0.5576 -0.2651 -0.2395
 1441SOL    HW115158   6.552   7.265   5.523 -1.6076  1.6027 -0.6519
 1441SOL    HW215159   6.515   7.122   5.455  0.9865 -0.0990  1.4011
 1442SOL     OW15160   0.213   8.892   2.833 -0.0563  0.0493  0.1072
 1442SOL    HW115161   0.170   8.936   2.912  0.2722 -0.6182  0.6728
 1442SOL    HW215162   0.144   8.876   2.762 -0.4969  0.0849  0.5192
 1443SOL     OW15163   1.195   2.047   5.870  0.1438 -0.7628  0.0718
 1443SOL    HW115164   1.142   1.980   5.818  0.4749 -0.8630 -0.1415
 1443SOL    HW215165   1.134   2.103   5.925 -0.1598 -1.0555  0.0332
 1444SOL     OW15166   3.673   3.116   0.775  0.3337 -0.3087 -0.3234
 1444SOL    HW115167   3.603   3.150   0.712 -2.0706 -2.0417  1.2662
 1444SOL    HW215168   3.661   3.160   0.864  0.6980 -1.2540  0.2025
 1445SOL     OW15169   1.382   3.434   3.145 -0.2681  0.5097 -0.4823
 1445SOL    HW115170   1.298   3.434   3.091 -0.0734  0.2554 -0.7827
 1445SOL    HW215171   1.359   3.420   3.241 -0.5082 -0.3702 -0.6640
 1446SOL     OW15172   3.346   3.757   1.074 -0.4574 -0.1948 -0.0553
 1446SOL    HW115173   3.357   3.810   0.990  2.2222 -0.5937  0.0016
 1446SOL    HW215174   3.314   3.817   1.147  0.7474  0.9287 -0.4471
 1448SOL     OW15175   1.646   9.617   7.012  0.1014 -0.7903 -0.1293
 1448SOL    HW115176   1.589   9.578   7.085  1.0827 -0.7746  0.6515
 1448SOL    HW215177   1.621   9.576   6.925 -0.7869 -1.1257  0.2720
 1449SOL     OW15178   7.594   9.779   1.296  0.4504  0.0498 -0.0343
 1449SOL    HW115179   7.660   9.739   1.233 -0.3887 -0.2132 -0.7636
 1449SOL    HW215180   7.507   9.730   1.289  0.1281  0.4758  0.8127
 1450SOL     OW15181   3.777   8.686   6.507  0.0683  0.5860  0.0090
 1450SOL    HW115182   3.861   8.668   6.560  0.6385  0.5639 -0.8897
 1450SOL    HW215183   3.792   8.764   6.447 -1.7523  2.8868  2.4472
 1451SOL     OW15184   8.728   1.343   2.944 -0.1329  0.6392  0.3755
 1451SOL    HW115185   8.710   1.248   2.970  0.8977 -0.1061 -1.6000
 1451SOL    HW215186   8.641   1.392   2.933 -0.6876 -0.3871  0.1908
 1452SOL     OW15187   9.997   5.239   4.599  0.4959  0.4366  0.2084
 1452SOL    HW115188  10.030   5.226   4.692 -1.0630 -0.0167  0.7201
 1452SOL    HW215189  10.008   5.335   4.572  0.3294  0.7121  1.1140
 1453SOL     OW15190   6.416   2.381   0.684 -0.1113 -0.4350  0.1419
 1453SOL    HW115191   6.468   2.419   0.761 -0.4581 -0.8280  0.5779
 1453SOL    HW215192   6.366   2.454   0.638 -0.1572 -0.2422  0.4911
 1454SOL     OW15193   7.693   7.467   5.064 -0.0690  0.0981  0.6067
 1454SOL    HW115194   7.659   7.395   5.126 -0.2063 -0.3022  0.0662
 1454SOL    HW215195   7.730   7.542   5.119  1.3750 -1.0060  1.1948
 1455SOL     OW15196   2.141   1.293   1.353 -0.2657 -0.1226  0.0055
 1455SOL    HW115197   2.121   1.351   1.274 -0.3502 -2.8808 -2.0710
 1455SOL    HW215198   2.058   1.277   1.405 -0.8884 -0.9741 -1.2333
 1456SOL     OW15199   0.068   6.120   0.590 -0.1175 -0.2354 -0.3775
 1456SOL    HW115200   0.090   6.215   0.566  0.8392 -0.4892 -0.5530
 1456SOL    HW215201  -0.017   6.117   0.642 -0.1196  0.7217 -0.3191
 1458SOL     OW15202   2.069   1.444   1.137  0.2076  0.1364 -0.0729
 1458SOL    HW115203   1.983   1.400   1.162 -0.3467  1.8143  1.0491
 1458SOL    HW215204   2.061   1.485   1.046  0.1570 -0.5769 -0.3912
 1460SOL     OW15205   1.602   0.435   0.559 -0.2349 -0.1349  0.1060
 1460SOL    HW115206   1.658   0.358   0.591  1.5443 -0.2883 -3.1259
 1460SOL    HW215207   1.531   0.400   0.496 -0.2182  0.7120 -0.3899
 1461SOL     OW15208   9.371   0.035   7.756  0.3586 -0.5158  0.2523
 1461SOL    HW115209   9.407   0.047   7.663 -1.1151 -0.1637 -0.2945
 1461SOL    HW215210   9.438  -0.014   7.812  0.7677 -1.8114 -1.3322
 1462SOL     OW15211   5.351   8.491   5.717  0.1316 -0.4075 -0.1735
 1462SOL    HW115212   5.334   8.583   5.752  1.0858  0.4716 -1.9338
 1462SOL    HW215213   5.420   8.446   5.774 -0.9042 -0.3447  1.1551
 1463SOL     OW15214   0.470   4.843   2.544 -0.7560 -0.2552  0.2624
 1463SOL    HW115215   0.496   4.882   2.455 -0.1676 -0.5108  0.3205
 1463SOL    HW215216   0.534   4.876   2.614 -1.8124  0.7397  0.7672
 1464SOL     OW15217   5.878   0.239   6.117  0.3637 -0.6101  0.2019
 1464SOL    HW115218   5.967   0.259   6.076 -0.2467  0.6170 -0.5742
 1464SOL    HW215219   5.863   0.301   6.194 -0.1768 -0.2119 -0.2171
 1465SOL     OW15220   8.157   0.926   3.614  0.5849 -0.1498 -0.3362
 1465SOL    HW115221   8.113   0.902   3.527  1.9083  0.2567 -1.1322
 1465SOL    HW215222   8.184   0.842   3.662  0.3445 -0.3651 -0.5767
 1468SOL     OW15223   6.234   1.381   3.568  0.7928 -0.6519 -0.3068
 1468SOL    HW115224   6.167   1.307   3.567 -0.1012  0.0066  3.2781
 1468SOL    HW215225   6.326   1.342   3.581  0.4246 -1.2122  0.6933
 1469SOL     OW15226   1.064   3.101   0.418  0.6201 -0.4264  0.0887
 1469SOL    HW115227   1.111   3.048   0.489  0.2239 -0.2794  0.4560
 1469SOL    HW215228   1.132   3.135   0.353  0.8853 -1.3859 -0.1589
 1470SOL     OW15229   2.476   2.277   7.885 -0.3884  0.1888 -0.0518
 1470SOL    HW115230   2.455   2.251   7.791 -3.0110  0.4028  0.4222
 1470SOL    HW215231   2.438   2.368   7.904 -1.4963 -0.6024  1.7170
 1471SOL     OW15232   5.170   9.083   5.923 -0.6029 -0.2095  0.2013
 1471SOL    HW115233   5.173   9.152   5.851 -2.7640 -0.2142  0.0897
 1471SOL    HW215234   5.216   9.119   6.005 -0.8707  0.9844 -0.1640
 1472SOL     OW15235   1.929   8.372   5.310  0.3138  0.2902 -0.6702
 1472SOL    HW115236   1.987   8.308   5.258  0.0503  1.4999 -2.5038
 1472SOL    HW215237   1.984   8.416   5.381  1.5834  1.1955 -2.1835
 1473SOL     OW15238   2.055   7.577   1.497  0.3460  0.2457  0.0932
 1473SOL    HW115239   1.997   7.570   1.578  1.2765 -0.3866  0.7201
 1473SOL    HW215240   2.141   7.530   1.514  0.7298  0.4947 -1.1114
 1475SOL     OW15241   1.498   5.270   3.585  0.0585 -0.4007  0.1251
 1475SOL    HW115242   1.521   5.361   3.549  1.3074 -1.0181 -0.6706
 1475SOL    HW215243   1.500   5.273   3.685  0.2672  0.4028  0.1017
 1476SOL     OW15244   0.766   2.711   0.649 -0.3869  0.3214  0.0655
 1476SOL    HW115245   0.675   2.682   0.678  1.0003 -4.2657  0.1071
 1476SOL    HW215246   0.764   2.735   0.552 -1.3793 -0.8445 -0.2053
 1478SOL     OW15247   4.172   9.087   7.448  0.3346  0.4782 -0.4226
 1478SOL    HW115248   4.251   9.147   7.437  0.1655  0.5710 -1.1301
 1478SOL    HW215249   4.096   9.139   7.488 -0.0515  0.9290 -1.7263
 1479SOL     OW15250   1.655   1.450   4.658  0.0250 -0.3612  0.3044
 1479SOL    HW115251   1.694   1.384   4.593  0.6232  0.2700  0.0156
 1479SOL    HW215252   1.556   1.456   4.645 -0.0964 -1.5157  0.6174
 1480SOL     OW15253   0.191   0.139   7.068 -0.0705  0.3025  0.0513
 1480SOL    HW115254   0.143   0.203   7.007  0.3807  0.3514 -0.2567
 1480SOL    HW215255   0.136   0.123   7.150 -0.1266  1.1914  0.1920
 1482SOL     OW15256   0.425   4.651   4.544  0.0154  0.1643  0.2060
 1482SOL    HW115257   0.400   4.577   4.607  2.7902 -1.3992 -0.4548
 1482SOL    HW215258   0.343   4.703   4.520 -1.7265 -1.6434  2.0114
 1483SOL     OW15259   6.656   7.725   4.530  0.0925 -0.3630  0.0137
 1483SOL    HW115260   6.735   7.706   4.472 -0.0286 -0.4725 -0.1191
 1483SOL    HW215261   6.683   7.781   4.608 -0.0297  1.1500 -0.9991
 1485SOL     OW15262   6.990   5.561   1.952 -0.3858 -0.8565 -0.5465
 1485SOL    HW115263   7.061   5.612   2.000  1.2134 -1.9702 -1.6953
 1485SOL    HW215264   7.018   5.546   1.857 -2.0538 -1.5113 -0.9480
 1489SOL     OW15265   1.183   2.927   7.931 -0.3358  0.6739 -0.4290
 1489SOL    HW115266   1.196   2.900   8.026  0.9388 -1.7317 -1.2218
 1489SOL    HW215267   1.270   2.959   7.893 -0.5477  0.4349 -1.1243
 1490SOL     OW15268   4.905   6.836   2.164  0.6843  0.0916 -0.0456
 1490SOL    HW115269   4.881   6.897   2.089 -0.1429  2.5192  2.0783
 1490SOL    HW215270   4.988   6.870   2.209 -1.1029  1.0960  2.6213
 1493SOL     OW15271   1.484   4.376   6.186  1.1430  0.4497 -0.1527
 1493SOL    HW115272   1.443   4.385   6.277 -0.5084 -0.3450 -0.7990
 1493SOL    HW215273   1.522   4.464   6.158 -0.1570  1.2138  0.4582
 1494SOL     OW15274   3.911   0.803   3.002 -0.1513 -0.1404 -0.3759
 1494SOL    HW115275   3.816   0.808   3.033 -0.1480 -0.9035 -0.2547
 1494SOL    HW215276   3.913   0.806   2.902 -0.2212  1.2096 -0.3492
 1496SOL     OW15277   9.845   9.805   4.949 -0.5094 -0.0798  0.6665
 1496SOL    HW115278   9.819   9.712   4.977 -0.3043  0.0977  1.4658
 1496SOL    HW215279   9.931   9.830   4.993  1.2354 -0.7932 -2.2351
 1497SOL     OW15280   0.191   3.398   6.337 -0.1331 -0.1735  0.1664
 1497SOL    HW115281   0.235   3.483   6.310 -0.2802 -0.2443 -0.3206
 1497SOL    HW215282   0.096   3.398   6.304  0.1201 -0.8812 -0.5933
 1498SOL     OW15283   2.695   2.003   5.170  0.2259  0.2230 -0.0234
 1498SOL    HW115284   2.618   1.943   5.148 -0.2081  0.7820 -0.0441
 1498SOL    HW215285   2.662   2.080   5.225  0.5559  1.1260 -1.0882
 1499SOL     OW15286   7.416   7.105   2.768 -0.1738 -0.0301  0.2199
 1499SOL    HW115287   7.482   7.038   2.733 -0.1611  0.0316  0.1233
 1499SOL    HW215288   7.450   7.144   2.853  0.6424  1.0951 -0.5925
 1500SOL     OW15289   1.314   0.771   2.769  0.1728  0.2658  0.7851
 1500SOL    HW115290   1.293   0.804   2.861 -1.1762  1.0985  0.1865
 1500SOL    HW215291   1.360   0.844   2.717  0.3458  0.0125  0.5809
 1501SOL     OW15292   7.302   5.442   2.196 -0.0497  1.1491  0.6695
 1501SOL    HW115293   7.273   5.374   2.129  0.5948  1.6373 -0.1143
 1501SOL    HW215294   7.299   5.533   2.155  1.0486  1.3752  1.0661
 1502SOL     OW15295   6.759   8.477   3.286 -0.1056 -0.2134 -0.3413
 1502SOL    HW115296   6.836   8.417   3.266  0.3413  0.1308  0.3329
 1502SOL    HW215297   6.675   8.438   3.248  0.0687 -1.6231  0.6901
 1504SOL     OW15298   5.533   9.081   4.729 -0.2826  0.3926 -0.0433
 1504SOL    HW115299   5.570   9.053   4.817  2.5848  1.6910 -0.7752
 1504SOL    HW215300   5.547   9.180   4.717 -1.3817  0.3790 -1.6033
 1505SOL     OW15301   4.437   0.159   5.917 -0.6410 -0.1091 -0.1016
 1505SOL    HW115302   4.388   0.195   5.996  1.2496  0.4047  0.8550
 1505SOL    HW215303   4.381   0.172   5.835 -2.1399  0.3657  0.9593
 1507SOL     OW15304   4.148   0.472   3.753 -0.3006  0.0719 -0.3799
 1507SOL    HW115305   4.238   0.435   3.775 -1.0904 -0.5456  1.8735
 1507SOL    HW215306   4.106   0.417   3.680  0.6059 -0.4015 -0.5520
 1508SOL     OW15307   0.347   3.185   6.228  0.2551  0.5178  0.6127
 1508SOL    HW115308   0.383   3.149   6.314 -3.0694 -3.0772  0.6005
 1508SOL    HW215309   0.288   3.264   6.247 -0.7552 -0.4820  1.6819
 1509SOL     OW15310   9.988   9.055   7.395 -0.5310 -0.2995 -0.2291
 1509SOL    HW115311   9.970   9.142   7.441  0.4988 -0.3716  0.3180
 1509SOL    HW215312  10.001   9.071   7.297  3.1119  0.6520  0.3506
 1512SOL     OW15313   4.957   6.420   0.338 -0.4693  0.1777  0.3429
 1512SOL    HW115314   4.877   6.403   0.281 -0.4962 -1.1453  0.7768
 1512SOL    HW215315   4.952   6.514   0.374 -1.8255  0.1007  0.3886
 1514SOL     OW15316   2.636   3.363   3.415  0.3627 -0.4182 -0.1306
 1514SOL    HW115317   2.556   3.415   3.384 -0.2969 -0.1500  1.9410
 1514SOL    HW215318   2.660   3.294   3.347 -0.8537  0.3235 -1.3356
 1515SOL     OW15319   9.646   4.162   6.841  0.4503  0.3104  0.0394
 1515SOL    HW115320   9.721   4.227   6.844  1.4630 -0.8617  0.2834
 1515SOL    HW215321   9.667   4.084   6.900 -0.4039 -0.6181 -0.8810
 1518SOL     OW15322   0.074   6.302   1.769 -0.1398 -0.3478 -0.4030
 1518SOL    HW115323   0.008   6.334   1.837  0.8964 -0.1255  0.5056
 1518SOL    HW215324   0.036   6.223   1.721 -1.2121 -0.0070 -0.1384
 1519SOL     OW15325   0.041   6.245   7.348  0.2886 -0.1185 -0.5142
 1519SOL    HW115326  -0.001   6.318   7.294  1.0219 -0.2562 -1.2659
 1519SOL    HW215327  -0.028   6.206   7.409 -0.4474  0.2873 -1.0766
 1520SOL     OW15328   7.702   6.201   1.116  0.4996  0.3621 -0.3849
 1520SOL    HW115329   7.792   6.216   1.156 -0.3013  0.7357  1.3086
 1520SOL    HW215330   7.712   6.183   1.018  2.4414 -0.0267 -0.1412
 1521SOL     OW15331   3.002   8.673   5.396  0.5105  0.2745 -0.5747
 1521SOL    HW115332   3.082   8.657   5.338  1.1032  1.1404 -0.0008
 1521SOL    HW215333   2.920   8.642   5.348  0.8756  1.8381 -2.2666
 1522SOL     OW15334   7.627   8.346   3.701 -0.2272  0.4327  0.4013
 1522SOL    HW115335   7.674   8.375   3.618 -0.1780  1.7035  0.8524
 1522SOL    HW215336   7.529   8.358   3.690 -0.4043 -1.4334 -0.2375
 1524SOL     OW15337   5.944   8.141   4.988 -0.1113 -0.2001 -0.2767
 1524SOL    HW115338   5.906   8.224   5.028  0.9061  0.3324 -0.3780
 1524SOL    HW215339   5.916   8.134   4.892 -0.9252 -0.4419 -0.0246
 1525SOL     OW15340   7.081   1.775   3.594 -0.6062  0.0935  0.3315
 1525SOL    HW115341   7.026   1.746   3.516  0.1419 -1.6147  0.4102
 1525SOL    HW215342   7.031   1.756   3.679  0.2607 -1.8952  0.4234
 1526SOL     OW15343   8.637   8.849   0.296 -0.1180 -0.0494 -0.3335
 1526SOL    HW115344   8.538   8.836   0.292 -0.3285  1.4186 -0.3889
 1526SOL    HW215345   8.665   8.916   0.227  1.2971 -2.3867 -2.1382
 1527SOL     OW15346   5.379   3.950   7.926 -0.4221  0.2710 -1.1166
 1527SOL    HW115347   5.359   3.920   7.833  1.0187 -1.9639 -0.7618
 1527SOL    HW215348   5.348   3.880   7.991 -0.2238  1.1978 -0.0100
 1528SOL     OW15349   3.137   0.772   1.969 -0.2223  0.4096 -0.1571
 1528SOL    HW115350   3.114   0.703   2.037  0.4701  0.6183  0.3017
 1528SOL    HW215351   3.165   0.856   2.016  0.1887  0.5758 -0.6973
 1529SOL     OW15352   6.607   0.080   3.475 -0.0391 -0.2486  0.2196
 1529SOL    HW115353   6.622   0.144   3.550  0.4800 -0.3178  0.1755
 1529SOL    HW215354   6.693   0.062   3.428 -0.1687 -1.0392  0.2812
 1530SOL     OW15355   2.095   3.579   0.349 -0.6059 -0.7407  0.0173
 1530SOL    HW115356   2.102   3.556   0.446  0.5618 -0.2666  0.0483
 1530SOL    HW215357   2.052   3.504   0.300  1.2385 -2.1307  0.4676
 1531SOL     OW15358   4.511   2.724   1.825 -0.0926  0.0882 -0.3006
 1531SOL    HW115359   4.548   2.751   1.736  0.4503  0.3286 -0.0041
 1531SOL    HW215360   4.445   2.793   1.855  0.6497  0.6497  0.0546
 1532SOL     OW15361   8.919   6.972   1.132 -0.2553 -0.2799  0.2719
 1532SOL    HW115362   8.821   6.990   1.131 -0.5860 -2.0683  0.0606
 1532SOL    HW215363   8.964   7.035   1.196 -1.4394  0.9630 -0.0951
 1533SOL     OW15364   9.976   0.005   1.624 -0.1562 -0.0288  0.3942
 1533SOL    HW115365   9.880   0.030   1.636 -0.6101 -1.9989  1.0588
 1533SOL    HW215366  10.032   0.056   1.689 -1.0424 -0.5881  1.6110
 1535SOL     OW15367   7.691   9.424   5.056  0.6397  0.1440  0.0115
 1535SOL    HW115368   7.626   9.483   5.104 -0.0496  0.6186 -1.4676
 1535SOL    HW215369   7.643   9.345   5.017  0.4851  1.5977 -2.9329
 1536SOL     OW15370   0.653   6.299   7.317 -0.1405  0.2115  0.0547
 1536SOL    HW115371   0.712   6.324   7.394 -0.7700 -0.3010  0.7108
 1536SOL    HW215372   0.576   6.363   7.312 -1.8840 -1.6235  1.8814
 1537SOL     OW15373   2.145   7.212   4.631  0.3317  0.1904  0.6270
 1537SOL    HW115374   2.051   7.184   4.651  0.2733  0.4833  0.7678
 1537SOL    HW215375   2.205   7.132   4.634 -0.1734 -0.2627 -1.0532
 1538SOL     OW15376   1.139   9.010   1.411  0.7436 -0.3472 -0.9458
 1538SOL    HW115377   1.092   8.971   1.490 -0.0014  2.3920  0.0445
 1538SOL    HW215378   1.222   8.958   1.392  0.8143 -1.1942  1.5083
 1539SOL     OW15379   7.025   2.610   4.244 -0.3226 -0.1949  0.5052
 1539SOL    HW115380   7.100   2.560   4.288 -0.6510 -0.0315  1.2424
 1539SOL    HW215381   7.061   2.693   4.202 -0.1001 -0.0877  0.9080
 1540SOL     OW15382   1.134   7.649   0.413  0.9988  0.0027  0.2843
 1540SOL    HW115383   1.101   7.577   0.353  0.0038 -0.5503  1.4789
 1540SOL    HW215384   1.231   7.667   0.394  0.8915 -0.7009 -0.9336
 1541SOL     OW15385   3.355   5.401   0.170  0.3076  0.2098  0.4669
 1541SOL    HW115386   3.433   5.461   0.154  0.1748  0.2792  0.0849
 1541SOL    HW215387   3.382   5.306   0.154  0.2515  0.2539  0.1247
 1542SOL     OW15388   4.135   5.924   1.204  0.4415 -0.3023  0.3542
 1542SOL    HW115389   4.169   5.848   1.259  1.9717 -0.2072 -0.4187
 1542SOL    HW215390   4.100   5.995   1.265 -0.7676 -1.5074  1.0849
 1544SOL     OW15391   4.171   0.858   1.007  0.1892 -0.5398 -0.3034
 1544SOL    HW115392   4.160   0.847   1.105 -0.4627 -0.3285 -0.3499
 1544SOL    HW215393   4.263   0.829   0.980  0.5277 -0.1644  0.4350
 1545SOL     OW15394   1.996   9.681   2.329  0.0074 -0.3593  0.5743
 1545SOL    HW115395   1.969   9.611   2.395  1.9155  0.6948  2.5677
 1545SOL    HW215396   2.087   9.658   2.293 -0.1637  0.1342 -0.1708
 1549SOL     OW15397   9.788   9.429   6.136 -0.2041 -0.3523  0.2001
 1549SOL    HW115398   9.747   9.473   6.056 -1.2870 -0.1902  0.8345
 1549SOL    HW215399   9.865   9.372   6.107  0.9869  1.6646 -0.6625
 1550SOL     OW15400   0.926   4.926   4.763  0.8544 -0.0185 -0.6400
 1550SOL    HW115401   0.967   4.985   4.693 -0.8001  2.2012  0.1996
 1550SOL    HW215402   0.949   4.830   4.744  3.9870  0.9222 -1.7666
 1551SOL     OW15403   8.805   5.156   0.804 -0.3551  0.4954  0.0205
 1551SOL    HW115404   8.797   5.188   0.710 -0.5375  1.0221  0.2108
 1551SOL    HW215405   8.714   5.152   0.846 -0.3204 -0.1703  0.0362
 1552SOL     OW15406   7.446   0.779   5.311 -0.3469  0.3670 -0.0692
 1552SOL    HW115407   7.461   0.878   5.298 -0.8224  0.4398 -0.0713
 1552SOL    HW215408   7.535   0.732   5.313 -0.1113  0.8124  0.0773
 1554SOL     OW15409   9.315   3.638   1.141  0.0196  0.5514  0.4383
 1554SOL    HW115410   9.261   3.718   1.114  0.5868  0.9365  0.4422
 1554SOL    HW215411   9.401   3.637   1.090 -0.1707 -0.2927  0.1227
 1555SOL     OW15412   7.391   0.927   0.272  0.3595 -0.3650 -0.1821
 1555SOL    HW115413   7.364   0.891   0.361 -0.4290  2.6820  0.8843
 1555SOL    HW215414   7.490   0.941   0.271  0.2166  0.8284  0.7402
 1556SOL     OW15415   8.090   4.531   5.751  0.1222 -0.2930  0.1505
 1556SOL    HW115416   8.042   4.501   5.668 -2.0358 -1.0362  1.6204
 1556SOL    HW215417   8.059   4.476   5.829  1.7646  0.7089  1.5450
 1557SOL     OW15418   3.792   8.481   2.020 -0.2615 -0.6907 -0.3754
 1557SOL    HW115419   3.750   8.454   1.933 -1.1865 -1.1048  0.1895
 1557SOL    HW215420   3.774   8.578   2.037 -0.0339 -0.5965 -0.6715
 1558SOL     OW15421   4.559   3.602   5.317 -0.6957 -0.2388  0.2168
 1558SOL    HW115422   4.628   3.594   5.246 -0.0892  0.0565  0.7655
 1558SOL    HW215423   4.489   3.668   5.290 -1.2667 -1.2298 -0.7418
 1560SOL     OW15424   8.890   0.628   0.866 -0.5330 -0.0323 -0.6369
 1560SOL    HW115425   8.867   0.543   0.913  0.9757 -0.8930 -1.4251
 1560SOL    HW215426   8.912   0.609   0.770 -0.5279  1.2825 -0.9034
 1561SOL     OW15427   8.176   5.309   7.810  0.2814 -0.0261 -0.2096
 1561SOL    HW115428   8.177   5.272   7.903 -1.8395  0.5206  0.0653
 1561SOL    HW215429   8.152   5.237   7.745  0.1217 -0.0352 -0.1404
 1562SOL     OW15430   9.423   1.232   3.623 -0.5138 -0.5460 -0.0237
 1562SOL    HW115431   9.361   1.227   3.701  0.7280  0.9737  1.0943
 1562SOL    HW215432   9.493   1.161   3.631 -1.1386 -1.2109 -0.4301
 1563SOL     OW15433   1.011   3.703   2.357  0.2611  0.1468 -0.2071
 1563SOL    HW115434   1.012   3.753   2.444  0.8000 -1.2551  0.5974
 1563SOL    HW215435   1.102   3.710   2.315  0.6420 -1.0120  0.4069
 1564SOL     OW15436   1.277   6.405   5.179 -0.2815  0.1311  0.1849
 1564SOL    HW115437   1.232   6.473   5.120  0.6975  1.0531  0.4756
 1564SOL    HW215438   1.318   6.334   5.122 -1.9310 -0.6122 -0.0891
 1565SOL     OW15439   2.595   9.204   6.650 -0.8952  0.2539  0.2673
 1565SOL    HW115440   2.572   9.299   6.674  1.9520  1.1305 -0.2709
 1565SOL    HW215441   2.645   9.162   6.725  0.2008  0.0784 -0.5474
 1566SOL     OW15442   2.956   4.057   2.574  1.1668  0.2768 -0.2202
 1566SOL    HW115443   3.051   4.032   2.554  0.7149  0.0470 -2.1314
 1566SOL    HW215444   2.897   4.026   2.500 -0.4231  0.3955  0.9670
 1567SOL     OW15445   7.309   8.572   5.545 -0.2484  0.0418 -0.0215
 1567SOL    HW115446   7.318   8.666   5.512 -0.4838  0.7407  1.8129
 1567SOL    HW215447   7.212   8.546   5.544 -0.2421  0.0202 -0.0311
 1568SOL     OW15448   0.034   4.428   1.918  0.6209  0.7355  0.0978
 1568SOL    HW115449   0.030   4.514   1.969 -1.9563  0.3983  0.5239
 1568SOL    HW215450  -0.022   4.435   1.836  0.3345 -0.5751  0.1765
 1569SOL     OW15451   1.981   2.218   7.389 -0.2706 -0.0955  0.2906
 1569SOL    HW115452   1.953   2.280   7.316  0.1796 -0.1306  0.0885
 1569SOL    HW215453   1.946   2.126   7.370 -1.1389  0.1451  0.7117
 1570SOL     OW15454   5.546   1.272   4.075  0.1027 -0.2371  0.0089
 1570SOL    HW115455   5.463   1.248   4.126 -0.3467 -0.8638 -1.0058
 1570SOL    HW215456   5.599   1.339   4.127 -1.0015  0.1082  0.6998
 1571SOL     OW15457   6.420   7.308   5.209  0.4401 -0.6108 -0.1320
 1571SOL    HW115458   6.429   7.245   5.287  2.1239  1.1432  1.1529
 1571SOL    HW215459   6.503   7.303   5.153  0.4004  0.1278 -0.2593
 1572SOL     OW15460   7.801   6.277   5.835 -0.4547  0.2920  0.0587
 1572SOL    HW115461   7.866   6.253   5.906 -1.8988 -0.6983  1.0833
 1572SOL    HW215462   7.751   6.195   5.806 -0.3684  0.8098 -1.6063
 1574SOL     OW15463   6.015   1.100   0.908 -0.0014  0.4611 -0.0914
 1574SOL    HW115464   5.966   1.183   0.882 -0.4781  0.3500  0.4279
 1574SOL    HW215465   6.036   1.046   0.826 -0.2192  0.8038 -0.3737
 1576SOL     OW15466   7.774   3.816   2.041 -0.3678  0.2272  0.1907
 1576SOL    HW115467   7.800   3.902   2.085 -0.4815  0.3007  0.1150
 1576SOL    HW215468   7.793   3.822   1.943  2.2394 -0.8517  0.6038
 1578SOL     OW15469   4.170   4.632   7.204 -0.2797  0.5569 -0.0257
 1578SOL    HW115470   4.135   4.570   7.134 -0.6602  0.8554 -0.1020
 1578SOL    HW215471   4.096   4.654   7.268  0.6385 -1.6068  1.8592
 1580SOL     OW15472   5.748   3.850   1.259  0.1319  0.4504  0.4655
 1580SOL    HW115473   5.821   3.796   1.301  0.0776  1.4691  1.8765
 1580SOL    HW215474   5.660   3.806   1.277  0.4200 -1.0917 -1.7279
 1581SOL     OW15475   2.199   3.575   1.262 -0.2717  0.4697  0.4452
 1581SOL    HW115476   2.123   3.560   1.199 -0.6869 -0.5139  1.1753
 1581SOL    HW215477   2.271   3.508   1.242 -0.1624  0.5301  0.6425
 1582SOL     OW15478   8.600   9.916   4.554 -0.2386  0.2225  0.7595
 1582SOL    HW115479   8.546   9.871   4.483 -1.4685  1.4765  0.8689
 1582SOL    HW215480   8.568   9.888   4.644  0.7481 -0.7005  0.8315
 1583SOL     OW15481   8.015   1.203   7.248 -0.1114  0.0033 -0.4955
 1583SOL    HW115482   7.931   1.154   7.225 -2.5171  3.2859  0.9642
 1583SOL    HW215483   8.021   1.213   7.348  1.8794  0.0675 -0.6074
 1585SOL     OW15484   0.566   3.344   6.897  0.0312 -0.2432  0.0512
 1585SOL    HW115485   0.499   3.335   6.970 -0.0609 -0.5303 -0.0669
 1585SOL    HW215486   0.595   3.439   6.889  0.9415 -0.4159  1.2582
 1586SOL     OW15487   8.475   3.491   5.711  0.1171  0.2202  0.4717
 1586SOL    HW115488   8.516   3.555   5.777 -0.5640  0.8969  0.2436
 1586SOL    HW215489   8.544   3.462   5.645 -0.3193  3.2861 -1.4189
 1587SOL     OW15490   1.669   6.410   4.474  0.3757 -0.0579 -0.3177
 1587SOL    HW115491   1.643   6.315   4.455 -0.7119  0.1615  0.0231
 1587SOL    HW215492   1.641   6.435   4.567  1.8392  0.1983  0.0599
 1589SOL     OW15493   3.320   8.240   1.027  0.3050 -0.1037 -0.0171
 1589SOL    HW115494   3.308   8.141   1.017 -0.0281 -0.1304  0.5945
 1589SOL    HW215495   3.292   8.286   0.943 -0.1969 -0.4850 -0.0598
 1590SOL     OW15496   1.189   1.725   1.348 -0.6571  0.1954 -0.2643
 1590SOL    HW115497   1.142   1.768   1.271 -1.3256  1.0496  0.6046
 1590SOL    HW215498   1.140   1.746   1.433  1.3964  1.2900  0.6899
 1592SOL     OW15499   7.001   6.503   3.014 -0.7047  0.3221  0.1415
 1592SOL    HW115500   6.923   6.459   2.969 -0.8295 -1.1013  1.6989
 1592SOL    HW215501   7.058   6.434   3.058 -0.5822  1.6457  2.1393
 1593SOL     OW15502   4.722   5.716   0.235 -0.4586 -0.1219 -0.3440
 1593SOL    HW115503   4.628   5.694   0.210 -1.5241 -0.2338  3.4984
 1593SOL    HW215504   4.769   5.633   0.266 -0.1664  0.5268  0.9927
 1594SOL     OW15505   2.323   0.251   2.652  0.0216  0.1982 -0.3394
 1594SOL    HW115506   2.397   0.196   2.614  1.1763  1.7314 -0.3317
 1594SOL    HW215507   2.300   0.218   2.743 -0.8791 -1.7339 -1.2278
 1595SOL     OW15508   3.489   3.786   0.556  0.1585  0.0688  0.0906
 1595SOL    HW115509   3.475   3.688   0.572 -1.7869  0.4862  1.1011
 1595SOL    HW215510   3.577   3.814   0.596  1.0585 -1.3790 -0.8142
 1596SOL     OW15511   9.739   0.503   0.574  0.0162 -0.2267 -0.4835
 1596SOL    HW115512   9.694   0.575   0.521 -0.5464  0.1910  0.5452
 1596SOL    HW215513   9.832   0.533   0.597 -0.4673  0.4890  0.5698
 1597SOL     OW15514   9.757   4.322   1.345 -0.1464 -0.4746 -0.5735
 1597SOL    HW115515   9.670   4.371   1.338 -1.1194 -2.3946 -2.1601
 1597SOL    HW215516   9.774   4.298   1.441 -0.1981  1.9271  0.0772
 1598SOL     OW15517   6.283   8.618   5.954 -0.2474 -0.0526 -0.1369
 1598SOL    HW115518   6.243   8.566   6.029 -0.3406 -0.0777 -0.2030
 1598SOL    HW215519   6.309   8.709   5.986 -1.9174  0.5799 -0.4925
 1599SOL     OW15520   7.609   0.055   7.242  0.5708  0.1975 -0.3993
 1599SOL    HW115521   7.513   0.028   7.253  0.5638  0.2981 -0.2259
 1599SOL    HW215522   7.616   0.155   7.241  0.6015  0.1926 -1.0249
 1600SOL     OW15523   4.698   3.227   1.029 -0.0620  0.0943  0.0540
 1600SOL    HW115524   4.735   3.187   0.945  1.7070  1.1065  0.3367
 1600SOL    HW215525   4.772   3.266   1.083 -1.0864 -1.1248  2.4342
 1603SOL     OW15526   8.444   5.187   3.519  0.1812 -0.2254 -0.2795
 1603SOL    HW115527   8.489   5.273   3.544  1.6208 -0.8790 -0.5371
 1603SOL    HW215528   8.510   5.112   3.526 -1.6447 -1.6724  2.1245
 1605SOL     OW15529   1.572   6.154   0.357  0.1819  0.2780  0.0802
 1605SOL    HW115530   1.497   6.090   0.374  0.1810  0.0105 -0.9515
 1605SOL    HW215531   1.648   6.106   0.314  0.8487  0.6098  0.8671
 1606SOL     OW15532   0.596   2.967   1.660 -0.0130  0.3313  0.0086
 1606SOL    HW115533   0.575   3.042   1.722 -0.6060 -0.7618  1.1746
 1606SOL    HW215534   0.695   2.958   1.649  0.0096  2.7104 -1.9561
 1607SOL     OW15535   6.299   9.775   2.310 -0.5358 -0.1935 -0.2985
 1607SOL    HW115536   6.369   9.718   2.268  1.3448  1.3922  0.5985
 1607SOL    HW215537   6.339   9.827   2.386 -2.6922  0.7118  0.2597
 1609SOL     OW15538   9.483   1.665   2.838  0.3451  0.4811 -0.3825
 1609SOL    HW115539   9.401   1.685   2.785 -1.0706  0.5319  1.7978
 1609SOL    HW215540   9.499   1.567   2.839 -0.9615  0.2801  1.0537
 1610SOL     OW15541   8.257   9.571   1.491 -0.0772 -0.2275  0.0897
 1610SOL    HW115542   8.320   9.540   1.562  0.9447  1.3928 -0.0772
 1610SOL    HW215543   8.296   9.551   1.401 -0.3221 -0.2123 -0.0210
 1611SOL     OW15544   8.732   3.641   6.771  0.1030  0.5458 -0.4695
 1611SOL    HW115545   8.766   3.716   6.714 -0.9161 -0.0628 -1.8982
 1611SOL    HW215546   8.808   3.604   6.825  1.1034  1.0698 -1.4900
 1613SOL     OW15547   5.274   5.678   0.438 -0.2465  0.4566 -0.5750
 1613SOL    HW115548   5.348   5.636   0.385 -0.6473 -1.1987  0.1252
 1613SOL    HW215549   5.291   5.664   0.535 -1.9284 -0.7731 -0.4322
 1615SOL     OW15550   4.624   2.513   6.206  0.6441  0.5584  0.0037
 1615SOL    HW115551   4.688   2.449   6.166  0.0133 -0.6601  0.9019
 1615SOL    HW215552   4.567   2.466   6.274 -0.9261  1.6961 -0.4830
 1616SOL     OW15553   7.646   4.709   7.820 -0.0385  0.2796  0.2242
 1616SOL    HW115554   7.614   4.771   7.891  0.0066  1.6908 -0.9634
 1616SOL    HW215555   7.616   4.616   7.841 -0.9447  0.8550  1.5245
 1618SOL     OW15556   0.818   6.609   0.268 -0.5331 -0.1352 -0.3287
 1618SOL    HW115557   0.773   6.673   0.330  1.0792 -1.7227  2.5690
 1618SOL    HW215558   0.764   6.525   0.262 -0.8641  0.1471 -1.3750
 1619SOL     OW15559   7.377   7.388   6.911  0.3235  0.2456 -0.0954
 1619SOL    HW115560   7.286   7.426   6.928  1.4521  3.1435 -0.1772
 1619SOL    HW215561   7.409   7.340   6.993 -1.0632 -0.3517  0.0988
 1621SOL     OW15562   4.014   9.428   2.648  0.0186  0.3971  0.5647
 1621SOL    HW115563   4.055   9.438   2.557  1.3943 -0.2354  1.0886
 1621SOL    HW215564   4.078   9.379   2.707 -0.2477  2.0901  2.2933
 1622SOL     OW15565   7.541   7.757   6.412 -0.0401  0.2266 -0.4698
 1622SOL    HW115566   7.517   7.706   6.329  0.5932  0.3117 -0.7071
 1622SOL    HW215567   7.460   7.806   6.445 -0.0203  1.1564 -1.7190
 1624SOL     OW15568   4.879   5.800   0.683  0.1764  0.3847  0.0301
 1624SOL    HW115569   4.787   5.785   0.720 -0.4576 -0.9166 -1.9633
 1624SOL    HW215570   4.938   5.724   0.711  0.4512  0.8674  0.7465
 1625SOL     OW15571   2.449   1.408   2.853 -0.0067  0.3466 -0.7081
 1625SOL    HW115572   2.430   1.324   2.904  0.4743 -0.4885 -1.8771
 1625SOL    HW215573   2.400   1.407   2.766 -0.0536  1.3095 -0.7004
 1626SOL     OW15574   3.200   9.142   3.271  0.2406 -0.1357 -0.3080
 1626SOL    HW115575   3.143   9.123   3.191  0.4538 -1.2445 -0.1948
 1626SOL    HW215576   3.296   9.148   3.243  0.2080  0.4893 -0.2954
 1629SOL     OW15577   5.081   3.179   7.662 -0.1265  0.0372 -0.2263
 1629SOL    HW115578   5.105   3.082   7.672  2.3108  0.5854 -0.3319
 1629SOL    HW215579   4.986   3.187   7.631 -0.3319 -2.3135 -0.3086
 1630SOL     OW15580   3.510   0.686   2.828  0.2329  0.0103  0.5363
 1630SOL    HW115581   3.423   0.637   2.814 -0.2946  1.1283 -0.1093
 1630SOL    HW215582   3.554   0.650   2.910 -1.6875  0.6087  1.8737
 1632SOL     OW15583   7.259   7.450   3.428  0.0878 -0.1314  0.3171
 1632SOL    HW115584   7.281   7.524   3.492 -1.4335  1.1747 -0.6529
 1632SOL    HW215585   7.343   7.421   3.380  0.4492  1.9475 -0.3422
 1634SOL     OW15586   6.813   8.107   2.616  0.3676 -0.2958 -0.3688
 1634SOL    HW115587   6.882   8.052   2.568  0.6345 -0.0101 -0.3098
 1634SOL    HW215588   6.832   8.106   2.714  0.3169 -0.1682 -0.3583
 1635SOL     OW15589   4.884   2.039   0.815 -0.1267  0.2748  0.2497
 1635SOL    HW115590   4.851   2.005   0.727  0.5065  1.2760 -0.3806
 1635SOL    HW215591   4.806   2.060   0.874 -0.5320 -1.7627  0.4684
 1636SOL     OW15592   2.761   5.750   1.540  0.3121  0.1205  0.1102
 1636SOL    HW115593   2.677   5.803   1.531  0.4388  0.2837 -0.1108
 1636SOL    HW215594   2.809   5.749   1.453  1.8283  2.1760  0.8753
 1637SOL     OW15595   1.906   6.220   7.823  0.3739  0.8252 -0.1067
 1637SOL    HW115596   1.869   6.165   7.748 -0.0868  0.8446  0.1026
 1637SOL    HW215597   2.006   6.219   7.819  0.3722 -0.0696 -0.0785
 1638SOL     OW15598   3.572   2.775   7.161  0.2083  0.2351  0.0967
 1638SOL    HW115599   3.493   2.797   7.218 -0.2977 -3.1824  0.8736
 1638SOL    HW215600   3.655   2.771   7.218  0.4107  0.7764 -0.1545
 1639SOL     OW15601   0.844   5.425   5.840  0.3696  0.2213  0.0701
 1639SOL    HW115602   0.769   5.446   5.904  0.6253  0.9521  0.1430
 1639SOL    HW215603   0.901   5.507   5.829 -0.3635  0.4772 -2.0246
 1640SOL     OW15604   0.081   0.713   3.333  0.0490 -0.3595  0.1927
 1640SOL    HW115605   0.145   0.783   3.367 -0.2807 -0.5109  1.1260
 1640SOL    HW215606  -0.008   0.755   3.315 -0.4228 -0.7287  1.6619
 1641SOL     OW15607   1.688   6.124   4.409 -1.3800 -0.0231 -0.4666
 1641SOL    HW115608   1.759   6.061   4.377 -1.2460  1.4730 -3.2688
 1641SOL    HW215609   1.616   6.072   4.454  1.0436 -1.6548  1.6748
 1642SOL     OW15610   1.615   7.466   6.330 -0.3939 -0.0048 -0.5900
 1642SOL    HW115611   1.655   7.515   6.252 -1.6216  2.4622  0.2975
 1642SOL    HW215612   1.518   7.449   6.313 -1.0247  1.8355  0.9671
 1643SOL     OW15613   9.836   7.779   0.817 -0.8044 -0.1831 -0.4115
 1643SOL    HW115614   9.802   7.695   0.858  0.0213 -0.5967 -0.5768
 1643SOL    HW215615   9.928   7.798   0.851  0.2086 -0.9570 -2.6763
 1648SOL     OW15616   9.306   9.570   3.961 -0.3810 -0.3413  0.7032
 1648SOL    HW115617   9.219   9.587   4.008 -0.4324  1.4559 -0.0118
 1648SOL    HW215618   9.371   9.642   3.985  0.1017 -0.2899 -0.7145
 1649SOL     OW15619   9.759   6.890   7.526  0.2849 -0.1298 -0.4012
 1649SOL    HW115620   9.712   6.837   7.596  0.6455  0.4369  0.2813
 1649SOL    HW215621   9.858   6.886   7.542  0.3090  0.8147 -0.2922
 1650SOL     OW15622   7.602   6.189   4.280  0.2378  0.3796 -0.1765
 1650SOL    HW115623   7.506   6.217   4.282  0.2034  0.3613 -1.0969
 1650SOL    HW215624   7.621   6.126   4.354 -0.2151  1.1798  0.6299
 1652SOL     OW15625   7.814   1.083   0.064 -0.0576 -0.5621  0.2224
 1652SOL    HW115626   7.833   1.178   0.091 -0.4400 -0.6495  0.8017
 1652SOL    HW215627   7.898   1.029   0.069  0.1532 -0.2674 -0.0699
 1653SOL     OW15628   7.728   9.771   4.368 -0.3189 -0.2675 -0.3298
 1653SOL    HW115629   7.800   9.820   4.318 -0.5466 -1.4558 -1.8494
 1653SOL    HW215630   7.718   9.679   4.331 -2.1502 -0.3602  0.3325
 1654SOL     OW15631   8.633   0.859   4.363 -0.0692 -0.3996  0.6009
 1654SOL    HW115632   8.675   0.840   4.274 -2.6323  0.9863 -0.9981
 1654SOL    HW215633   8.683   0.932   4.409  0.1600  0.2222 -0.6067
 1655SOL     OW15634   2.623   7.498   6.777  0.1648 -0.7982 -0.6832
 1655SOL    HW115635   2.527   7.476   6.795  0.7467 -2.8035  0.0972
 1655SOL    HW215636   2.681   7.454   6.846  1.5356  1.9625 -0.0089
 1656SOL     OW15637   7.898   3.378   4.921  0.4843  0.4518  0.1193
 1656SOL    HW115638   7.971   3.320   4.958 -0.9106 -1.8923 -0.6959
 1656SOL    HW215639   7.810   3.334   4.938 -0.3413  0.2246 -4.2534
 1657SOL     OW15640   1.493   9.846   5.182 -0.2750 -0.2693  0.3329
 1657SOL    HW115641   1.438   9.797   5.250  0.6086  0.6057  1.6870
 1657SOL    HW215642   1.573   9.791   5.157  0.4656  0.2626  1.5023
 1658SOL     OW15643   9.479   2.601   3.165  0.3120 -0.1427  0.0555
 1658SOL    HW115644   9.493   2.669   3.237  0.1450 -0.3971  0.3295
 1658SOL    HW215645   9.386   2.565   3.171 -0.0065  0.5136 -0.8733
 1659SOL     OW15646   1.077   7.769   5.876 -0.2486 -0.0553 -0.1690
 1659SOL    HW115647   1.022   7.850   5.899  0.5595  0.7391 -0.9974
 1659SOL    HW215648   1.015   7.694   5.850 -0.9541  0.8409 -1.1328
 1662SOL     OW15649   4.278   9.958   0.569 -0.0159  0.4144  0.6673
 1662SOL    HW115650   4.359   9.930   0.518 -2.5909 -2.0823 -2.1720
 1662SOL    HW215651   4.226   9.878   0.596 -3.3189  2.0872 -0.5248
 1663SOL     OW15652   8.191   8.738   2.642 -0.2700  0.5185  0.1927
 1663SOL    HW115653   8.169   8.737   2.740  1.0659  0.2846  0.4901
 1663SOL    HW215654   8.201   8.644   2.610 -0.2039  0.6124 -0.0541
 1664SOL     OW15655   0.242   5.918   1.521 -0.0661  0.4914  0.1880
 1664SOL    HW115656   0.169   5.855   1.495  0.2860 -0.0367  0.4584
 1664SOL    HW215657   0.295   5.942   1.439  0.3907 -0.3336  0.2297
 1666SOL     OW15658   3.358   9.980   1.505 -0.3198  0.3505 -0.3111
 1666SOL    HW115659   3.325  10.000   1.597  0.0918 -1.3834  0.2332
 1666SOL    HW215660   3.432   9.912   1.510 -1.5679 -1.1902 -2.0556
 1667SOL     OW15661   8.855   3.072   1.440 -0.3339  0.0853 -0.2417
 1667SOL    HW115662   8.763   3.111   1.440 -0.7655 -0.9124  0.7287
 1667SOL    HW215663   8.869   3.022   1.355 -1.2482 -1.0299  0.2467
 1668SOL     OW15664   3.534   2.530   3.320  0.0310  0.2086  0.2603
 1668SOL    HW115665   3.560   2.613   3.271  0.0780  0.0659  0.0372
 1668SOL    HW215666   3.589   2.454   3.287 -0.6376 -0.0908 -0.1928
 1669SOL     OW15667   1.261   6.905   2.876 -0.7744 -0.3794  0.2649
 1669SOL    HW115668   1.188   6.840   2.900 -2.2178  1.0865 -0.0468
 1669SOL    HW215669   1.350   6.866   2.901 -1.7522 -1.6466  1.9103
 1670SOL     OW15670   3.006   2.513   6.287 -0.8684  0.7716  0.4946
 1670SOL    HW115671   2.929   2.568   6.255 -0.4370  0.6082 -0.8708
 1670SOL    HW215672   3.090   2.567   6.279 -0.7379  0.6872  1.2651
 1671SOL     OW15673   0.266   1.214   6.007  0.2434  0.6944 -0.1239
 1671SOL    HW115674   0.272   1.124   5.964 -0.0851  0.6800 -0.1435
 1671SOL    HW215675   0.197   1.269   5.959 -0.9234  0.2916  1.0632
 1672SOL     OW15676   9.262   2.722   1.781  0.3764 -0.3406 -0.8476
 1672SOL    HW115677   9.164   2.724   1.759  0.2360  1.7486 -0.0611
 1672SOL    HW215678   9.289   2.808   1.824  2.6650 -0.7246 -1.4494
 1673SOL     OW15679   8.834   2.632   3.878  0.5358 -0.5601  0.4179
 1673SOL    HW115680   8.750   2.636   3.931  0.1827  0.0049 -0.1788
 1673SOL    HW215681   8.862   2.724   3.851  0.3869 -0.8773 -0.8725
 1675SOL     OW15682   7.397   7.967   5.551  0.0136  0.3168 -0.0217
 1675SOL    HW115683   7.308   8.003   5.578 -0.1154  0.2155 -0.3108
 1675SOL    HW215684   7.414   7.881   5.599  0.3973  0.8498  0.7959
 1676SOL     OW15685   7.863   1.690   4.101 -0.2664 -0.2084  0.0298
 1676SOL    HW115686   7.900   1.671   4.192 -0.2369  0.8705  0.2507
 1676SOL    HW215687   7.766   1.712   4.109 -0.4461 -0.8689 -0.2930
 1678SOL     OW15688   3.656   8.909   1.445 -0.8688 -0.1066  0.1944
 1678SOL    HW115689   3.592   8.852   1.496 -0.1802 -1.2858 -0.2368
 1678SOL    HW215690   3.694   8.979   1.505 -0.3434 -1.2567  1.2182
 1679SOL     OW15691   0.095   5.751   6.038  0.0865  0.0116  0.0133
 1679SOL    HW115692   0.160   5.793   6.102  0.7184  0.1969 -0.7419
 1679SOL    HW215693   0.088   5.653   6.057  2.3563 -0.4438 -1.3797
 1680SOL     OW15694   4.750   2.062   5.586  0.1563 -0.6172  0.1771
 1680SOL    HW115695   4.838   2.056   5.633  1.2348  0.2079 -1.6896
 1680SOL    HW215696   4.706   2.148   5.610 -0.3969 -1.2447  1.4943
 1682SOL     OW15697   3.849   4.781   4.230 -0.3077 -0.5264 -0.6888
 1682SOL    HW115698   3.817   4.823   4.315 -0.2896  0.2064 -1.0410
 1682SOL    HW215699   3.780   4.715   4.197 -0.7508 -0.0960 -0.6229
 1683SOL     OW15700   3.313   5.206   7.837 -0.0267 -0.1511 -0.0818
 1683SOL    HW115701   3.326   5.205   7.738 -1.2202  2.0672 -0.3065
 1683SOL    HW215702   3.224   5.167   7.859 -1.2757  2.4449 -0.2324
 1684SOL     OW15703   1.427   2.412   5.380  0.0405 -0.0723  0.0963
 1684SOL    HW115704   1.452   2.478   5.309  0.3888  0.1766  0.4434
 1684SOL    HW215705   1.353   2.448   5.435 -1.2162 -0.8806 -1.0332
 1685SOL     OW15706   1.123   7.085   6.356 -0.0738  0.0236  0.1024
 1685SOL    HW115707   1.149   6.988   6.360 -1.4217 -0.3695 -0.1852
 1685SOL    HW215708   1.101   7.117   6.448 -0.1245 -0.0918  0.1318
 1686SOL     OW15709   6.525   8.933   2.381 -0.2036 -0.1584  0.5247
 1686SOL    HW115710   6.522   8.909   2.478  0.1817 -1.6469  0.1780
 1686SOL    HW215711   6.494   8.855   2.326  1.0748  0.1310 -0.6307
 1687SOL     OW15712   0.021   8.310   2.886  0.0632 -0.1818 -0.0907
 1687SOL    HW115713  -0.069   8.269   2.880  0.2459 -0.3446 -2.0406
 1687SOL    HW215714   0.037   8.369   2.806  1.7533 -0.3340  0.1056
 1688SOL     OW15715   3.171   2.845   7.826  0.5093  0.6373  0.2907
 1688SOL    HW115716   3.076   2.833   7.794  0.6414  2.0476 -0.6876
 1688SOL    HW215717   3.203   2.759   7.866 -1.0865  0.0516  0.3773
 1689SOL     OW15718   9.938   1.542   5.743 -0.1375 -0.6783 -0.5158
 1689SOL    HW115719   9.850   1.560   5.787  0.0803 -1.1108  0.1027
 1689SOL    HW215720   9.974   1.628   5.705 -0.6029 -0.4112 -0.3630
 1690SOL     OW15721   2.972   7.611   3.767 -0.4753  0.1596  0.5447
 1690SOL    HW115722   3.041   7.637   3.700  0.3194  0.5755  1.5117
 1690SOL    HW215723   3.000   7.526   3.812 -0.1273  0.8261  1.5978
 1691SOL     OW15724   0.962   5.810   7.685 -0.1141 -0.0313 -0.2673
 1691SOL    HW115725   1.039   5.872   7.699  0.0868 -0.4038  0.2953
 1691SOL    HW215726   0.897   5.851   7.621 -0.5092  1.2194  0.9395
 1692SOL     OW15727   2.546   3.063   0.301  0.1680  0.3198 -0.4734
 1692SOL    HW115728   2.561   2.974   0.344  0.3478  0.1390 -0.9077
 1692SOL    HW215729   2.632   3.098   0.264  0.0363  0.5289 -0.5868
 1693SOL     OW15730   7.961   2.224   7.467  0.1242 -0.2306  0.7425
 1693SOL    HW115731   7.929   2.184   7.381 -1.6889 -1.6304  2.0389
 1693SOL    HW215732   8.036   2.287   7.448 -1.4490  0.8698 -2.0569
 1694SOL     OW15733   7.729   7.541   2.764  0.0286 -0.0536  0.1084
 1694SOL    HW115734   7.780   7.623   2.790  0.9813 -1.2933  2.3442
 1694SOL    HW215735   7.631   7.560   2.768  0.2210  0.6548  1.8033
 1695SOL     OW15736   9.275   1.365   6.151 -0.5526  0.7589  0.5027
 1695SOL    HW115737   9.255   1.326   6.061 -1.0019  2.3335 -0.0899
 1695SOL    HW215738   9.279   1.465   6.145 -1.4547  0.9433  2.3998
 1696SOL     OW15739   9.421   6.800   5.846  0.2161 -0.7833 -0.2731
 1696SOL    HW115740   9.392   6.896   5.845 -2.1415 -1.4517  0.1625
 1696SOL    HW215741   9.379   6.754   5.924  1.1601 -2.2258 -0.6078
 1697SOL     OW15742   2.643   8.848   5.559  0.0222  0.0009 -0.1300
 1697SOL    HW115743   2.663   8.946   5.555  3.2399 -0.6225 -0.5351
 1697SOL    HW215744   2.711   8.803   5.617 -2.6988 -1.7227  1.8318
 1698SOL     OW15745   8.430   9.951   5.692 -0.1075 -0.9718 -0.0424
 1698SOL    HW115746   8.464   9.868   5.648 -0.7079 -1.6732  0.8048
 1698SOL    HW215747   8.506  10.010   5.717  0.2539 -0.6223 -1.9064
 1700SOL     OW15748   0.462   2.385   1.079 -0.1141 -0.2521  0.7596
 1700SOL    HW115749   0.546   2.386   1.025  0.1711 -0.3776  1.1984
 1700SOL    HW215750   0.389   2.430   1.028 -0.0962 -1.2217 -0.1338
 1701SOL     OW15751   9.787   6.602   0.195  0.1151  0.2013 -0.2302
 1701SOL    HW115752   9.837   6.562   0.118 -0.4768 -2.3745  0.6710
 1701SOL    HW215753   9.688   6.596   0.177 -0.0412 -0.8122  0.8853
 1702SOL     OW15754   3.630   3.685   1.102 -0.1901 -0.0835 -0.2846
 1702SOL    HW115755   3.657   3.608   1.160 -1.5869  0.2450  0.8266
 1702SOL    HW215756   3.532   3.703   1.113 -0.4383  0.1626 -2.5458
 1703SOL     OW15757   1.418   8.208   7.798  0.2137 -0.2697  0.2342
 1703SOL    HW115758   1.345   8.256   7.749  0.4622  0.3026  0.4203
 1703SOL    HW215759   1.399   8.211   7.896  0.6183  0.1078  0.3023
 1704SOL     OW15760   0.159   3.284   6.947 -0.6987  0.5821  0.3331
 1704SOL    HW115761   0.186   3.189   6.928 -1.4820  0.1116  1.5099
 1704SOL    HW215762   0.130   3.328   6.863  1.5413  0.3859 -0.5781
 1706SOL     OW15763   0.415   8.375   1.885  0.2559 -0.5283 -0.4769
 1706SOL    HW115764   0.492   8.372   1.821 -0.8201 -0.3513 -1.8069
 1706SOL    HW215765   0.345   8.310   1.856 -1.6758  1.8534 -1.4123
 1708SOL     OW15766   5.977   0.945   6.992 -0.4476 -0.0702  0.2293
 1708SOL    HW115767   6.008   0.857   6.956  1.4375  0.3053  0.9166
 1708SOL    HW215768   6.037   1.017   6.959 -2.2917  1.0474 -0.7519
 1710SOL     OW15769   0.467   4.239   4.517  0.5892  0.3801 -0.0455
 1710SOL    HW115770   0.414   4.261   4.435  0.6766  0.4815 -0.0740
 1710SOL    HW215771   0.421   4.166   4.568  1.7219 -1.3001 -1.3720
 1712SOL     OW15772   9.780   0.583   2.768 -0.1614 -0.0009 -0.0479
 1712SOL    HW115773   9.827   0.521   2.706  0.5191  0.5945 -0.1414
 1712SOL    HW215774   9.843   0.654   2.798 -0.7086  0.1870  0.6871
 1713SOL     OW15775   6.484   2.351   4.962  0.4153 -0.3517  0.1063
 1713SOL    HW115776   6.582   2.334   4.960  0.4249 -0.2099 -0.8387
 1713SOL    HW215777   6.466   2.448   4.948  0.1854 -0.1699  1.5319
 1714SOL     OW15778   2.919   9.150   1.573  0.1344 -0.0421 -0.1943
 1714SOL    HW115779   2.895   9.169   1.668  0.6861  1.2067 -0.2861
 1714SOL    HW215780   2.921   9.237   1.522  0.5331 -0.6207 -1.1755
 1715SOL     OW15781   2.065   1.466   7.940 -0.0947 -0.1082 -0.2042
 1715SOL    HW115782   1.983   1.443   7.887  1.2288 -1.4117 -1.7414
 1715SOL    HW215783   2.067   1.564   7.957 -1.7664 -0.0101 -0.5067
 1716SOL     OW15784   9.805   4.634   5.267  0.1033  0.4829 -0.1430
 1716SOL    HW115785   9.761   4.580   5.338 -1.2079  1.1029 -0.4588
 1716SOL    HW215786   9.833   4.575   5.192 -1.8739  0.2966 -0.7655
 1717SOL     OW15787   3.390   1.269   4.090  0.0141 -0.0782  0.7687
 1717SOL    HW115788   3.448   1.190   4.071  1.8601  1.2624  0.7362
 1717SOL    HW215789   3.324   1.245   4.162  0.7744 -1.5392  0.9904
 1718SOL     OW15790   6.601   3.432   2.032  0.2389  0.3651  0.2969
 1718SOL    HW115791   6.695   3.464   2.029  0.8718 -1.4965 -0.9297
 1718SOL    HW215792   6.583   3.386   2.119  1.3100 -1.6541 -0.5181
 1719SOL     OW15793   5.604   0.788   3.917 -0.0904 -0.1248 -0.3514
 1719SOL    HW115794   5.698   0.818   3.902 -0.0976 -0.4676 -1.0709
 1719SOL    HW215795   5.543   0.839   3.856 -0.6672  1.8953  1.8386
 1721SOL     OW15796   1.423   9.232   7.168 -0.5152 -0.2660 -0.2840
 1721SOL    HW115797   1.508   9.180   7.174 -0.3564 -0.0763 -0.8969
 1721SOL    HW215798   1.354   9.190   7.228  0.2645  0.0890  0.8817
 1722SOL     OW15799   9.473   8.499   6.033  0.2928  0.0400 -0.2760
 1722SOL    HW115800   9.407   8.426   6.019  0.5018  0.0113 -1.1313
 1722SOL    HW215801   9.458   8.542   6.122 -1.1037  0.2695 -0.6209
 1723SOL     OW15802   1.747   2.190   0.195 -0.0016 -0.4866 -0.2360
 1723SOL    HW115803   1.769   2.283   0.224 -2.1053  0.1373 -0.5297
 1723SOL    HW215804   1.804   2.125   0.245  1.6371  0.9609 -0.1757
 1724SOL     OW15805   1.905   3.481   4.861 -0.6520 -0.5591 -0.0516
 1724SOL    HW115806   1.974   3.523   4.802 -1.6688  1.1987 -0.0096
 1724SOL    HW215807   1.941   3.471   4.953 -0.9324  1.6828  0.3217
 1726SOL     OW15808   8.645   4.686   5.348 -0.4341  0.1058  0.3087
 1726SOL    HW115809   8.596   4.608   5.389 -0.4540  0.6225  1.2987
 1726SOL    HW215810   8.583   4.764   5.342 -0.0116  0.4734  0.6716
 1727SOL     OW15811   3.222   7.967   3.006  0.0217 -0.3394 -0.2149
 1727SOL    HW115812   3.180   7.899   2.945 -0.9162  0.6575 -0.6919
 1727SOL    HW215813   3.319   7.945   3.018 -0.4634 -2.3082  0.3783
 1730SOL     OW15814   8.180   0.297   3.220  0.5332  0.5179  0.0361
 1730SOL    HW115815   8.118   0.356   3.169  1.1921  2.6494  1.6463
 1730SOL    HW215816   8.228   0.350   3.290  0.5344 -2.0701  2.0957
 1731SOL     OW15817   8.446   1.780   1.722 -1.2051  0.2416  0.3406
 1731SOL    HW115818   8.451   1.800   1.624 -0.2448  0.0034  0.3393
 1731SOL    HW215819   8.379   1.707   1.737  0.4747 -1.5141 -0.4260
 1732SOL     OW15820   2.861   8.700   7.922 -0.2932 -0.3221  0.4991
 1732SOL    HW115821   2.927   8.776   7.917 -0.0968 -0.5187  0.1236
 1732SOL    HW215822   2.777   8.727   7.876 -0.0941 -0.4627  0.0468
 1734SOL     OW15823   8.000   1.625   0.479 -0.3212  0.1646 -0.5926
 1734SOL    HW115824   7.920   1.615   0.539  0.0905  1.5998  0.2028
 1734SOL    HW215825   7.971   1.623   0.384 -1.5022  2.2914 -0.2880
 1735SOL     OW15826   8.816   1.668   1.130 -0.3354  0.1003  0.4153
 1735SOL    HW115827   8.869   1.704   1.053 -0.2117  0.6107  0.7359
 1735SOL    HW215828   8.857   1.583   1.162 -0.9889 -0.6641 -0.7453
 1737SOL     OW15829   1.324   0.569   0.369  0.0851  0.4583 -0.2483
 1737SOL    HW115830   1.372   0.606   0.448  0.9664  0.2694 -0.6933
 1737SOL    HW215831   1.351   0.474   0.355 -0.2016  0.4366 -0.6805
 1738SOL     OW15832   3.108   2.656   1.403 -0.2147  0.3349  0.5923
 1738SOL    HW115833   3.130   2.560   1.418 -1.0699  0.1462  0.6483
 1738SOL    HW215834   3.163   2.713   1.465  0.1584 -0.1247  0.6861
 1739SOL     OW15835   3.066   5.912   6.072  0.4238 -0.6880  0.1581
 1739SOL    HW115836   3.094   5.999   6.030  0.0361 -0.7648 -0.2567
 1739SOL    HW215837   3.045   5.846   6.000  1.5118 -1.3798  0.4716
 1740SOL     OW15838   4.676   9.681   6.848  0.3490  0.0291  0.1188
 1740SOL    HW115839   4.721   9.642   6.768 -0.1243 -0.3068  0.0135
 1740SOL    HW215840   4.671   9.613   6.921 -3.3329 -1.2076 -1.1771
 1741SOL     OW15841   1.004   8.034   3.764 -0.6159 -0.2816  0.5294
 1741SOL    HW115842   1.070   8.000   3.697 -2.7855  0.7480 -2.2185
 1741SOL    HW215843   0.980   7.961   3.828  0.7650 -1.5705 -0.3913
 1742SOL     OW15844   9.108   1.035   0.185  0.5852  0.2421 -0.1513
 1742SOL    HW115845   9.086   1.029   0.282 -1.5028  0.2557 -0.5904
 1742SOL    HW215846   9.169   0.960   0.160  0.0728 -0.5449  0.8981
 1743SOL     OW15847   1.998   0.947   5.774  0.6290 -0.1007 -0.3187
 1743SOL    HW115848   2.073   0.881   5.772 -0.0855 -0.8769 -1.3815
 1743SOL    HW215849   1.932   0.926   5.702  0.0897  1.4151 -0.2853
 1744SOL     OW15850   5.471   8.711   4.425 -0.4051 -0.3306  0.2985
 1744SOL    HW115851   5.505   8.645   4.491  0.0692 -0.1832  0.2006
 1744SOL    HW215852   5.461   8.800   4.469  0.4749 -0.0891  0.0289
 1745SOL     OW15853   5.553   4.254   1.368  0.9224 -0.2043  0.3974
 1745SOL    HW115854   5.455   4.245   1.352  0.7197 -0.3502  1.6357
 1745SOL    HW215855   5.582   4.347   1.345  0.2692  0.1846  1.1152
 1746SOL     OW15856   9.822   2.216   6.116  0.3470  0.0192 -0.1741
 1746SOL    HW115857   9.876   2.299   6.108 -0.0522 -0.0367 -4.4183
 1746SOL    HW215858   9.877   2.137   6.088 -0.2685 -0.7457  0.7329
 1747SOL     OW15859   3.319   1.738   5.759  0.2603 -0.3635 -0.3920
 1747SOL    HW115860   3.289   1.722   5.853  0.1724  0.7116 -0.2336
 1747SOL    HW215861   3.300   1.833   5.733  0.6365 -0.5442 -1.3643
 1748SOL     OW15862   5.934   0.836   4.982 -0.1891 -0.1856  0.2279
 1748SOL    HW115863   5.837   0.857   4.981 -0.4451 -1.3201  0.4135
 1748SOL    HW215864   5.980   0.881   4.906 -1.2930 -1.6930 -1.3621
 1749SOL     OW15865   6.829   4.282   1.328  0.2377 -0.2155  0.2484
 1749SOL    HW115866   6.928   4.288   1.321  0.3520 -0.3399  1.5577
 1749SOL    HW215867   6.798   4.190   1.303  0.5873 -0.5842  1.1647
 1750SOL     OW15868   4.473   6.885   2.739  0.0392  0.7018 -0.4655
 1750SOL    HW115869   4.536   6.853   2.669 -0.8488 -1.8305 -0.1670
 1750SOL    HW215870   4.507   6.859   2.829 -1.0102  0.0580 -0.2511
 1751SOL     OW15871   3.990   1.138   0.130  0.1537 -0.3484 -0.3514
 1751SOL    HW115872   4.020   1.169   0.040 -0.3712  0.0513 -0.3911
 1751SOL    HW215873   3.890   1.138   0.134  0.1735  0.7790  0.6170
 1752SOL     OW15874   8.678   7.791   6.970  0.1643 -0.0735 -0.3815
 1752SOL    HW115875   8.770   7.827   6.986  0.3853  0.2205 -2.2086
 1752SOL    HW215876   8.681   7.727   6.893 -0.6135 -2.4412  1.4788
 1753SOL     OW15877   8.690   4.934   6.220 -0.2058 -0.2360  0.2307
 1753SOL    HW115878   8.652   4.842   6.225  0.4134 -0.3922  2.3323
 1753SOL    HW215879   8.769   4.935   6.159 -1.0028 -0.8048 -0.8217
 1754SOL     OW15880   1.049   8.245   4.781 -0.0370 -0.0025 -0.6522
 1754SOL    HW115881   0.986   8.323   4.775  0.4512  0.3432 -1.2888
 1754SOL    HW215882   1.080   8.235   4.876  0.5577  1.1034 -0.7196
 1755SOL     OW15883   6.851   7.796   6.799  0.0514  0.7987 -0.4575
 1755SOL    HW115884   6.872   7.738   6.878 -0.4347 -0.3135 -1.1204
 1755SOL    HW215885   6.880   7.749   6.716  1.0957  2.2241 -0.9007
 1756SOL     OW15886   3.393   9.387   5.471 -0.1361  0.2111 -0.3630
 1756SOL    HW115887   3.382   9.485   5.491  0.3210  0.4833 -1.4615
 1756SOL    HW215888   3.482   9.357   5.504 -0.2634  0.1686 -0.0539
 1757SOL     OW15889   6.119   1.130   2.955  0.3436 -0.3111  0.5362
 1757SOL    HW115890   6.035   1.085   2.988  0.4529 -0.6547  0.3564
 1757SOL    HW215891   6.140   1.096   2.863  0.4042  0.1487  0.3803
 1758SOL     OW15892   8.710   2.767   3.295 -0.3118  0.3146  0.1840
 1758SOL    HW115893   8.753   2.692   3.244  0.4897  1.4313 -0.8131
 1758SOL    HW215894   8.617   2.782   3.262  0.1174  0.8639 -0.7793
 1760SOL     OW15895   3.591   5.565   7.069  0.0963  0.1528  0.5860
 1760SOL    HW115896   3.550   5.538   7.156 -0.7582 -1.4618 -0.3005
 1760SOL    HW215897   3.669   5.506   7.049  0.4970  0.7400  0.4148
 1761SOL     OW15898   0.268   0.917   5.891  0.3488  0.3697  0.0089
 1761SOL    HW115899   0.301   0.959   5.807 -1.0838 -1.4903 -1.5431
 1761SOL    HW215900   0.278   0.818   5.885  1.3446  0.2848  2.5521
 1763SOL     OW15901   4.223   1.994   7.064  0.2360  0.2139  0.1356
 1763SOL    HW115902   4.170   2.078   7.074 -0.0998 -0.0255  0.3947
 1763SOL    HW215903   4.269   1.994   6.976 -1.4994 -0.2993 -0.7849
 1764SOL     OW15904   7.713   8.038   4.697  0.2150 -0.3740 -0.0632
 1764SOL    HW115905   7.681   7.955   4.650  0.3830 -0.6250  0.2648
 1764SOL    HW215906   7.780   8.085   4.639  0.4149 -0.6770 -0.0806
 1766SOL     OW15907   9.621   7.337   6.984  0.2941 -0.5580  0.2045
 1766SOL    HW115908   9.594   7.311   6.891  1.1037  0.6204 -0.3735
 1766SOL    HW215909   9.690   7.272   7.018  1.3924  0.0858 -0.7548
 1767SOL     OW15910   7.014   8.599   7.760 -0.5648 -0.0417  0.1109
 1767SOL    HW115911   7.011   8.640   7.669 -0.1810 -0.6354 -0.1742
 1767SOL    HW215912   7.062   8.660   7.823 -1.0608  0.4853 -0.0202
 1768SOL     OW15913   2.359   9.538   3.765  1.0861 -0.9048 -0.3991
 1768SOL    HW115914   2.439   9.581   3.807  0.2457 -0.2101  0.5143
 1768SOL    HW215915   2.321   9.599   3.696 -0.1895 -0.0806  0.9938
 1769SOL     OW15916   0.916   4.851   6.658 -0.0194  0.2058 -0.5536
 1769SOL    HW115917   0.980   4.876   6.586 -0.8898 -0.2621 -1.4924
 1769SOL    HW215918   0.966   4.805   6.732  0.9881  1.3482 -0.5119
 1770SOL     OW15919   9.885   8.895   4.095 -0.3869  0.1940  0.2057
 1770SOL    HW115920   9.817   8.969   4.095  0.3048  0.8446 -0.9602
 1770SOL    HW215921   9.854   8.821   4.037  0.7699  1.3548 -1.9877
 1771SOL     OW15922   4.859   1.664   7.309  0.0197  0.6733 -0.1900
 1771SOL    HW115923   4.884   1.593   7.244  0.4668 -1.2577  2.0222
 1771SOL    HW215924   4.771   1.643   7.350  0.9987  0.3608  1.8329
 1772SOL     OW15925   8.690   8.551   5.332 -0.0421 -0.7829  0.0074
 1772SOL    HW115926   8.682   8.523   5.237  0.3426 -2.3536  0.4150
 1772SOL    HW215927   8.735   8.478   5.384 -3.1330 -1.3013  2.0382
 1773SOL     OW15928   1.266   1.723   3.661  0.3664  0.4444 -0.0792
 1773SOL    HW115929   1.358   1.696   3.688  0.8864  2.5764  0.4002
 1773SOL    HW215930   1.208   1.643   3.655  1.3264 -0.5595  3.1473
 1774SOL     OW15931   0.750   5.728   6.510 -0.2055 -0.3214  0.1189
 1774SOL    HW115932   0.714   5.677   6.431  2.0376 -2.6499  0.5285
 1774SOL    HW215933   0.692   5.711   6.589 -0.4246 -0.9244 -0.1609
 1775SOL     OW15934   2.018   3.236   0.506  0.7990 -0.3996 -0.3155
 1775SOL    HW115935   2.034   3.139   0.522 -0.8308 -0.5990  0.1646
 1775SOL    HW215936   2.078   3.290   0.565  0.5144 -1.1116  0.6257
 1776SOL     OW15937   2.302   3.502   5.212 -0.2012 -0.0322 -0.1796
 1776SOL    HW115938   2.382   3.559   5.192  1.2938 -2.1000 -0.1544
 1776SOL    HW215939   2.308   3.416   5.162 -3.4703  0.6220 -1.8066
 1777SOL     OW15940   9.117   1.924   3.703 -0.0878  0.0522  0.4235
 1777SOL    HW115941   9.092   1.830   3.679  1.6318 -0.2770 -0.1932
 1777SOL    HW215942   9.059   1.956   3.778 -1.7366 -0.9360 -0.4172
 1778SOL     OW15943   4.017   1.317   1.395  0.2232  0.1749 -0.1089
 1778SOL    HW115944   3.965   1.280   1.472  0.6709 -0.1122  0.0560
 1778SOL    HW215945   4.021   1.249   1.321 -1.2409  0.8961 -0.8785
 1779SOL     OW15946   8.194   8.499   6.374 -0.2352  0.3030 -0.4942
 1779SOL    HW115947   8.167   8.587   6.335  0.9362  0.2912 -1.3632
 1779SOL    HW215948   8.233   8.442   6.302  0.7784 -0.2037  0.4586
 1780SOL     OW15949   3.264   3.993   1.211 -0.2693 -0.9492 -0.1703
 1780SOL    HW115950   3.283   4.044   1.127 -1.6209  0.2771  0.2434
 1780SOL    HW215951   3.165   3.980   1.220 -0.0808 -1.6786  0.8750
 1781SOL     OW15952   7.461   7.388   5.421 -0.5095  0.4628 -0.1462
 1781SOL    HW115953   7.372   7.402   5.378 -0.6597  0.4569  0.1619
 1781SOL    HW215954   7.449   7.338   5.507  0.0781 -2.1418 -1.5395
 1782SOL     OW15955   1.379   5.009   2.928 -0.1687  0.1226  0.5255
 1782SOL    HW115956   1.357   4.929   2.871 -0.7352  0.9334 -0.4245
 1782SOL    HW215957   1.384   5.090   2.869 -1.0600  1.0298  1.6883
 1783SOL     OW15958   1.605   2.177   4.911  0.1918  0.1435  0.2958
 1783SOL    HW115959   1.691   2.223   4.891  0.1607 -0.2452 -0.7808
 1783SOL    HW215960   1.612   2.129   4.998  1.2211 -0.2664 -0.0072
 1784SOL     OW15961   2.863   7.192   6.245  0.1005 -0.3898  0.2117
 1784SOL    HW115962   2.850   7.256   6.321  1.2263  0.4590 -0.2898
 1784SOL    HW215963   2.775   7.152   6.219 -0.7401  1.5494  0.0085
 1787SOL     OW15964   2.570   7.600   2.477 -0.0615  0.2449  0.3926
 1787SOL    HW115965   2.511   7.518   2.478 -0.0082  0.2042  1.0948
 1787SOL    HW215966   2.651   7.583   2.534  0.3162  0.5272 -0.0571
 1788SOL     OW15967   4.626   6.303   3.298  0.0281 -0.2354 -0.1080
 1788SOL    HW115968   4.664   6.391   3.271  1.7325 -0.5561  1.1108
 1788SOL    HW215969   4.679   6.266   3.375 -1.8264 -1.4440  0.6264
 1789SOL     OW15970   1.361   7.992   4.250 -0.0653  0.7092 -0.1787
 1789SOL    HW115971   1.296   7.934   4.201  0.8153 -0.5620  0.1290
 1789SOL    HW215972   1.386   7.948   4.336  1.4573  1.0093 -0.4532
 1791SOL     OW15973   7.279   4.188   7.810  0.0832 -0.9395 -0.4713
 1791SOL    HW115974   7.345   4.176   7.736  2.7137 -0.8179  1.7829
 1791SOL    HW215975   7.271   4.286   7.832  0.3769 -1.1064  0.3628
 1794SOL     OW15976   5.039   6.667   0.172 -0.0945 -0.1236 -0.5050
 1794SOL    HW115977   5.103   6.590   0.181  1.1849  0.9414 -0.4904
 1794SOL    HW215978   4.988   6.677   0.258  0.2731 -0.4839 -0.2385
 1795SOL     OW15979   4.227   9.914   1.565 -0.3909  0.2030 -0.0689
 1795SOL    HW115980   4.149   9.976   1.562  0.1249  0.9056  0.8175
 1795SOL    HW215981   4.290   9.943   1.637 -0.0908 -1.2948  0.2887
 1796SOL     OW15982   4.807   8.084   1.779  0.1572  0.0341  0.5476
 1796SOL    HW115983   4.761   8.156   1.727 -0.1471 -0.3064  0.3434
 1796SOL    HW215984   4.843   8.016   1.716  2.0876  0.9616  0.6205
 1799SOL     OW15985   0.213   6.333   7.525  0.6455 -0.5836 -0.2251
 1799SOL    HW115986   0.155   6.307   7.448  0.4808  0.8679 -0.6118
 1799SOL    HW215987   0.269   6.412   7.499  0.9679 -0.4139  0.9682
 1800SOL     OW15988   2.148   0.275   6.257  0.1820  0.4927 -0.0249
 1800SOL    HW115989   2.192   0.362   6.235 -0.7501  0.9536 -0.0850
 1800SOL    HW215990   2.068   0.292   6.314  0.0389 -0.3330  0.0182
 1801SOL     OW15991   4.456   5.499   0.241 -0.9191 -0.4476  0.5229
 1801SOL    HW115992   4.428   5.587   0.280  2.2965  1.0875 -0.4806
 1801SOL    HW215993   4.499   5.443   0.312 -1.6072 -0.6294  0.8067
 1802SOL     OW15994   2.809   6.696   2.448  0.0711  0.4220 -0.0581
 1802SOL    HW115995   2.811   6.702   2.348  2.7832 -0.8294 -0.1413
 1802SOL    HW215996   2.879   6.757   2.486  0.4436 -0.6171  0.9605
 1803SOL     OW15997   7.533   5.478   2.971 -0.5234 -1.1244  0.8642
 1803SOL    HW115998   7.522   5.466   3.069  0.8450 -0.4614  1.1123
 1803SOL    HW215999   7.629   5.467   2.946 -0.2007  2.6093  0.1924
 1805SOL     OW16000   8.355   3.103   0.913  0.4232  0.1837  0.4239
 1805SOL    HW116001   8.437   3.157   0.892 -0.5144  1.1499 -0.8633
 1805SOL    HW216002   8.304   3.086   0.829  0.7633 -2.8789  0.7895
 1806SOL     OW16003   2.534   5.426   4.860 -0.1693  0.1513 -0.2716
 1806SOL    HW116004   2.462   5.398   4.923  0.1282  1.4149  0.6489
 1806SOL    HW216005   2.600   5.484   4.909  0.4228  0.5926 -1.5844
 1807SOL     OW16006   2.414   8.540   7.070  0.0836  0.4752 -0.2326
 1807SOL    HW116007   2.399   8.446   7.040 -1.4338  0.2273  1.2002
 1807SOL    HW216008   2.328   8.590   7.067 -0.1163  0.4909  3.3093
 1808SOL     OW16009   4.630   4.213   1.583 -0.0826 -0.3562  0.1821
 1808SOL    HW116010   4.543   4.186   1.544 -0.1698 -0.8822  0.7389
 1808SOL    HW216011   4.698   4.141   1.567  0.1460 -0.1226  0.0979
 1810SOL     OW16012   2.987   6.469   0.574  0.2512 -0.4762  0.2173
 1810SOL    HW116013   2.965   6.557   0.532  0.5228 -0.2580  0.5322
 1810SOL    HW216014   2.994   6.480   0.673  0.3691 -0.8343  0.2489
 1811SOL     OW16015   0.554   4.548   3.185  0.4126  0.7152 -0.7012
 1811SOL    HW116016   0.602   4.473   3.138 -2.8521 -2.3755  0.6851
 1811SOL    HW216017   0.503   4.601   3.118 -0.4823 -0.8024 -1.2493
 1812SOL     OW16018   6.997   2.513   1.518  0.3779 -0.3924 -0.5895
 1812SOL    HW116019   6.982   2.453   1.439 -0.7054 -1.5564  0.4766
 1812SOL    HW216020   7.068   2.473   1.577  0.8700  0.2519 -0.7353
 1813SOL     OW16021   2.516   0.756   7.271 -0.0566  0.5483 -0.3134
 1813SOL    HW116022   2.527   0.662   7.238 -0.5127  0.0898  0.8099
 1813SOL    HW216023   2.602   0.805   7.261  0.7161 -0.5523  0.8341
 1814SOL     OW16024   7.745   7.865   0.896 -0.4209 -0.0431  0.3902
 1814SOL    HW116025   7.679   7.940   0.894  1.3022  1.5081  0.1269
 1814SOL    HW216026   7.784   7.857   0.988  0.9508  0.7868 -0.1105
 1816SOL     OW16027   7.284   1.133   7.493  0.4438  0.8010  0.3325
 1816SOL    HW116028   7.188   1.109   7.479  0.0569  1.4524  1.7405
 1816SOL    HW216029   7.325   1.070   7.560  1.2393 -0.0064 -0.8980
 1817SOL     OW16030   3.099   5.078   0.944  0.0009  0.1015  0.0599
 1817SOL    HW116031   3.150   5.005   0.990  0.4117 -0.0380 -0.6060
 1817SOL    HW216032   3.002   5.071   0.968  0.1081 -0.3845  0.3611
 1818SOL     OW16033   9.661   8.364   3.200  0.4468  0.0048  0.4202
 1818SOL    HW116034   9.670   8.279   3.148  2.2552  2.3836 -3.3908
 1818SOL    HW216035   9.569   8.401   3.186  1.2457  1.1428 -2.0039
 1819SOL     OW16036   5.401   9.233   3.518 -0.1405 -0.3348 -0.2144
 1819SOL    HW116037   5.367   9.171   3.447  1.2023 -1.2789 -0.0482
 1819SOL    HW216038   5.454   9.306   3.475 -0.0986 -0.3810 -0.2424
 1820SOL     OW16039   7.056   0.634   7.351 -0.7760 -0.0052 -0.2759
 1820SOL    HW116040   7.105   0.720   7.337 -0.0195 -0.3322  0.3315
 1820SOL    HW216041   7.090   0.589   7.434 -0.8427 -1.1244 -0.8457
 1821SOL     OW16042   6.126   8.001   5.260  0.2286 -0.6268 -0.4082
 1821SOL    HW116043   6.027   7.997   5.270  0.2792  1.3238  1.2086
 1821SOL    HW216044   6.166   8.047   5.340  2.1226  1.6728 -2.6040
 1822SOL     OW16045   9.976   6.862   7.723  0.4177  0.2484  0.4337
 1822SOL    HW116046   9.968   6.951   7.768 -0.5701 -0.1502  1.0520
 1822SOL    HW216047   9.976   6.789   7.792 -0.7583 -0.3458 -0.1947
 1823SOL     OW16048   9.044   9.112   2.196 -0.0159 -0.5362  0.2428
 1823SOL    HW116049   9.095   9.073   2.273  0.9135 -1.6940 -0.9281
 1823SOL    HW216050   9.033   9.210   2.209  0.8540 -0.5895  1.4505
 1824SOL     OW16051   0.366   9.594   7.618 -0.1670  0.3250  0.5845
 1824SOL    HW116052   0.313   9.633   7.543 -0.1452  3.0366  1.9452
 1824SOL    HW216053   0.462   9.587   7.591 -0.4498 -0.4570 -0.2754
 1825SOL     OW16054   9.402   4.616   6.398  0.2846  0.3219 -0.7308
 1825SOL    HW116055   9.303   4.621   6.388  0.2473 -0.9615 -1.0793
 1825SOL    HW216056   9.444   4.696   6.356 -0.5272  0.1782 -1.8267
 1826SOL     OW16057   9.090   8.452   1.630 -0.4931 -0.5465  0.0740
 1826SOL    HW116058   9.184   8.424   1.651 -0.3512 -1.4942 -1.7019
 1826SOL    HW216059   9.030   8.372   1.635 -1.3992  0.2215  2.1017
 1827SOL     OW16060   4.590   5.219   4.208 -0.2399 -0.1474 -0.5866
 1827SOL    HW116061   4.528   5.197   4.133 -0.6627 -1.6027  0.1720
 1827SOL    HW216062   4.639   5.136   4.237  3.1627  1.2114 -2.1239
 1828SOL     OW16063   9.609   5.316   6.832  0.9481 -0.5271 -0.5469
 1828SOL    HW116064   9.621   5.329   6.931 -0.8278 -0.2498 -0.3538
 1828SOL    HW216065   9.576   5.224   6.814 -0.4174 -0.0082 -0.7344
 1830SOL     OW16066   7.937   0.092   3.252 -0.1518  1.0015  0.1406
 1830SOL    HW116067   7.855   0.130   3.295 -1.0491  0.8930 -1.4350
 1830SOL    HW216068   7.976   0.158   3.188 -0.6146  0.0371 -1.1734
 1831SOL     OW16069   2.004   5.205   7.947 -0.5708 -0.2309 -0.2406
 1831SOL    HW116070   1.991   5.277   7.879 -0.8608  0.6148  0.7050
 1831SOL    HW216071   1.922   5.196   8.003  0.7262  1.1471  1.9627
 1832SOL     OW16072   3.106   2.950   2.336 -0.7451 -0.0274 -0.1986
 1832SOL    HW116073   3.159   2.888   2.278  0.8034 -0.5427  1.7134
 1832SOL    HW216074   3.129   3.045   2.315 -1.2503 -0.1666 -1.3958
 1833SOL     OW16075   2.810   6.707   7.793 -0.2414 -0.6555  0.7728
 1833SOL    HW116076   2.854   6.700   7.882  1.0705  0.0663  0.2010
 1833SOL    HW216077   2.881   6.714   7.722 -1.2823  0.9513 -0.1249
 1834SOL     OW16078   2.014   1.147   0.509  0.2915 -0.7362  0.5555
 1834SOL    HW116079   1.980   1.096   0.589 -0.3089 -0.4000  0.5189
 1834SOL    HW216080   2.015   1.245   0.530 -3.8501 -0.2148 -1.2385
 1836SOL     OW16081   0.241   2.758   4.785  0.4552 -0.0070  0.3883
 1836SOL    HW116082   0.238   2.856   4.805 -0.3632 -0.5959  3.4344
 1836SOL    HW216083   0.153   2.729   4.749  0.2426  0.1443  0.7771
 1838SOL     OW16084   2.510   5.136   3.751 -0.5056  0.0832  0.3910
 1838SOL    HW116085   2.428   5.081   3.733 -0.9974  1.0920 -0.4969
 1838SOL    HW216086   2.562   5.146   3.667  0.0595  0.2231  0.7554
 1840SOL     OW16087   7.215   5.828   3.986  0.7097  0.1638 -0.1274
 1840SOL    HW116088   7.303   5.841   3.940  0.6831 -0.1301 -0.2658
 1840SOL    HW216089   7.147   5.889   3.946  0.3843 -0.9492 -1.3173
 1841SOL     OW16090   4.922   9.505   5.133  0.0589  0.3407  0.0345
 1841SOL    HW116091   4.892   9.601   5.137 -0.9032  0.0751 -0.5714
 1841SOL    HW216092   4.859   9.448   5.186  0.2485 -0.0357 -0.1412
 1842SOL     OW16093   8.400   9.175   3.734  0.6842 -0.2178  0.3869
 1842SOL    HW116094   8.335   9.170   3.659  1.0201 -0.7550  0.1273
 1842SOL    HW216095   8.439   9.267   3.739  1.4809 -0.4847 -0.7966
 1843SOL     OW16096   2.463   9.858   6.322 -0.0816 -0.7102  0.3286
 1843SOL    HW116097   2.386   9.796   6.338  1.4487 -2.7089  0.1823
 1843SOL    HW216098   2.492   9.851   6.227 -0.3125  0.7557  0.1415
 1844SOL     OW16099   1.042   8.766   3.620 -0.1390 -0.0512  0.0994
 1844SOL    HW116100   1.130   8.719   3.622 -0.0070  0.2058  0.3650
 1844SOL    HW216101   0.972   8.707   3.660 -0.4612 -1.0134 -1.8093
 1845SOL     OW16102   9.990   3.545   4.706  0.4208 -0.1295  0.3880
 1845SOL    HW116103  10.034   3.463   4.669  0.9737 -0.3827  1.5869
 1845SOL    HW216104   9.891   3.539   4.690  0.4851 -0.9123  0.2578
 1847SOL     OW16105   1.668   2.962   7.890 -0.3192  0.8726 -0.1118
 1847SOL    HW116106   1.628   2.934   7.977 -0.2387  1.0961 -0.0036
 1847SOL    HW216107   1.595   2.978   7.824 -0.4490  2.0719  0.3177
 1849SOL     OW16108   4.364   7.305   1.268  0.4551 -0.0802 -0.0791
 1849SOL    HW116109   4.437   7.279   1.332 -1.9778 -2.0468  2.0077
 1849SOL    HW216110   4.342   7.227   1.209  0.3053  0.6157 -0.9396
 1850SOL     OW16111   8.077   0.375   5.830 -0.1485  0.0444 -0.5817
 1850SOL    HW116112   8.129   0.386   5.745  0.1603  0.2671 -0.3620
 1850SOL    HW216113   8.098   0.287   5.871  0.8456  0.5740  0.0536
 1851SOL     OW16114   8.103   1.880   2.767 -0.1068  0.1714 -0.3253
 1851SOL    HW116115   8.171   1.939   2.722 -0.2730  0.8479  0.2958
 1851SOL    HW216116   8.039   1.937   2.818 -0.9652 -0.4886 -0.6542
 1853SOL     OW16117   3.481   2.891   3.864 -0.0839 -0.0490  0.9849
 1853SOL    HW116118   3.397   2.873   3.814 -0.1554  0.7611  0.8045
 1853SOL    HW216119   3.516   2.805   3.903  0.2323 -0.7577 -0.8395
 1854SOL     OW16120   9.389   9.829   5.285 -0.0750  0.1678  0.1095
 1854SOL    HW116121   9.459   9.761   5.266  1.6417  1.8188  0.4402
 1854SOL    HW216122   9.302   9.783   5.302  0.7770 -1.8670 -0.8981
 1855SOL     OW16123   3.610   2.085   0.491 -0.6335  0.2231  0.3401
 1855SOL    HW116124   3.639   2.071   0.397 -1.9577  1.2557 -0.2343
 1855SOL    HW216125   3.669   2.031   0.552  0.0666 -0.6547 -1.0747
 1856SOL     OW16126   1.429   1.823   2.904 -0.7678 -0.3654  0.2215
 1856SOL    HW116127   1.516   1.826   2.952 -0.1852  0.7361 -0.8796
 1856SOL    HW216128   1.414   1.733   2.865  0.3963 -0.2286 -0.5359
 1857SOL     OW16129   1.273   8.907   3.785 -0.4209 -0.1328  0.3798
 1857SOL    HW116130   1.332   8.839   3.742 -2.6227 -3.0538  1.7926
 1857SOL    HW216131   1.265   8.887   3.883 -0.6864  2.5151  0.9397
 1858SOL     OW16132   2.069   1.438   0.251 -0.1874 -0.2557 -0.2842
 1858SOL    HW116133   2.159   1.396   0.237 -1.1086 -2.1466 -0.7136
 1858SOL    HW216134   2.014   1.426   0.168 -1.0494  0.3202  0.2028
 1859SOL     OW16135   0.240   3.047   4.775  0.7559 -0.5858 -0.1768
 1859SOL    HW116136   0.317   3.109   4.789 -0.4658  0.8155  0.4938
 1859SOL    HW216137   0.154   3.098   4.783 -0.2311 -1.7687 -2.5621
 1860SOL     OW16138   4.629   1.719   3.993  0.4418 -0.6575 -0.0589
 1860SOL    HW116139   4.624   1.619   3.995  0.7781 -0.6995 -0.8135
 1860SOL    HW216140   4.615   1.750   3.899  1.0576 -0.0388  0.0520
 1861SOL     OW16141   3.500   3.140   7.443  0.1195 -0.6260 -0.2352
 1861SOL    HW116142   3.558   3.123   7.523 -0.2715  0.9346  0.4133
 1861SOL    HW216143   3.458   3.055   7.413  1.3108 -1.4575  0.4160
 1862SOL     OW16144   2.638   7.592   4.707 -1.1228 -0.3310  0.2628
 1862SOL    HW116145   2.657   7.690   4.717 -1.8910 -0.2569  1.0373
 1862SOL    HW216146   2.588   7.577   4.622  0.4466 -0.2606 -0.6875
 1863SOL     OW16147   7.121   5.119   1.549  0.1763  0.2165  0.1645
 1863SOL    HW116148   7.024   5.138   1.534  0.0712  0.1904  0.7906
 1863SOL    HW216149   7.153   5.053   1.482 -0.6894 -1.1583  1.0665
 1865SOL     OW16150   9.241   5.434   7.086 -0.3185 -0.0631  0.4921
 1865SOL    HW116151   9.141   5.424   7.083 -0.2346 -0.7069 -0.2423
 1865SOL    HW216152   9.281   5.389   7.007  0.5861 -0.1284  0.9847
 1866SOL     OW16153   5.433   0.085   5.763  0.0489 -0.0850  0.1347
 1866SOL    HW116154   5.514   0.046   5.806  0.0234  0.3156  0.5450
 1866SOL    HW216155   5.451   0.180   5.736 -0.0834 -0.1891 -0.3273
 1867SOL     OW16156   5.147   6.091   2.280  0.2355  0.1769 -0.2228
 1867SOL    HW116157   5.136   6.188   2.300 -1.2602  0.2167 -1.1573
 1867SOL    HW216158   5.071   6.040   2.321  1.6238 -0.7394  1.2308
 1868SOL     OW16159   2.622   1.876   5.657  0.3224 -0.1962  0.5159
 1868SOL    HW116160   2.682   1.857   5.578 -0.4449 -1.0414  0.1291
 1868SOL    HW216161   2.531   1.839   5.640 -0.1118  0.4184  1.4296
 1870SOL     OW16162   1.726   8.540   5.562  0.2086  0.3480 -0.0889
 1870SOL    HW116163   1.719   8.459   5.620 -0.4264  1.0679  0.8506
 1870SOL    HW216164   1.821   8.573   5.561  0.1827  0.4595  0.7272
 1872SOL     OW16165   3.306   5.264   4.987  0.5442 -0.3054  0.1673
 1872SOL    HW116166   3.330   5.355   4.954 -0.5944 -0.3797 -0.9050
 1872SOL    HW216167   3.382   5.201   4.971  0.4869 -0.0481 -1.1810
 1873SOL     OW16168   6.768   8.831   2.158  0.7588 -0.0010  0.0287
 1873SOL    HW116169   6.688   8.857   2.104 -0.6064  0.1062  2.0164
 1873SOL    HW216170   6.844   8.808   2.098 -1.2780 -1.7101 -1.9830
 1874SOL     OW16171   4.223   2.234   0.191 -0.0111  0.6330  0.0902
 1874SOL    HW116172   4.177   2.319   0.215 -0.6369  0.4973 -0.6172
 1874SOL    HW216173   4.201   2.210   0.096 -1.4782 -1.4043  0.9403
 1875SOL     OW16174   9.162   2.042   6.791  0.1550  0.5097 -0.1584
 1875SOL    HW116175   9.127   1.997   6.708  0.0455  1.8379 -0.8625
 1875SOL    HW216176   9.088   2.095   6.833  0.0343 -0.7197  1.1858
 1876SOL     OW16177   4.923   4.717   1.579 -0.3217 -0.2792  0.1050
 1876SOL    HW116178   4.974   4.795   1.544 -0.6670  0.8092  1.9326
 1876SOL    HW216179   4.825   4.737   1.578 -0.3407 -0.1993  1.6798
 1877SOL     OW16180   2.599   8.879   0.988  0.1854 -0.0665 -0.3532
 1877SOL    HW116181   2.634   8.799   0.939  1.5299  1.1099 -1.3260
 1877SOL    HW216182   2.627   8.962   0.941 -0.2743  1.0224  1.2708
 1878SOL     OW16183   6.581   0.133   5.693  0.8072  0.1540 -0.6941
 1878SOL    HW116184   6.640   0.195   5.745  1.2372  0.5757 -1.6658
 1878SOL    HW216185   6.607   0.039   5.714  0.6822  0.3106  0.1880
 1879SOL     OW16186   3.430   2.913   6.960  0.1609  0.7539  0.4678
 1879SOL    HW116187   3.490   2.938   6.884  0.3457 -0.4939  0.2037
 1879SOL    HW216188   3.484   2.883   7.038 -0.1363 -1.9605 -0.3289
 1880SOL     OW16189   5.827   8.250   5.691 -1.1357  0.1499 -0.0434
 1880SOL    HW116190   5.733   8.241   5.722 -0.3809 -2.0114  1.7029
 1880SOL    HW216191   5.875   8.163   5.703  1.6714  1.7975  1.0983
 1884SOL     OW16192   9.486   6.759   3.330 -0.6292  0.0549 -0.4796
 1884SOL    HW116193   9.450   6.832   3.389  1.9076  2.1195 -1.4038
 1884SOL    HW216194   9.434   6.757   3.245 -1.5861 -0.1509  0.0957
 1885SOL     OW16195   8.684   5.735   7.446  0.3918  0.1105  0.2865
 1885SOL    HW116196   8.652   5.657   7.392  0.2528  0.3546  0.0196
 1885SOL    HW216197   8.783   5.746   7.432  0.4020  0.0149  0.2830
 1886SOL     OW16198   4.650   0.093   6.072 -0.1614 -0.4072  0.4969
 1886SOL    HW116199   4.578   0.122   6.009 -0.1260 -0.8055  0.2729
 1886SOL    HW216200   4.731   0.149   6.057  0.6695 -2.0570 -1.4745
 1887SOL     OW16201   1.025   1.075   1.584  0.1376  0.5396 -0.2227
 1887SOL    HW116202   1.028   1.174   1.574  0.8267  0.5155 -0.2619
 1887SOL    HW216203   1.104   1.034   1.540 -0.6093 -0.1020 -0.9786
 1888SOL     OW16204   1.236   2.183   0.184  0.0684  0.0596  0.1914
 1888SOL    HW116205   1.330   2.148   0.177 -0.1341 -0.3831 -0.3411
 1888SOL    HW216206   1.223   2.256   0.116  0.1114  0.3130  0.4549
 1889SOL     OW16207   4.841   4.764   0.752 -0.3263  0.2854 -0.5989
 1889SOL    HW116208   4.871   4.711   0.832 -0.1676 -0.5559 -1.2133
 1889SOL    HW216209   4.887   4.853   0.753 -1.8283  1.0946  1.3279
 1893SOL     OW16210   0.872   1.418   6.721 -0.6726 -0.6243 -0.0477
 1893SOL    HW116211   0.782   1.387   6.689 -0.4986 -0.2529 -0.9187
 1893SOL    HW216212   0.861   1.470   6.805 -1.2750 -0.5995 -0.1380
 1896SOL     OW16213   3.233   8.110   5.680  0.4038 -1.2192  0.9381
 1896SOL    HW116214   3.168   8.164   5.626  0.5754 -1.6441  0.2971
 1896SOL    HW216215   3.185   8.069   5.758  0.6856  1.4717  2.5986
 1897SOL     OW16216   3.247   7.629   5.934  0.0283  0.5724 -0.3218
 1897SOL    HW116217   3.149   7.617   5.916 -0.0606  2.0032 -0.8798
 1897SOL    HW216218   3.298   7.615   5.849  0.2045  0.8408 -0.2608
 1898SOL     OW16219   8.455   6.203   4.091 -0.0838  0.6183  0.0079
 1898SOL    HW116220   8.545   6.222   4.128  0.9842 -1.6694 -1.2951
 1898SOL    HW216221   8.393   6.178   4.165  1.3410 -1.4245  0.5454
 1899SOL     OW16222   7.505   1.326   7.879  0.6286  0.4933  0.1277
 1899SOL    HW116223   7.451   1.408   7.897 -1.2793 -0.4572 -1.0443
 1899SOL    HW216224   7.559   1.340   7.796  0.7080  0.7610  0.2235
 1900SOL     OW16225   3.649   2.419   2.951  0.4643  0.1642 -0.0747
 1900SOL    HW116226   3.667   2.351   2.880  0.7826  0.4101 -0.2315
 1900SOL    HW216227   3.561   2.462   2.934 -0.5831 -1.4724  1.0362
 1901SOL     OW16228   2.542   0.672   2.443  0.1766  0.5665  0.1221
 1901SOL    HW116229   2.479   0.610   2.490  0.1984 -0.1008 -0.7251
 1901SOL    HW216230   2.491   0.731   2.380  0.1409  1.4980  1.0129
 1902SOL     OW16231   3.465   9.165   3.191 -0.2026  0.4357  0.1187
 1902SOL    HW116232   3.559   9.198   3.185 -0.8332  2.1852 -0.4180
 1902SOL    HW216233   3.464   9.077   3.240  1.6952  0.3764  0.1074
 1903SOL     OW16234   1.829   1.116   7.108 -0.2354  0.0918 -0.1773
 1903SOL    HW116235   1.872   1.138   7.196 -1.9850  0.3703  0.6420
 1903SOL    HW216236   1.779   1.029   7.117 -0.0292 -0.1210 -1.0405
 1904SOL     OW16237   9.389   5.338   0.223 -0.5358 -0.2098 -0.8049
 1904SOL    HW116238   9.463   5.335   0.156 -0.6730 -0.4117 -0.9487
 1904SOL    HW216239   9.355   5.245   0.239 -1.1127 -0.0627 -1.1399
 1905SOL     OW16240   5.811   8.490   6.118 -0.1662 -0.7848 -0.2181
 1905SOL    HW116241   5.819   8.587   6.093  0.4450 -0.6539  0.4604
 1905SOL    HW216242   5.773   8.482   6.210  0.4371 -1.1662  0.0015
 1906SOL     OW16243   2.144   6.733   0.358  0.5169  0.2794  0.5597
 1906SOL    HW116244   2.145   6.701   0.263 -1.2199 -1.0200  0.9539
 1906SOL    HW216245   2.200   6.672   0.414  0.2392  0.1061  0.6500
 1907SOL     OW16246   2.565   9.331   1.932 -0.1088  0.1319  0.3607
 1907SOL    HW116247   2.612   9.371   2.010  0.7464  1.2213 -0.6984
 1907SOL    HW216248   2.468   9.319   1.953  0.0760  0.6326  1.5006
 1908SOL     OW16249   9.970   5.113   2.127 -0.4926 -0.2349  0.4987
 1908SOL    HW116250   9.979   5.168   2.043 -1.7892 -0.8567 -0.0727
 1908SOL    HW216251   9.904   5.157   2.188 -0.9061 -0.7193  0.4024
 1909SOL     OW16252   0.303   5.922   4.994  0.1233  0.3186  0.9642
 1909SOL    HW116253   0.394   5.883   4.997  0.2889  0.4800 -1.0978
 1909SOL    HW216254   0.247   5.871   4.929 -0.3929  1.9395  0.1088
 1910SOL     OW16255   8.100   5.870   3.198  0.0441  0.0105  0.4105
 1910SOL    HW116256   8.010   5.831   3.216 -0.5428  1.0059 -0.2971
 1910SOL    HW216257   8.159   5.857   3.278 -0.1001 -2.3707  0.1353
 1912SOL     OW16258   8.944   1.767   3.113  0.4005 -0.8977  0.1909
 1912SOL    HW116259   8.979   1.812   3.195  2.4364  1.0587 -1.6846
 1912SOL    HW216260   8.999   1.686   3.093  0.1478 -1.1521  0.5180
 1913SOL     OW16261   3.038   3.790   5.439 -0.3201  0.5472  0.3046
 1913SOL    HW116262   3.133   3.818   5.423 -0.4314  0.9210  0.3100
 1913SOL    HW216263   3.025   3.769   5.536 -0.3359  0.8330  0.3635
 1914SOL     OW16264   3.617   7.668   0.628  0.0412  0.3252  0.1383
 1914SOL    HW116265   3.673   7.751   0.623 -2.6816  2.2466  0.2104
 1914SOL    HW216266   3.587   7.654   0.722 -1.5854  0.7052 -0.3146
 1915SOL     OW16267   6.899   8.952   1.886 -0.1252 -0.0417 -0.3831
 1915SOL    HW116268   6.823   9.008   1.919 -0.3980 -1.3917  1.3807
 1915SOL    HW216269   6.868   8.892   1.813 -0.8949 -0.9774  0.7065
 1916SOL     OW16270   8.033   0.279   7.853  0.3732 -0.3696 -0.4129
 1916SOL    HW116271   8.123   0.242   7.870  0.3343  1.2215  3.9537
 1916SOL    HW216272   7.963   0.216   7.887  0.1004  0.7427  1.1882
 1918SOL     OW16273   3.509   9.948   3.041  0.6435  0.3174 -0.2338
 1918SOL    HW116274   3.539   9.984   3.130  1.1786 -0.0798 -0.2523
 1918SOL    HW216275   3.583   9.895   3.000  1.1437  2.2839 -1.9093
 1919SOL     OW16276   6.765   0.923   5.927 -0.5140  0.2168  0.1388
 1919SOL    HW116277   6.723   0.932   6.017  0.2533 -1.6242  0.7105
 1919SOL    HW216278   6.701   0.877   5.865 -0.6689  0.5967  0.0139
 1920SOL     OW16279   3.314   5.754   2.848 -0.2215 -0.1450 -0.8638
 1920SOL    HW116280   3.404   5.755   2.892 -0.0431 -0.4843 -1.2063
 1920SOL    HW216281   3.324   5.719   2.754 -0.7175 -0.2389 -0.8834
 1921SOL     OW16282   3.224   9.363   3.443  0.3928  0.7339 -0.3112
 1921SOL    HW116283   3.163   9.442   3.451 -0.5004  0.0816 -0.6354
 1921SOL    HW216284   3.191   9.303   3.371  1.3809  0.3354 -0.4312
 1922SOL     OW16285   6.022   4.837   1.122  0.3332  0.1866 -0.1962
 1922SOL    HW116286   6.040   4.767   1.192 -0.6829 -1.6281 -1.6993
 1922SOL    HW216287   6.079   4.917   1.140  1.4581 -0.9723  1.6423
 1928SOL     OW16288   9.870   9.964   2.028  0.3788  0.1366 -0.5681
 1928SOL    HW116289   9.856   9.866   2.021  0.3800  0.1438 -0.6565
 1928SOL    HW216290   9.968   9.983   2.040  0.3189  0.0947 -0.0081
 1931SOL     OW16291   4.778   0.610   1.944  0.7433  0.1280  0.4188
 1931SOL    HW116292   4.808   0.689   1.997  1.1634 -0.6822  1.4165
 1931SOL    HW216293   4.708   0.638   1.878 -0.4999  0.9951  2.0639
 1932SOL     OW16294   3.547   6.047   3.149  0.3856  0.8590  0.7326
 1932SOL    HW116295   3.480   6.069   3.220  1.5539  0.0865  2.0934
 1932SOL    HW216296   3.609   5.976   3.182  0.4564 -0.0881 -1.3621
 1933SOL     OW16297   3.417   5.839   4.938  0.4184  0.0128 -0.2829
 1933SOL    HW116298   3.342   5.891   4.896  2.0143  1.0655 -1.8615
 1933SOL    HW216299   3.446   5.884   5.022 -0.7588 -0.4474  0.3847
 1934SOL     OW16300   0.010   1.440   0.491  0.0452 -0.1313 -0.1936
 1934SOL    HW116301   0.109   1.451   0.499  0.2520 -1.3549 -0.9859
 1934SOL    HW216302  -0.015   1.423   0.396 -0.9397  0.2006 -0.0085
 1935SOL     OW16303   3.637   2.055   3.434  0.2336  0.0509  0.5211
 1935SOL    HW116304   3.609   2.039   3.528 -2.7480  0.7267 -0.1939
 1935SOL    HW216305   3.694   2.137   3.429  0.2486  0.1118  1.7089
 1936SOL     OW16306   0.581   8.014   1.081 -0.2725 -0.2340 -1.0043
 1936SOL    HW116307   0.546   7.994   1.173  1.6694  1.0210  0.0286
 1936SOL    HW216308   0.504   8.019   1.017 -1.6814 -0.8470  0.5899
 1939SOL     OW16309   2.155   1.172   5.729  0.3584  0.2384 -0.7171
 1939SOL    HW116310   2.081   1.106   5.714 -0.2851  1.5184 -3.4406
 1939SOL    HW216311   2.149   1.245   5.661  3.9150  0.5804 -0.7588
 1940SOL     OW16312   9.503   8.398   5.418  0.1502 -0.1810  0.1077
 1940SOL    HW116313   9.484   8.303   5.393 -0.1190  0.1739 -1.0856
 1940SOL    HW216314   9.591   8.403   5.464 -0.4645 -1.1988  1.4367
 1941SOL     OW16315   9.672   1.641   5.814 -0.2345  0.4229  0.1120
 1941SOL    HW116316   9.575   1.616   5.813 -0.7158  2.2107  0.1546
 1941SOL    HW216317   9.691   1.696   5.895  0.6136  0.8560 -0.3805
 1943SOL     OW16318   7.934   3.390   2.624  0.2029  0.4114 -0.2062
 1943SOL    HW116319   8.015   3.350   2.583  0.6549  0.1180  0.9679
 1943SOL    HW216320   7.852   3.350   2.582  0.6558 -0.5935 -0.1389
 1944SOL     OW16321   8.724   0.337   4.676 -0.4386 -0.5905  0.6237
 1944SOL    HW116322   8.769   0.421   4.708 -0.3941  0.7318 -2.6942
 1944SOL    HW216323   8.794   0.270   4.649 -0.4066  0.0103 -0.8699
 1945SOL     OW16324   4.301   0.725   6.494 -0.1151 -0.4031 -0.2841
 1945SOL    HW116325   4.379   0.773   6.454 -0.9395  1.0398 -0.1861
 1945SOL    HW216326   4.221   0.786   6.496 -0.5574 -1.0059  1.9616
 1946SOL     OW16327   2.434   3.877   5.360  0.2751 -0.8530 -0.3708
 1946SOL    HW116328   2.400   3.822   5.436 -1.7147 -1.8859 -1.9432
 1946SOL    HW216329   2.391   3.967   5.362  3.5096  0.6989  2.1868
 1947SOL     OW16330   8.270   7.980   6.220  0.7065  0.6441  0.2670
 1947SOL    HW116331   8.305   7.963   6.128  0.0250  0.7759 -0.0182
 1947SOL    HW216332   8.330   7.937   6.287  1.0378  0.2945 -0.2526
 1948SOL     OW16333   6.870   0.732   7.602  0.0036  0.3774 -0.0630
 1948SOL    HW116334   6.897   0.795   7.529  1.0665 -0.7480 -0.6446
 1948SOL    HW216335   6.801   0.777   7.660  0.3063  1.8549 -0.8115
 1949SOL     OW16336   1.194   5.291   1.781  0.0141 -0.6983  0.0512
 1949SOL    HW116337   1.101   5.284   1.745 -1.3430  0.2256  3.2491
 1949SOL    HW216338   1.201   5.241   1.867  2.0436  0.5847  0.6808
 1950SOL     OW16339   4.362   3.456   2.251  0.8064 -0.6449  0.0095
 1950SOL    HW116340   4.367   3.398   2.171  1.7557 -2.0068  1.0408
 1950SOL    HW216341   4.453   3.490   2.274  0.2478  1.3917 -0.6694
 1951SOL     OW16342   6.215   1.820   0.429 -0.3642  0.7567  0.0967
 1951SOL    HW116343   6.222   1.720   0.424  1.4218  0.9201 -1.0207
 1951SOL    HW216344   6.271   1.862   0.358 -1.4786  2.5698  0.2397
 1952SOL     OW16345   7.376   5.049   1.791 -0.6638 -0.2722 -0.0128
 1952SOL    HW116346   7.409   4.958   1.816 -0.0666 -0.4026 -1.2574
 1952SOL    HW216347   7.277   5.046   1.778 -0.4146 -1.1951 -1.9002
 1954SOL     OW16348   7.049   6.660   2.761  0.5044  0.7300  0.1777
 1954SOL    HW116349   7.012   6.609   2.839  0.9522 -1.4368 -0.9585
 1954SOL    HW216350   7.147   6.670   2.771  0.7912 -0.8401 -0.7494
 1955SOL     OW16351   5.674   0.409   7.299  0.0414  0.6759 -0.1930
 1955SOL    HW116352   5.607   0.428   7.370  0.2481 -0.9723  0.4547
 1955SOL    HW216353   5.640   0.336   7.240  1.0089  0.2513 -0.2238
 1957SOL     OW16354   8.744   8.441   7.347  0.3253 -0.2505  0.0958
 1957SOL    HW116355   8.756   8.353   7.393  0.6904 -0.5763 -0.6077
 1957SOL    HW216356   8.811   8.506   7.382 -0.3065 -0.0884  1.0125
 1960SOL     OW16357   8.181   3.341   4.110  0.0884  0.0522 -0.3096
 1960SOL    HW116358   8.182   3.253   4.063  0.9968 -0.9388  1.5247
 1960SOL    HW216359   8.246   3.339   4.186 -1.6350  1.4626  1.2429
 1961SOL     OW16360   6.464   9.594   7.410  0.5951 -0.4984 -0.3416
 1961SOL    HW116361   6.483   9.496   7.400  0.6133 -0.5947  0.5464
 1961SOL    HW216362   6.406   9.608   7.490 -2.3796 -0.1298 -2.4882
 1963SOL     OW16363   0.352   3.367   1.531  0.5128 -0.3936 -0.4819
 1963SOL    HW116364   0.270   3.310   1.522 -0.8143  1.6433 -1.6804
 1963SOL    HW216365   0.429   3.321   1.487 -0.0421 -2.1913  0.3860
 1965SOL     OW16366   7.491   0.874   6.836 -0.3899 -0.2227  0.4600
 1965SOL    HW116367   7.536   0.899   6.750 -1.7666  1.9326  0.2997
 1965SOL    HW216368   7.412   0.815   6.816 -1.3075  1.0919  0.1093
 1966SOL     OW16369   1.954   0.140   1.015 -0.7783  0.0664 -0.0124
 1966SOL    HW116370   1.972   0.058   1.069 -1.3928  1.5810  2.6009
 1966SOL    HW216371   2.041   0.182   0.989 -0.4756 -0.7637 -0.3634
 1967SOL     OW16372   9.082   2.603   6.118 -0.2530 -0.1874  0.3571
 1967SOL    HW116373   9.124   2.516   6.144 -0.1774 -0.4104 -0.5227
 1967SOL    HW216374   8.983   2.598   6.136 -0.3122 -0.5939 -0.0637
 1968SOL     OW16375   3.065   7.828   1.622 -0.4913  0.0431  0.1149
 1968SOL    HW116376   2.982   7.882   1.605 -0.3683  0.7297  1.6543
 1968SOL    HW216377   3.078   7.764   1.546 -1.5352  1.0430 -0.9461
 1969SOL     OW16378   7.203   2.744   0.565  0.0406  0.1646 -0.0622
 1969SOL    HW116379   7.183   2.660   0.615  0.8694 -0.2860 -0.4769
 1969SOL    HW216380   7.120   2.776   0.519 -0.0254 -0.9986 -0.7602
 1970SOL     OW16381   0.518   2.585   5.071 -0.1985  0.2250  0.2448
 1970SOL    HW116382   0.589   2.541   5.126 -0.0291 -0.0546 -0.1860
 1970SOL    HW216383   0.554   2.669   5.031 -0.1962  0.2261  0.2493
 1971SOL     OW16384   0.275   3.130   1.735  0.4069  0.3774  0.1776
 1971SOL    HW116385   0.226   3.150   1.650 -0.5591 -2.2636  0.0498
 1971SOL    HW216386   0.215   3.149   1.813 -0.9517 -2.9188  0.0182
 1972SOL     OW16387   5.590   9.988   6.404  0.1986  0.0257 -0.8364
 1972SOL    HW116388   5.610  10.039   6.488 -1.2983  1.3688 -1.2705
 1972SOL    HW216389   5.623   9.894   6.414 -0.1111  0.1084  1.3328
 1974SOL     OW16390   3.344   9.627   4.847 -0.2999  0.0395  0.4182
 1974SOL    HW116391   3.256   9.670   4.865 -1.8778 -1.9723 -2.2727
 1974SOL    HW216392   3.351   9.541   4.898 -0.8423 -0.9230 -1.1136
 1976SOL     OW16393   8.858   9.893   4.408  0.7674 -0.0780 -0.6045
 1976SOL    HW116394   8.815   9.875   4.497  1.3657  0.4433 -0.2124
 1976SOL    HW216395   8.957   9.882   4.416  0.9002  0.8237 -0.9982
 1977SOL     OW16396   1.322   6.537   6.488 -0.5155 -0.9122  0.1721
 1977SOL    HW116397   1.346   6.534   6.391 -0.4101 -1.2316  0.2087
 1977SOL    HW216398   1.262   6.615   6.505 -1.1049 -1.2610 -0.2833
 1979SOL     OW16399   4.110   3.391   3.261  0.0168 -0.6854  0.1948
 1979SOL    HW116400   4.096   3.295   3.285 -0.4852 -0.8684 -0.8111
 1979SOL    HW216401   4.046   3.448   3.313 -1.0623 -1.0787 -0.6754
 1981SOL     OW16402   7.418   4.942   3.142 -0.0901  0.3590  0.6032
 1981SOL    HW116403   7.499   4.974   3.094 -1.7553  1.1624 -1.7503
 1981SOL    HW216404   7.351   5.017   3.149 -2.0728 -1.2497 -0.6642
 1982SOL     OW16405   0.866   6.504   4.363 -0.0580 -0.1242 -0.0407
 1982SOL    HW116406   0.877   6.411   4.328  0.3284 -0.0203 -0.1997
 1982SOL    HW216407   0.910   6.512   4.453 -1.1369 -0.4178  0.5295
 1983SOL     OW16408   1.087   7.494   0.671  0.5240  0.6992 -0.7133
 1983SOL    HW116409   1.113   7.427   0.603  1.8288  0.6920 -0.2187
 1983SOL    HW216410   1.117   7.585   0.642  0.7201  0.7560 -0.3320
 1984SOL     OW16411   9.500   5.985   3.531 -0.6490 -0.0531  0.1495
 1984SOL    HW116412   9.518   6.069   3.481  1.8246 -0.6425 -0.0082
 1984SOL    HW216413   9.458   5.918   3.470  0.2977 -0.0052 -0.5599
 1985SOL     OW16414   2.989   2.886   7.457  0.3842 -0.0677  0.0170
 1985SOL    HW116415   2.980   2.792   7.426  0.2681  0.6668 -2.3025
 1985SOL    HW216416   3.075   2.897   7.506  0.7946 -1.2016 -0.4315
 1986SOL     OW16417   4.629   0.457   0.718 -0.1505  0.2835  0.6189
 1986SOL    HW116418   4.666   0.507   0.797  0.2251  1.3257 -0.2063
 1986SOL    HW216419   4.703   0.438   0.654 -0.2565 -1.5647  1.0413
 1987SOL     OW16420   2.846   5.675   3.940  0.2190 -0.4585 -0.4375
 1987SOL    HW116421   2.748   5.697   3.942  0.3681  0.2107 -0.3379
 1987SOL    HW216422   2.871   5.642   3.849  0.2369  0.9859 -0.9748
 1988SOL     OW16423   8.167   2.687   2.835  0.4523 -0.2812  0.2399
 1988SOL    HW116424   8.140   2.760   2.773  2.7433 -0.2501 -0.7649
 1988SOL    HW216425   8.138   2.599   2.798  0.3086 -0.1268 -0.0169
 1989SOL     OW16426   9.166   6.471   1.740  0.8064  0.1865  0.2275
 1989SOL    HW116427   9.191   6.426   1.654 -1.2272  0.2153 -0.4159
 1989SOL    HW216428   9.155   6.402   1.811 -1.6444 -0.3425 -0.5972
 1990SOL     OW16429   7.097   4.432   7.557  0.1439  0.6486  0.4682
 1990SOL    HW116430   7.006   4.420   7.595  0.4671 -1.5554  0.5858
 1990SOL    HW216431   7.163   4.443   7.632  0.4185 -1.0934  0.5019
 1991SOL     OW16432   4.642   3.254   0.296 -0.6517 -0.1837  0.5502
 1991SOL    HW116433   4.555   3.244   0.248 -0.9047 -0.6917  1.0999
 1991SOL    HW216434   4.636   3.332   0.359  0.2574  1.5473 -1.4602
 1992SOL     OW16435   0.112   8.058   6.828  0.6131 -0.1467 -0.7440
 1992SOL    HW116436   0.035   8.052   6.892  1.0959  0.1142 -0.1325
 1992SOL    HW216437   0.085   8.021   6.740 -0.5411  0.8548 -0.8247
 1993SOL     OW16438   1.748   9.676   2.183 -0.1004 -0.2244 -0.4240
 1993SOL    HW116439   1.837   9.693   2.226 -1.0618  0.3932  1.3418
 1993SOL    HW216440   1.745   9.582   2.149  0.8952 -0.5273  0.3063
 1995SOL     OW16441   0.266  -0.002   6.240  0.2348 -0.4216 -0.4741
 1995SOL    HW116442   0.171   0.030   6.240 -0.2971 -1.9530  0.2249
 1995SOL    HW216443   0.326   0.073   6.214 -0.9935  1.1292  1.0176
 1996SOL     OW16444   3.968   6.634   6.925 -0.2568  0.0033  0.6447
 1996SOL    HW116445   4.034   6.627   7.000 -0.3155 -1.6701  0.5548
 1996SOL    HW216446   3.912   6.715   6.938 -0.5382 -0.4866  2.6642
 1997SOL     OW16447   9.791   9.587   5.124 -0.1683  0.0766  0.1924
 1997SOL    HW116448   9.718   9.614   5.186  0.9872  0.8961  1.2304
 1997SOL    HW216449   9.862   9.538   5.175  1.2431  1.5840 -0.2714
 1998SOL     OW16450   4.593   8.358   7.430  0.1350  0.2250 -0.7853
 1998SOL    HW116451   4.495   8.363   7.447  0.1598  0.2401 -0.6449
 1998SOL    HW216452   4.610   8.363   7.331 -0.0574 -0.6041 -0.8638
 1999SOL     OW16453   7.607   5.805   0.153 -0.1384 -0.2441  0.2163
 1999SOL    HW116454   7.615   5.898   0.116  0.8129 -0.5721 -0.4406
 1999SOL    HW216455   7.605   5.809   0.253 -1.0891  0.5510  0.1666
 2000SOL     OW16456   2.318   4.134   3.185  0.0418  0.0969  0.3604
 2000SOL    HW116457   2.331   4.129   3.284 -1.5463 -2.8908  0.4756
 2000SOL    HW216458   2.330   4.043   3.145 -0.8552  0.9731 -1.9918
 2001SOL     OW16459   6.326   4.791   1.282  0.5343 -0.2728  0.1611
 2001SOL    HW116460   6.386   4.845   1.225  0.5830 -1.9934 -1.4674
 2001SOL    HW216461   6.276   4.851   1.345  0.7796  1.6041 -1.4018
 2002SOL     OW16462   7.004   5.556   0.131 -0.5192 -0.2015  0.3341
 2002SOL    HW116463   6.934   5.510   0.076 -0.1944  2.3583 -2.3201
 2002SOL    HW216464   6.970   5.646   0.159  0.7374 -0.0124  1.2791
 2003SOL     OW16465   1.700   7.752   0.719 -0.3450  0.0302 -0.1445
 2003SOL    HW116466   1.695   7.852   0.718 -0.9351  0.0055  0.5734
 2003SOL    HW216467   1.796   7.724   0.721 -0.1850  0.5864  0.0834
 2005SOL     OW16468   1.423   4.515   3.312 -0.5684 -0.0636  0.1808
 2005SOL    HW116469   1.428   4.551   3.405  0.4782 -1.4352  0.6774
 2005SOL    HW216470   1.343   4.455   3.304 -0.9062  0.4004  0.0661
 2006SOL     OW16471   3.301   3.185   0.911  0.2105  0.3379  0.4557
 2006SOL    HW116472   3.301   3.258   0.978 -2.7229  2.3491 -1.5789
 2006SOL    HW216473   3.366   3.206   0.838 -2.7395  2.5570 -1.6636
 2007SOL     OW16474   0.284   4.589   2.164 -0.1729  0.0626 -0.2491
 2007SOL    HW116475   0.288   4.491   2.183  1.3850  0.0515 -0.5974
 2007SOL    HW216476   0.362   4.635   2.205 -2.2223  1.5868  2.1368
 2008SOL     OW16477   6.187   2.688   2.590 -0.4872  0.2039 -0.0454
 2008SOL    HW116478   6.105   2.714   2.539  0.4231  0.7517 -1.2327
 2008SOL    HW216479   6.170   2.601   2.636 -2.0147  0.6980  0.3889
 2009SOL     OW16480   2.732   1.620   4.254 -0.3075 -0.3325 -0.0049
 2009SOL    HW116481   2.661   1.680   4.219 -1.0919 -0.5287  1.2196
 2009SOL    HW216482   2.821   1.665   4.244 -0.6056 -0.0485 -1.4478
 2011SOL     OW16483   2.538   3.578   6.445 -0.3961 -0.2776 -0.0830
 2011SOL    HW116484   2.470   3.505   6.456 -0.0929 -0.7582 -1.2787
 2011SOL    HW216485   2.517   3.631   6.363  1.3794 -1.2634 -1.2357
 2012SOL     OW16486   6.405   1.604   0.626 -0.0287  0.4547 -0.3493
 2012SOL    HW116487   6.336   1.563   0.686 -1.1413  1.4108 -0.9350
 2012SOL    HW216488   6.388   1.574   0.532  1.0491 -0.1846 -0.3477
 2013SOL     OW16489   3.152   4.071   4.637  0.2094 -0.0331  0.7774
 2013SOL    HW116490   3.076   4.049   4.698  1.0699  0.2532  1.9840
 2013SOL    HW216491   3.130   4.152   4.583  0.2829  1.0527  2.3240
 2014SOL     OW16492   3.624   5.694   2.683 -0.0601  0.2092  0.2269
 2014SOL    HW116493   3.526   5.678   2.673  0.0217 -0.2299  0.1294
 2014SOL    HW216494   3.640   5.753   2.762 -0.5259  1.6452 -0.7230
 2015SOL     OW16495   5.479   8.046   3.316  0.5970  0.1206  0.5492
 2015SOL    HW116496   5.477   8.142   3.286  2.0096  0.5102  1.6387
 2015SOL    HW216497   5.564   8.004   3.285  0.0766 -0.7397  0.2672
 2016SOL     OW16498   0.998   5.973   4.196 -0.9237 -0.0862 -0.3149
 2016SOL    HW116499   1.094   5.948   4.183 -0.9050  0.1764 -0.7017
 2016SOL    HW216500   0.959   5.918   4.270 -1.0001 -1.5731 -1.4339
 2017SOL     OW16501   1.127   1.366   7.285  0.1473  0.5418  0.0900
 2017SOL    HW116502   1.183   1.408   7.213  1.1966 -0.6213  0.2077
 2017SOL    HW216503   1.062   1.302   7.244  1.4703 -0.9237  0.2402
 2018SOL     OW16504   2.215   8.506   5.954 -0.0091  0.4247 -0.1531
 2018SOL    HW116505   2.248   8.573   5.888  0.2554  1.4635  1.0333
 2018SOL    HW216506   2.120   8.483   5.932  0.3556  0.0777 -1.4296
 2019SOL     OW16507   0.332   1.705   0.684 -0.3719 -0.5971  0.2539
 2019SOL    HW116508   0.287   1.768   0.620 -1.0589 -1.1696  0.1633
 2019SOL    HW216509   0.404   1.753   0.733  0.1119 -0.1283 -0.8992
 2021SOL     OW16510   4.168   2.572   0.961 -0.0173  0.0824  0.0312
 2021SOL    HW116511   4.169   2.667   0.992  0.2126  0.2500 -0.4817
 2021SOL    HW216512   4.186   2.568   0.863 -2.6796 -0.3101 -0.4793
 2022SOL     OW16513   7.629   4.946   4.102  0.1254  0.2413  0.0972
 2022SOL    HW116514   7.665   4.951   4.195  1.6669  1.7552 -0.5644
 2022SOL    HW216515   7.658   5.026   4.050 -1.7519  0.0269 -1.3350
 2023SOL     OW16516   1.199   0.211   3.797  0.8651 -0.0582  0.1623
 2023SOL    HW116517   1.189   0.120   3.758  0.5879 -0.4230  1.0776
 2023SOL    HW216518   1.234   0.204   3.890  0.4205  0.7490  0.3915
 2024SOL     OW16519   0.675   9.339   0.574 -0.1129 -0.6585 -0.1347
 2024SOL    HW116520   0.737   9.384   0.510 -1.6737  0.6713 -0.7595
 2024SOL    HW216521   0.639   9.255   0.532 -1.1703  0.2339 -1.0319
 2025SOL     OW16522   9.869   0.867   2.553 -0.6618  0.1862 -0.2595
 2025SOL    HW116523   9.855   0.769   2.536 -0.6381  0.1564 -0.1021
 2025SOL    HW216524   9.796   0.919   2.509  0.4586  0.2395 -2.1505
 2026SOL     OW16525   0.409   6.455   4.273 -0.1888  0.2656  0.0391
 2026SOL    HW116526   0.324   6.499   4.247 -1.1127 -2.5671 -1.9761
 2026SOL    HW216527   0.391   6.384   4.341  0.6807  0.2419  0.2585
 2027SOL     OW16528   4.481   2.678   0.021  0.5271  0.3147  0.4178
 2027SOL    HW116529   4.454   2.723  -0.064  1.4069  0.5033  0.2329
 2027SOL    HW216530   4.418   2.705   0.094 -0.6007 -0.3388 -0.3034
 2028SOL     OW16531   6.925   9.466   3.876  0.8083  0.3205  0.4120
 2028SOL    HW116532   6.913   9.387   3.816  1.8045 -0.3956  1.1281
 2028SOL    HW216533   6.946   9.434   3.969 -1.6532  1.4054  1.3597
 2030SOL     OW16534   1.121   0.736   7.832 -0.1243 -0.0955 -0.7087
 2030SOL    HW116535   1.215   0.766   7.843 -0.3241 -0.0252  0.9802
 2030SOL    HW216536   1.108   0.649   7.879 -0.5337 -0.8641 -2.2185
 2031SOL     OW16537   8.723   2.003   5.695 -0.3483 -0.2146 -0.3564
 2031SOL    HW116538   8.680   2.083   5.655 -1.0674 -1.6097 -2.4453
 2031SOL    HW216539   8.765   2.028   5.783  2.2634  3.2033 -2.4370
 2032SOL     OW16540   5.449   9.812   1.979  0.4390  0.1622  0.5281
 2032SOL    HW116541   5.499   9.859   2.052  0.2449  0.6868  0.3295
 2032SOL    HW216542   5.513   9.787   1.906  1.0433 -2.4002  1.8682
 2033SOL     OW16543   2.927   6.660   0.382  0.3068  0.1384  0.0762
 2033SOL    HW116544   2.875   6.610   0.314  0.1916  0.3523  0.0066
 2033SOL    HW216545   2.879   6.745   0.405 -0.4556 -0.7107  1.6205
 2034SOL     OW16546   4.054   1.929   5.943 -0.0745 -0.3533  0.0907
 2034SOL    HW116547   4.026   1.920   5.848  1.8704 -1.6260 -0.3935
 2034SOL    HW216548   4.011   1.857   5.998 -0.5028 -0.1616  0.0009
 2035SOL     OW16549   0.365   7.940   1.614 -0.2812 -0.2327 -0.0040
 2035SOL    HW116550   0.321   8.025   1.586 -0.9511 -0.3839  0.5822
 2035SOL    HW216551   0.420   7.956   1.696  1.7927  0.2410 -1.4541
 2036SOL     OW16552   2.914   1.368   4.697 -0.3926  0.0237  0.4739
 2036SOL    HW116553   2.899   1.461   4.663  0.5694  0.1148  0.2903
 2036SOL    HW216554   3.012   1.348   4.698 -0.6350 -1.2278 -0.1037
 2037SOL     OW16555   4.721   9.850   3.448  0.2450  0.4707 -0.0531
 2037SOL    HW116556   4.740   9.800   3.364  2.6927  1.7216 -0.2954
 2037SOL    HW216557   4.777   9.814   3.523 -0.8623  0.2993  0.7073
 2038SOL     OW16558   6.514   9.621   5.091  0.3161  0.3314 -0.4014
 2038SOL    HW116559   6.541   9.642   4.997  1.2555  2.4665  0.3154
 2038SOL    HW216560   6.590   9.641   5.153 -1.0643  1.1723  1.0698
 2039SOL     OW16561   8.457   8.178   0.643 -0.0225  0.1402 -0.1347
 2039SOL    HW116562   8.525   8.197   0.572  0.4814 -1.9649 -0.2586
 2039SOL    HW216563   8.451   8.256   0.705  0.8881  1.2532 -1.3995
 2040SOL     OW16564   2.169   7.644   7.891  0.1921 -0.9205  0.0645
 2040SOL    HW116565   2.088   7.681   7.937  1.5035  1.5503  0.4658
 2040SOL    HW216566   2.232   7.607   7.960  0.6605 -0.2615 -0.0056
 2041SOL     OW16567   3.391   2.857   3.126 -0.0477 -0.3080  0.3156
 2041SOL    HW116568   3.429   2.832   3.037 -2.6475 -0.2616 -0.8510
 2041SOL    HW216569   3.298   2.822   3.134 -0.6600  1.5919  2.1356
 2042SOL     OW16570   0.154   8.017   0.850 -0.4301 -0.2121  0.1818
 2042SOL    HW116571   0.129   7.963   0.770 -2.3348  1.9445 -0.7019
 2042SOL    HW216572   0.085   8.004   0.922 -1.2052  1.4471 -0.2415
 2043SOL     OW16573   7.988   3.429   7.675 -0.3334  0.4112 -0.2046
 2043SOL    HW116574   7.918   3.490   7.639  0.8661  1.5104 -0.7081
 2043SOL    HW216575   8.038   3.475   7.748 -1.0750 -0.8971  1.1584
 2044SOL     OW16576   2.935   2.748   0.331  0.5410 -0.0960 -0.5510
 2044SOL    HW116577   3.033   2.766   0.328  0.4228  0.2416 -2.8418
 2044SOL    HW216578   2.912   2.672   0.271 -0.3844 -1.3493  1.3364
 2045SOL     OW16579   8.934   0.468   6.547  0.6343  0.1113 -0.3539
 2045SOL    HW116580   9.001   0.396   6.566  0.3820 -0.1686 -0.5297
 2045SOL    HW216581   8.902   0.460   6.453 -1.0023 -0.8702  0.2604
 2047SOL     OW16582   2.163   0.634   1.464  0.4322 -0.3947 -0.1717
 2047SOL    HW116583   2.197   0.584   1.544 -2.0180 -0.2821  1.0138
 2047SOL    HW216584   2.219   0.715   1.449  1.3646 -0.7964  1.0105
 2049SOL     OW16585   8.093   6.053   7.724 -0.0318 -0.3266 -0.1482
 2049SOL    HW116586   8.014   6.111   7.746  0.4459  0.5106 -0.5998
 2049SOL    HW216587   8.174   6.089   7.769 -0.0367 -1.6229  0.9286
 2051SOL     OW16588   6.487   2.163   5.696 -0.3913  0.4264  0.3321
 2051SOL    HW116589   6.537   2.248   5.710  2.4527 -1.0726 -0.3877
 2051SOL    HW216590   6.460   2.155   5.599  0.5820 -0.1230  0.0994
 2052SOL     OW16591   9.254   6.832   1.876 -0.0934 -0.2358 -0.1991
 2052SOL    HW116592   9.277   6.865   1.968 -0.4002  0.4535 -0.3718
 2052SOL    HW216593   9.239   6.910   1.815  0.4542 -0.6871 -0.9233
 2053SOL     OW16594   5.207   5.074   7.860  0.1734  1.3906 -0.0356
 2053SOL    HW116595   5.207   4.982   7.899 -1.3188  1.4570  0.1839
 2053SOL    HW216596   5.120   5.118   7.882 -1.5413  0.7671 -4.9738
 2055SOL     OW16597   8.513   0.718   0.962 -0.1417 -0.0220  0.0562
 2055SOL    HW116598   8.468   0.785   0.902  0.2397  1.4644  1.3844
 2055SOL    HW216599   8.482   0.732   1.056  0.5307 -1.2307  0.4657
 2056SOL     OW16600   0.419   5.040   5.583  0.5832  0.2500 -0.1318
 2056SOL    HW116601   0.392   4.955   5.537 -0.2147  0.0981  0.5888
 2056SOL    HW216602   0.488   5.087   5.529  0.2354 -0.3181 -1.0862
 2057SOL     OW16603   5.945   8.812   5.239 -0.2723  0.3547  0.1482
 2057SOL    HW116604   5.904   8.751   5.170 -0.2351 -0.5517  0.9199
 2057SOL    HW216605   6.044   8.801   5.237 -0.3341 -0.3947  1.0109
 2058SOL     OW16606   2.279   9.505   1.839  0.1408  0.1043  0.1063
 2058SOL    HW116607   2.295   9.596   1.876 -1.3241  0.7574 -0.8053
 2058SOL    HW216608   2.322   9.498   1.749 -0.7971  0.3407 -0.3730
 2059SOL     OW16609   2.093   9.925   1.731 -0.5325 -0.2362 -0.2968
 2059SOL    HW116610   2.079   9.831   1.700  1.1342 -1.3711  2.2057
 2059SOL    HW216611   2.011   9.979   1.712 -1.2418 -1.9833 -2.4058
 2060SOL     OW16612   4.043   9.541   4.623  0.1355  0.2492  0.7323
 2060SOL    HW116613   3.958   9.590   4.604 -0.0489  0.2086  1.4358
 2060SOL    HW216614   4.108   9.602   4.667  1.3740  0.9464 -2.0206
 2062SOL     OW16615   8.143   7.938   4.460  0.3095  0.9557 -0.4170
 2062SOL    HW116616   8.099   7.897   4.380 -3.8198  0.8157  1.8069
 2062SOL    HW216617   8.201   7.870   4.505 -1.1851 -0.4533 -0.5672
 2063SOL     OW16618   8.697   6.208   4.225 -0.0945  0.3034  0.3619
 2063SOL    HW116619   8.671   6.279   4.289 -1.3977 -0.3956  0.6355
 2063SOL    HW216620   8.787   6.171   4.250 -0.6621 -0.0783  1.8975
 2066SOL     OW16621   9.070   2.248   7.224 -0.3319  0.3868  1.0601
 2066SOL    HW116622   9.045   2.184   7.297 -1.3811 -0.3513  0.0818
 2066SOL    HW216623   9.156   2.219   7.183 -0.7321 -0.3301  0.7149
 2067SOL     OW16624   1.154   6.348   5.616  0.1776 -0.7984 -0.1528
 2067SOL    HW116625   1.212   6.409   5.670 -2.1181  2.2205 -0.9478
 2067SOL    HW216626   1.210   6.300   5.549  2.0403  0.5128  0.4091
 2068SOL     OW16627   0.538   5.412   5.921 -0.1717  0.0348 -0.2390
 2068SOL    HW116628   0.578   5.334   5.873 -0.4211  0.2785 -0.8455
 2068SOL    HW216629   0.447   5.388   5.955  0.2086 -0.3027  0.5599
 2070SOL     OW16630   1.004   1.462   4.971 -0.2899 -0.1086 -0.1817
 2070SOL    HW116631   0.910   1.431   4.956 -0.4952  0.9737 -1.1533
 2070SOL    HW216632   1.067   1.397   4.928 -0.6403 -0.2677 -0.4629
 2071SOL     OW16633   9.702   9.979   3.131  0.3669 -0.4546 -0.1297
 2071SOL    HW116634   9.690   9.885   3.099 -0.1667 -0.7055  0.7835
 2071SOL    HW216635   9.796   9.993   3.159  0.2293 -0.9945  0.6096
 2072SOL     OW16636   9.677   6.557   3.322  0.1666  0.6575  0.2550
 2072SOL    HW116637   9.732   6.571   3.404  0.4655  0.6048  0.0655
 2072SOL    HW216638   9.630   6.642   3.298  0.6341  0.8679  0.0789
 2073SOL     OW16639   8.860   2.391   4.766  0.3907  0.2268 -0.5803
 2073SOL    HW116640   8.841   2.293   4.754  1.1864  0.0899 -0.7963
 2073SOL    HW216641   8.782   2.436   4.808  0.2017 -0.5944 -0.0542
 2075SOL     OW16642   1.327   1.734   0.803  0.0345 -0.3522  0.4362
 2075SOL    HW116643   1.304   1.791   0.725 -2.9445  1.4311  2.5205
 2075SOL    HW216644   1.407   1.678   0.781 -0.6669  0.1544 -3.8031
 2076SOL     OW16645   4.442   7.924   6.221 -0.6146  0.5727 -0.7419
 2076SOL    HW116646   4.349   7.924   6.183 -0.6027  1.6782 -0.7650
 2076SOL    HW216647   4.505   7.882   6.155 -1.0427  0.0591 -0.8322
 2077SOL     OW16648   3.977   9.862   7.672  0.4628  0.2691 -0.3975
 2077SOL    HW116649   3.926   9.821   7.747  1.5329  0.9557  0.7384
 2077SOL    HW216650   3.947   9.956   7.658  0.2663  0.1443 -0.8352
 2079SOL     OW16651   2.922   7.306   3.052  0.2169 -0.3197 -1.3799
 2079SOL    HW116652   2.970   7.360   2.983  1.1676 -0.5434 -0.9037
 2079SOL    HW216653   2.988   7.249   3.101 -0.4574 -0.1994 -0.3172
 2080SOL     OW16654   3.198   7.712   2.087  0.2489 -0.2410 -0.4601
 2080SOL    HW116655   3.180   7.772   2.165 -0.4980  1.1155 -1.6376
 2080SOL    HW216656   3.293   7.721   2.059  0.8997 -1.8358  1.1882
 2082SOL     OW16657   6.711   0.619   7.344  0.4104  0.1677  0.5414
 2082SOL    HW116658   6.713   0.645   7.247 -0.6973  3.3766  1.3150
 2082SOL    HW216659   6.802   0.629   7.382  0.3626  1.2304  0.3894
 2084SOL     OW16660   1.155   4.862   5.375 -0.3405 -0.1504  0.0108
 2084SOL    HW116661   1.206   4.780   5.402 -0.0705 -0.8174 -2.3892
 2084SOL    HW216662   1.063   4.859   5.413  0.3417 -0.5617  1.6404
 2086SOL     OW16663   9.187   8.224   6.203  0.1607  0.3617 -0.0754
 2086SOL    HW116664   9.206   8.266   6.114  2.4293 -0.1111  0.1453
 2086SOL    HW216665   9.146   8.292   6.264  0.2136  1.1817 -0.9506
 2087SOL     OW16666   4.086   3.894   2.497  0.1720 -0.0933  0.2982
 2087SOL    HW116667   4.030   3.828   2.547  0.6442 -2.1505 -1.7760
 2087SOL    HW216668   4.182   3.883   2.524 -0.0639  1.6323  1.9261
 2088SOL     OW16669   1.367   0.855   4.240 -0.8991 -0.1723  0.2834
 2088SOL    HW116670   1.383   0.911   4.321  0.0047 -0.5213  0.3524
 2088SOL    HW216671   1.281   0.804   4.251 -0.3397 -0.8942  1.4042
 2089SOL     OW16672   2.539   8.580   4.643  0.2932  0.0660 -0.0380
 2089SOL    HW116673   2.525   8.501   4.584 -1.1299 -0.0772  0.4571
 2089SOL    HW216674   2.523   8.554   4.738  1.5254  0.5438  0.3050
 2090SOL     OW16675   1.025   1.076   2.199 -0.1358 -0.3863 -0.9825
 2090SOL    HW116676   1.103   1.078   2.137  0.8227 -0.1822  0.1966
 2090SOL    HW216677   1.055   1.102   2.291 -1.4461 -1.0270 -0.3512
 2092SOL     OW16678   2.066   8.463   1.068 -0.3066 -0.0329  0.2874
 2092SOL    HW116679   2.021   8.427   0.986 -0.2398  1.7094 -0.5364
 2092SOL    HW216680   2.163   8.477   1.050 -0.0539 -0.7392  1.0494
 2093SOL     OW16681   0.544   9.001   3.523 -0.2892  0.5148 -0.1222
 2093SOL    HW116682   0.492   9.075   3.481 -1.5437 -0.2893 -0.0283
 2093SOL    HW216683   0.491   8.916   3.519  2.4815 -1.2179 -3.2863
 2094SOL     OW16684   9.708   9.463   0.829 -0.7375 -0.5623 -0.4169
 2094SOL    HW116685   9.706   9.552   0.875  1.2084 -0.2501 -0.8914
 2094SOL    HW216686   9.681   9.392   0.894  0.7442  0.0302  0.8729
 2097SOL     OW16687   5.267   9.700   3.856 -0.2924  0.1338  0.0145
 2097SOL    HW116688   5.349   9.674   3.806 -0.3601 -2.2746  1.0686
 2097SOL    HW216689   5.190   9.709   3.792  0.2320 -0.1203 -0.6612
 2098SOL     OW16690   8.071   5.802   1.699 -0.0992 -0.1463 -0.0080
 2098SOL    HW116691   8.140   5.757   1.642 -0.4480 -1.2903  0.4627
 2098SOL    HW216692   8.021   5.733   1.751  0.9438  0.9579  2.5307
 2099SOL     OW16693   3.586   4.097   7.001  0.0065 -0.2741  0.5206
 2099SOL    HW116694   3.585   4.015   7.058  0.7173  0.5136  1.7117
 2099SOL    HW216695   3.619   4.075   6.910 -1.7942 -1.6972  0.1917
 2100SOL     OW16696   9.375   8.192   6.994  0.2650  0.6098 -0.3793
 2100SOL    HW116697   9.418   8.256   7.058  0.9173  0.7991 -0.9891
 2100SOL    HW216698   9.409   8.100   7.011 -0.9253  0.3596  0.7155
 2102SOL     OW16699   8.235   0.075   1.569  0.1707 -0.5727  0.0325
 2102SOL    HW116700   8.228   0.002   1.501  1.3377 -0.3511 -0.3374
 2102SOL    HW216701   8.263   0.037   1.657  0.0751 -0.6707  0.0198
 2103SOL     OW16702   8.129   3.398   0.288  0.2338  0.0084 -0.4685
 2103SOL    HW116703   8.134   3.497   0.303  0.1735  0.0830 -0.9146
 2103SOL    HW216704   8.130   3.380   0.190 -0.1283 -0.4150 -0.3927
 2104SOL     OW16705   7.255   0.049   4.113  0.0814 -0.0001  0.1934
 2104SOL    HW116706   7.245  -0.040   4.158 -2.0348  0.9579  1.7348
 2104SOL    HW216707   7.208   0.047   4.025 -0.7053 -0.1702  0.6081
 2105SOL     OW16708   1.175   8.863   6.361 -0.2481 -0.4109 -0.4290
 2105SOL    HW116709   1.198   8.939   6.300 -1.0506  0.7292  0.6537
 2105SOL    HW216710   1.155   8.782   6.307 -0.5756  0.4725 -1.6591
 2106SOL     OW16711   7.818   4.638   7.469  0.3183  0.5101  0.2683
 2106SOL    HW116712   7.830   4.734   7.442  0.1625  0.4444 -0.0327
 2106SOL    HW216713   7.722   4.621   7.489 -0.1813 -0.3615 -2.6806
 2107SOL     OW16714   5.009   2.709   6.954 -0.0941 -0.1561 -0.3804
 2107SOL    HW116715   5.097   2.706   6.907 -0.0189 -0.8242 -0.1962
 2107SOL    HW216716   4.993   2.623   7.002 -1.5792 -0.6673 -1.7232
 2108SOL     OW16717   5.675   7.526   3.348 -0.0012  1.0050  0.0420
 2108SOL    HW116718   5.752   7.543   3.287  1.2391 -2.3242  0.6067
 2108SOL    HW216719   5.592   7.510   3.294  0.2257  2.0465 -0.6248
 2109SOL     OW16720   2.456   3.716   1.822 -0.1643 -0.1674  0.1056
 2109SOL    HW116721   2.402   3.696   1.904 -2.0296  0.4697 -0.9344
 2109SOL    HW216722   2.419   3.664   1.744 -0.0891  1.2301 -0.8942
 2111SOL     OW16723   7.599   5.321   0.530 -0.1839 -0.1547 -0.5104
 2111SOL    HW116724   7.577   5.397   0.590  2.0012  1.5477 -1.8131
 2111SOL    HW216725   7.569   5.342   0.437  2.2893  0.0141 -1.2872
 2112SOL     OW16726   2.384   9.563   7.314  0.1630 -0.0519  0.3666
 2112SOL    HW116727   2.339   9.542   7.227 -1.4412  1.7135  0.7286
 2112SOL    HW216728   2.465   9.506   7.325 -0.1068 -0.9011 -1.8884
 2113SOL     OW16729   9.502   7.762   3.713 -0.3968 -0.3112  1.0167
 2113SOL    HW116730   9.467   7.854   3.694  0.5571 -0.0871  0.2837
 2113SOL    HW216731   9.493   7.743   3.811  1.1773  1.3334  1.5152
 2114SOL     OW16732   8.330   0.015   1.227 -0.1025 -0.1690  0.3623
 2114SOL    HW116733   8.299  -0.061   1.283 -0.4028 -0.0149  0.4020
 2114SOL    HW216734   8.252   0.070   1.199  0.0505 -0.2050 -0.1511
 2115SOL     OW16735   2.887   4.338   6.773  0.1049  0.1836 -0.0684
 2115SOL    HW116736   2.831   4.257   6.790  0.0386  0.2542  0.0516
 2115SOL    HW216737   2.911   4.380   6.861 -0.4333  0.6871 -0.1591
 2117SOL     OW16738   0.014   4.928   5.941 -0.2755 -0.7278 -0.4407
 2117SOL    HW116739  -0.086   4.925   5.938 -0.4010  0.3843  1.8397
 2117SOL    HW216740   0.049   4.850   5.992 -0.0234 -0.7510 -0.6478
 2118SOL     OW16741   3.292   9.349   3.997 -0.1789  0.4262  0.0736
 2118SOL    HW116742   3.254   9.372   3.908  3.2063  0.5315 -1.4235
 2118SOL    HW216743   3.308   9.251   4.003  0.0497  0.4790  0.3565
 2119SOL     OW16744   8.124   9.780   6.420  0.4870  0.1692  0.0879
 2119SOL    HW116745   8.108   9.750   6.326  0.1807  1.5240 -0.2948
 2119SOL    HW216746   8.079   9.717   6.483 -2.6351  1.4306 -0.8111
 2120SOL     OW16747   5.936   0.740   6.092  0.1081 -0.4126 -0.2082
 2120SOL    HW116748   5.993   0.668   6.052  0.8615 -0.2224  0.5233
 2120SOL    HW216749   5.936   0.731   6.191 -2.0833 -1.1357 -0.2272
 2122SOL     OW16750   2.799   4.690   5.541 -0.5137  0.1824  0.1330
 2122SOL    HW116751   2.735   4.617   5.563  0.7687 -1.0214 -0.0050
 2122SOL    HW216752   2.750   4.769   5.506 -1.9802 -0.3828  0.8870
 2123SOL     OW16753   9.649   0.248   2.692  0.2738 -0.2364 -0.1511
 2123SOL    HW116754   9.583   0.323   2.694 -0.0127 -0.4466 -1.4197
 2123SOL    HW216755   9.720   0.264   2.760 -0.5597  0.4712  0.5687
 2124SOL     OW16756   5.448   1.688   0.237 -0.5297  0.1827  0.1391
 2124SOL    HW116757   5.352   1.714   0.246 -1.2503 -1.6297 -1.7734
 2124SOL    HW216758   5.470   1.616   0.303  0.4176  2.7366  2.7367
 2127SOL     OW16759   8.343   5.268   1.256 -0.6823 -0.7627  0.0470
 2127SOL    HW116760   8.278   5.262   1.180 -1.8596  0.9896  0.8901
 2127SOL    HW216761   8.295   5.291   1.340  1.1311  1.4595  0.5235
 2128SOL     OW16762   9.933   1.086   7.684 -0.4079  0.1923  0.3782
 2128SOL    HW116763   9.904   1.166   7.631 -0.5435 -0.5995 -0.7800
 2128SOL    HW216764   9.897   1.003   7.640  2.1992 -0.6979 -0.1612
 2130SOL     OW16765   1.358   7.927   3.266 -0.1505  0.0002  0.5788
 2130SOL    HW116766   1.372   8.024   3.288  0.9576  0.1971 -0.9286
 2130SOL    HW216767   1.445   7.886   3.237 -0.8375 -1.1499  0.0939
 2131SOL     OW16768   6.916   7.973   5.063 -0.5429 -0.1084  0.5373
 2131SOL    HW116769   6.824   8.011   5.073 -1.2215 -1.3841 -0.7246
 2131SOL    HW216770   6.976   8.041   5.021 -1.5569 -0.1417 -0.9885
 2132SOL     OW16771   2.468   0.876   1.634  0.1854  0.1710  0.1635
 2132SOL    HW116772   2.514   0.964   1.647  1.0941 -0.4926  1.6006
 2132SOL    HW216773   2.422   0.849   1.718  0.2152 -0.8962 -0.1531
 2133SOL     OW16774   2.429   7.918   3.003  0.1078 -0.7332 -0.6390
 2133SOL    HW116775   2.473   7.841   2.958 -0.4237 -1.7544  0.5628
 2133SOL    HW216776   2.340   7.935   2.961  1.1151  0.6118 -2.3170
 2134SOL     OW16777   8.654   4.261   1.903 -0.0338 -0.7118  0.2754
 2134SOL    HW116778   8.555   4.270   1.896  0.1631  0.4402 -1.5429
 2134SOL    HW216779   8.687   4.311   1.983 -0.6385  1.4725 -0.8059
 2135SOL     OW16780   7.994   7.115   5.764 -0.0786  0.0892  0.3408
 2135SOL    HW116781   8.089   7.105   5.735 -0.2803  0.2420 -0.3617
 2135SOL    HW216782   7.934   7.117   5.684 -0.7383 -0.6859  0.8031
 2137SOL     OW16783   2.001   8.923   5.929 -0.6443  0.1700  0.0779
 2137SOL    HW116784   2.038   8.859   5.997  0.1562  2.6948  2.0554
 2137SOL    HW216785   1.919   8.883   5.887  1.5349 -3.4747 -0.9591
 2138SOL     OW16786   8.824   3.704   7.234  0.4070  0.1133 -0.2569
 2138SOL    HW116787   8.871   3.621   7.264 -0.5784 -0.2357  0.3336
 2138SOL    HW216788   8.883   3.755   7.171  0.7864 -1.2949 -1.0467
 2142SOL     OW16789   0.787   9.292   7.133  0.1694  0.4836 -0.6704
 2142SOL    HW116790   0.878   9.306   7.173 -0.1031 -0.2987  0.2497
 2142SOL    HW216791   0.728   9.247   7.200 -1.3217  2.2340 -0.7538
 2144SOL     OW16792   8.198   5.046   6.351  0.3719 -0.2087  0.4924
 2144SOL    HW116793   8.209   4.996   6.437  0.5392 -0.2264  0.4619
 2144SOL    HW216794   8.174   5.141   6.370 -1.7835 -0.7424  0.5102
 2145SOL     OW16795   7.437   7.661   7.422 -0.0827 -0.4565  0.2887
 2145SOL    HW116796   7.405   7.744   7.377  1.6485  0.0224 -0.0998
 2145SOL    HW216797   7.380   7.584   7.394 -0.8022  0.3444 -0.4835
 2146SOL     OW16798   4.459   1.121   0.699  0.3319 -0.1262 -0.5823
 2146SOL    HW116799   4.501   1.176   0.772 -0.9485  0.8220 -0.5445
 2146SOL    HW216800   4.434   1.180   0.623 -0.0327 -0.8390 -1.0204
 2148SOL     OW16801   4.823   0.360   7.454  0.2868  0.1573 -0.4949
 2148SOL    HW116802   4.875   0.442   7.426 -0.2432  0.9921  0.9423
 2148SOL    HW216803   4.887   0.284   7.465  1.2176  1.1236  1.0489
 2149SOL     OW16804   1.508   7.119   2.763 -0.4102  0.3130  0.1069
 2149SOL    HW116805   1.588   7.164   2.723  0.3242  0.5692  1.8230
 2149SOL    HW216806   1.444   7.188   2.796 -1.0798  0.1028 -0.7288
 2151SOL     OW16807   7.942   6.132   7.458 -0.0314  0.2713 -0.0115
 2151SOL    HW116808   7.856   6.159   7.417 -0.0926 -0.4223 -0.3490
 2151SOL    HW216809   8.007   6.208   7.453  0.4786 -0.3041 -2.8240
 2153SOL     OW16810   3.273   7.736   0.617  0.1840 -0.0166  0.1514
 2153SOL    HW116811   3.283   7.820   0.671  0.9606 -1.3752  2.1882
 2153SOL    HW216812   3.288   7.757   0.520 -0.9272  2.4190  0.4661
 2154SOL     OW16813   8.185   7.624   3.423  0.3604 -0.2701  0.6593
 2154SOL    HW116814   8.247   7.626   3.345  2.8426 -0.4662  2.5313
 2154SOL    HW216815   8.141   7.535   3.430  2.4133 -1.2979  1.1233
 2156SOL     OW16816   1.153   8.622   4.921 -0.0062 -0.1805  0.1967
 2156SOL    HW116817   1.187   8.646   5.012 -2.3764 -1.9604  1.5958
 2156SOL    HW216818   1.148   8.705   4.865  2.2158  0.8256  1.3893
 2157SOL     OW16819   1.631   4.607   1.753 -0.4493 -0.0981 -0.4022
 2157SOL    HW116820   1.532   4.590   1.755 -0.2687 -1.0583  0.6999
 2157SOL    HW216821   1.648   4.702   1.779 -0.9213 -0.6803  2.1543
 2158SOL     OW16822   6.895   0.939   3.130  0.1888 -0.5543  0.0868
 2158SOL    HW116823   6.842   0.864   3.091  0.1420 -0.0488 -0.8312
 2158SOL    HW216824   6.942   0.907   3.213 -0.6057 -1.3221  0.2467
 2159SOL     OW16825   0.650   8.951   0.573 -0.5752  0.0668  0.4328
 2159SOL    HW116826   0.650   8.911   0.665 -0.5958  0.8637  0.7781
 2159SOL    HW216827   0.557   8.973   0.546 -0.8574 -2.4821 -0.7941
 2160SOL     OW16828   3.170   3.520   7.653  0.2135  0.1527 -0.6270
 2160SOL    HW116829   3.166   3.421   7.639 -3.2027  0.2474 -0.7888
 2160SOL    HW216830   3.104   3.564   7.593 -1.6259  2.1148  2.6850
 2162SOL     OW16831   5.138   3.136   0.910 -0.7079  0.0116 -0.3942
 2162SOL    HW116832   5.098   3.090   0.831 -0.5323 -1.5139  0.3750
 2162SOL    HW216833   5.105   3.092   0.994  2.0615 -0.9108  0.2809
 2163SOL     OW16834   7.010   4.385   2.295  0.9363  0.6064  0.0071
 2163SOL    HW116835   6.967   4.353   2.210 -2.0016 -0.1398  1.7132
 2163SOL    HW216836   7.004   4.485   2.299 -1.2146  0.4897  0.4623
 2165SOL     OW16837   5.593   5.235   1.069  0.1635 -0.1386  0.1418
 2165SOL    HW116838   5.542   5.152   1.050 -0.6665  0.5746 -0.8341
 2165SOL    HW216839   5.601   5.249   1.168  0.7778 -1.6450  0.3126
 2166SOL     OW16840   2.126   4.285   3.077  0.3676  0.0127 -0.1534
 2166SOL    HW116841   2.212   4.236   3.090  0.1785 -0.1651  0.4334
 2166SOL    HW216842   2.052   4.235   3.121 -0.0710  0.0661 -0.8350
 2167SOL     OW16843   8.633   2.786   4.592  0.7157 -0.1319 -0.0773
 2167SOL    HW116844   8.589   2.848   4.527  1.1169  0.1445 -0.0867
 2167SOL    HW216845   8.680   2.714   4.542  0.8972 -0.0053 -0.0894
 2168SOL     OW16846   1.521   3.567   7.834 -0.0584 -0.1141  0.0815
 2168SOL    HW116847   1.620   3.562   7.849 -0.2087 -0.0593  1.1263
 2168SOL    HW216848   1.486   3.653   7.872 -0.6798 -0.6424  0.7199
 2169SOL     OW16849   0.552   0.402   5.339  0.1871 -0.3189  0.2244
 2169SOL    HW116850   0.530   0.499   5.357  0.3116 -0.3148  0.3582
 2169SOL    HW216851   0.529   0.380   5.245 -0.3926 -0.3139  0.3627
 2170SOL     OW16852   1.921   0.440   2.433 -0.3344  0.0802 -0.4871
 2170SOL    HW116853   1.989   0.506   2.402 -0.5986  0.3644 -0.4617
 2170SOL    HW216854   1.947   0.406   2.523  0.4904 -0.8214 -1.0483
 2171SOL     OW16855   0.564   7.798   3.778 -0.1002 -0.1268 -0.2012
 2171SOL    HW116856   0.533   7.892   3.763  0.4029 -0.0266 -0.6320
 2171SOL    HW216857   0.661   7.791   3.754  0.0540 -0.5811  0.5578
 2173SOL     OW16858   3.484   6.025   4.322 -0.3430  0.0953  0.2108
 2173SOL    HW116859   3.578   6.058   4.315 -0.3957  0.6075  1.8619
 2173SOL    HW216860   3.475   5.965   4.402 -2.1932  2.7795  2.0785
 2176SOL     OW16861   2.805   8.459   5.264  0.1512 -0.3988 -0.1114
 2176SOL    HW116862   2.840   8.418   5.180  0.7567 -0.3029  0.0926
 2176SOL    HW216863   2.756   8.544   5.243  0.5859 -0.2034 -0.3268
 2177SOL     OW16864   7.677   6.322   5.159  0.1142  0.6536  0.1445
 2177SOL    HW116865   7.677   6.422   5.157 -1.7548  0.6608 -0.3281
 2177SOL    HW216866   7.584   6.288   5.140  0.3757 -1.1434  1.9686
 2178SOL     OW16867   8.481   0.713   1.288  0.2991 -0.1894 -0.2837
 2178SOL    HW116868   8.471   0.808   1.318 -0.5607 -0.5389  0.5452
 2178SOL    HW216869   8.556   0.670   1.338 -0.0615 -0.2856  0.1736
 2179SOL     OW16870   9.557   3.910   1.424 -0.8099 -0.2825  0.6327
 2179SOL    HW116871   9.556   3.963   1.508  0.0071  1.5753 -0.4898
 2179SOL    HW216872   9.513   3.822   1.439  1.1314 -0.8111  3.5231
 2184SOL     OW16873   5.691   4.018   1.804  0.3870 -0.3882 -0.2032
 2184SOL    HW116874   5.658   4.096   1.752  1.3668  0.6262  0.6666
 2184SOL    HW216875   5.782   4.038   1.840 -0.2147 -1.0963  1.7999
 2185SOL     OW16876   4.075   3.199   7.145 -0.4156  0.2391 -0.0707
 2185SOL    HW116877   3.993   3.255   7.156 -0.2134  0.7866 -1.3498
 2185SOL    HW216878   4.059   3.108   7.185 -2.0478 -0.0477 -1.3494
 2186SOL     OW16879   3.268   8.621   6.657  0.1209 -0.3755 -0.8179
 2186SOL    HW116880   3.244   8.525   6.649  0.8791 -0.7377  1.1213
 2186SOL    HW216881   3.361   8.635   6.623 -0.3493 -0.1465 -2.0266
 2187SOL     OW16882   4.026   1.589   5.020  0.1980  0.8338  0.0216
 2187SOL    HW116883   4.027   1.689   5.016  0.6971  0.9384  1.9698
 2187SOL    HW216884   4.113   1.556   5.056 -0.8504 -0.1489  1.7239
 2188SOL     OW16885   6.790   6.926   5.845 -0.5045 -0.0510  0.3721
 2188SOL    HW116886   6.726   6.907   5.770 -0.2586  0.8099 -0.0721
 2188SOL    HW216887   6.754   7.001   5.901  0.2575  0.6699 -0.0808
 2189SOL     OW16888   2.094   3.546   3.096 -0.5106  0.1876  0.2740
 2189SOL    HW116889   2.004   3.503   3.089 -1.2409  1.6767  0.2182
 2189SOL    HW216890   2.163   3.487   3.054 -1.6623 -0.3705 -0.8568
 2191SOL     OW16891   8.159   6.182   6.302  0.1223 -0.2351 -0.0224
 2191SOL    HW116892   8.090   6.183   6.374  0.9274  0.4020  0.7468
 2191SOL    HW216893   8.249   6.203   6.341  0.1457  3.0326 -1.6296
 2192SOL     OW16894   3.563   0.987   1.147  0.0486  0.1012 -0.6589
 2192SOL    HW116895   3.613   1.070   1.122 -1.3275  1.1089 -0.1469
 2192SOL    HW216896   3.524   0.998   1.238  0.7574 -1.5443 -0.1426
 2193SOL     OW16897   2.172   8.870   5.041  0.0550  1.0971 -0.5549
 2193SOL    HW116898   2.167   8.828   4.950  0.9818 -1.5014  0.5734
 2193SOL    HW216899   2.085   8.858   5.088  0.0729  1.1154 -0.5167
 2194SOL     OW16900   7.614   0.159   5.582  0.1118 -0.3174 -0.2850
 2194SOL    HW116901   7.603   0.258   5.591  1.8598 -0.2345  1.1883
 2194SOL    HW216902   7.672   0.138   5.504 -1.3094 -0.2513 -1.3707
 2195SOL     OW16903   7.911   1.368   6.970  0.1801 -0.1111  0.0929
 2195SOL    HW116904   7.933   1.354   7.067 -0.5995 -0.9416  0.1610
 2195SOL    HW216905   7.832   1.312   6.946  1.2311 -0.9761 -1.3849
 2196SOL     OW16906   4.084   5.783   2.049 -0.6674 -0.2087 -0.1384
 2196SOL    HW116907   4.005   5.741   2.004 -0.9240  1.0717 -0.9195
 2196SOL    HW216908   4.163   5.722   2.041 -1.1821 -0.8082 -0.7208
 2197SOL     OW16909   3.254   8.455   7.565  0.1294  0.2223 -0.2132
 2197SOL    HW116910   3.274   8.362   7.536  0.1219  0.5435 -1.2506
 2197SOL    HW216911   3.160   8.460   7.598  0.2315 -0.2055  0.1512
 2198SOL     OW16912   1.599   9.763   3.611  0.4575 -0.6267 -0.2500
 2198SOL    HW116913   1.514   9.791   3.566  0.4767 -1.5253 -0.8607
 2198SOL    HW216914   1.657   9.716   3.545  2.1999  1.5174 -0.3047
 2199SOL     OW16915   5.393   6.126   0.536 -0.5897 -0.4574 -0.3356
 2199SOL    HW116916   5.424   6.186   0.609 -0.7355 -2.7439  1.6648
 2199SOL    HW216917   5.373   6.180   0.454  2.2742  1.8208  0.3931
 2200SOL     OW16918   9.962   8.699   4.613  0.1878  0.0506  0.4162
 2200SOL    HW116919  10.018   8.749   4.679 -0.9496  0.8588  0.7849
 2200SOL    HW216920   9.976   8.738   4.522 -0.2845  0.6813  0.6148
 2203SOL     OW16921   1.820   8.804   3.725 -0.0734 -0.5317 -0.0883
 2203SOL    HW116922   1.877   8.808   3.643  1.4248  2.6162  1.0222
 2203SOL    HW216923   1.878   8.815   3.806 -2.0981  1.5240  1.1326
 2204SOL     OW16924   3.911   3.813   6.587  0.4037  0.2773  0.4159
 2204SOL    HW116925   3.883   3.901   6.624  0.5947  1.4682 -2.1303
 2204SOL    HW216926   4.009   3.813   6.567  0.0986  0.1362 -1.2021
 2205SOL     OW16927   4.048   8.807   2.751 -0.1425  0.1481  0.2166
 2205SOL    HW116928   4.108   8.797   2.672 -0.4614  1.9858 -0.2624
 2205SOL    HW216929   4.091   8.866   2.819 -0.6835  0.0868  0.6164
 2208SOL     OW16930   1.039   3.675   0.189  0.2988  0.4758 -0.4653
 2208SOL    HW116931   1.065   3.732   0.266 -0.1593 -0.3902  0.3433
 2208SOL    HW216932   1.059   3.723   0.103  0.4857  1.5826  0.1898
 2209SOL     OW16933   4.030   1.308   3.425  0.1810  0.3443 -0.0960
 2209SOL    HW116934   4.100   1.380   3.428  0.6143 -0.1047  1.2922
 2209SOL    HW216935   4.042   1.248   3.504 -2.1725  0.6071  0.4848
 2210SOL     OW16936   2.086   4.539   3.186  0.1980  0.3711 -0.1618
 2210SOL    HW116937   1.999   4.563   3.142  0.2607  1.8559  0.4991
 2210SOL    HW216938   2.120   4.453   3.147 -2.1676 -0.8965  0.4102
 2212SOL     OW16939   2.484   0.718   1.195 -0.0814 -0.2660  0.2903
 2212SOL    HW116940   2.448   0.626   1.178 -0.8286 -0.2097  1.4960
 2212SOL    HW216941   2.436   0.758   1.273  0.5817  0.9607  0.0698
 2213SOL     OW16942   1.679   6.122   6.821  0.1856 -0.3414 -0.3093
 2213SOL    HW116943   1.776   6.143   6.808 -0.0045  1.4711  1.0462
 2213SOL    HW216944   1.665   6.084   6.912 -0.5346  0.4674 -0.0810
 2214SOL     OW16945   3.739   3.276   4.481 -1.1802 -0.3540  0.3179
 2214SOL    HW116946   3.683   3.200   4.514 -0.5231 -1.1503 -0.4063
 2214SOL    HW216947   3.792   3.314   4.557 -0.1762 -1.7591  0.3325
 2215SOL     OW16948   0.361   1.791   4.058 -0.1509  0.3728 -0.4181
 2215SOL    HW116949   0.432   1.801   3.988 -0.2903  0.5136 -0.5405
 2215SOL    HW216950   0.329   1.696   4.059  1.8326 -0.3236  1.3836
 2216SOL     OW16951   6.558   4.475   1.991  0.6842  0.5122  0.1311
 2216SOL    HW116952   6.463   4.448   2.007  0.8217  0.6051  1.1497
 2216SOL    HW216953   6.565   4.575   1.989  0.6773  0.5031 -0.4851
 2217SOL     OW16954   7.156   3.502   7.699  0.3124  0.7844 -0.3102
 2217SOL    HW116955   7.096   3.513   7.778  1.3105  0.6404  0.4843
 2217SOL    HW216956   7.158   3.588   7.646  0.6538  1.3167  0.5567
 2218SOL     OW16957   7.717   1.967   5.548 -0.4665  0.6321 -0.4658
 2218SOL    HW116958   7.714   2.067   5.545  0.9197  0.7280  0.4897
 2218SOL    HW216959   7.738   1.938   5.641  1.4424 -0.4618 -1.2121
 2220SOL     OW16960   9.495   2.239   2.688  0.6488  0.1127 -0.3880
 2220SOL    HW116961   9.499   2.289   2.602  0.3630  0.5110 -0.1729
 2220SOL    HW216962   9.588   2.230   2.726  0.8002 -0.2787 -0.8581
 2223SOL     OW16963   0.500   3.775   1.440  0.4091  0.0609  0.0566
 2223SOL    HW116964   0.414   3.824   1.429  0.3460  0.1213  0.8566
 2223SOL    HW216965   0.562   3.801   1.366  0.1397  0.8419  0.1051
 2225SOL     OW16966   2.070   5.682   0.548 -0.1198 -0.3968  0.1722
 2225SOL    HW116967   2.048   5.619   0.623 -1.7188 -0.7991 -0.6060
 2225SOL    HW216968   2.096   5.631   0.467 -3.7552 -0.2403 -1.2032
 2226SOL     OW16969   0.661   3.373   3.236  0.1611 -0.4435  0.4245
 2226SOL    HW116970   0.614   3.327   3.312 -1.3626  0.2796 -0.0572
 2226SOL    HW216971   0.649   3.472   3.245 -0.2907 -0.3685 -0.9308
 2227SOL     OW16972   8.667   4.912   0.433 -0.0928  0.3479  0.0198
 2227SOL    HW116973   8.654   4.821   0.395  0.9702 -0.0355  0.5524
 2227SOL    HW216974   8.753   4.950   0.400  0.5750  0.2281  1.5861
 2228SOL     OW16975   2.728   3.257   6.805  0.3054  0.4180 -0.6450
 2228SOL    HW116976   2.750   3.217   6.894  0.1359  0.4524 -0.5873
 2228SOL    HW216977   2.711   3.355   6.816  0.9189  0.5471 -0.8178
 2229SOL     OW16978   3.827   6.911   1.422 -0.2616 -0.0518 -0.0532
 2229SOL    HW116979   3.893   6.983   1.446 -0.1217 -0.2822  0.2571
 2229SOL    HW216980   3.874   6.839   1.372 -0.7237  0.8348 -1.7891
 2230SOL     OW16981   9.566   3.206   3.845  0.0734  0.1455  0.0409
 2230SOL    HW116982   9.587   3.111   3.868  1.1759  0.7069  1.4712
 2230SOL    HW216983   9.467   3.219   3.843 -0.0778 -0.7603  1.1169
 2231SOL     OW16984   5.594   6.037   0.901 -0.6358  0.2707 -0.3405
 2231SOL    HW116985   5.656   6.034   0.822  0.3620  1.0605  0.3945
 2231SOL    HW216986   5.591   5.946   0.944 -0.4638  0.0723 -0.7410
 2232SOL     OW16987   7.480   1.772   3.228  0.0375 -0.1938  0.2149
 2232SOL    HW116988   7.404   1.837   3.238 -0.6116 -0.5904 -1.8707
 2232SOL    HW216989   7.443   1.680   3.214  0.9165 -0.5330  0.1057
 2234SOL     OW16990   5.252   2.917   0.639 -0.8369 -0.4463 -0.7466
 2234SOL    HW116991   5.259   2.827   0.596  1.4030 -0.6114 -0.1064
 2234SOL    HW216992   5.277   2.910   0.735 -4.0136  0.2637  0.1827
 2236SOL     OW16993   6.747   2.799   1.003  0.4045  0.5667  0.7783
 2236SOL    HW116994   6.816   2.871   1.008  0.2308  0.9826 -2.0587
 2236SOL    HW216995   6.777   2.720   1.057  2.7600  1.0237  0.1912
 2237SOL     OW16996   0.410   6.215   4.066  0.0464 -0.3035  0.0801
 2237SOL    HW116997   0.392   6.294   4.125 -0.3244 -0.1881 -0.1816
 2237SOL    HW216998   0.475   6.154   4.111  0.7166  0.3970  0.0722
 2238SOL     OW16999   4.369   0.444   6.605  1.0429 -0.1890  0.2538
 2238SOL    HW117000   4.388   0.537   6.575  1.2738 -0.7277 -1.3774
 2238SOL    HW217001   4.361   0.385   6.524 -1.7462 -1.0924  1.1502
 2239SOL     OW17002   6.362   7.825   4.104  0.0877  0.3569  0.1023
 2239SOL    HW117003   6.423   7.904   4.102 -1.7028  1.7927  0.8525
 2239SOL    HW217004   6.348   7.796   4.198 -0.4557  0.1131 -0.0525
 2240SOL     OW17005   6.502  10.001   2.060  0.1920  0.1542 -0.3502
 2240SOL    HW117006   6.574  10.019   1.993 -0.9014 -1.1257 -1.8848
 2240SOL    HW217007   6.465   9.909   2.046 -0.7226  0.2341  1.3974
 2241SOL     OW17008   7.482   8.100   6.585 -0.4621 -0.3717  0.1556
 2241SOL    HW117009   7.560   8.041   6.562 -0.5256 -0.5624  0.4278
 2241SOL    HW217010   7.511   8.169   6.651 -0.4834 -0.3361  0.1272
 2243SOL     OW17011   3.724   9.822   2.934  0.5515  0.4947  0.4048
 2243SOL    HW117012   3.797   9.889   2.947 -0.4016  1.8752 -1.1779
 2243SOL    HW217013   3.744   9.765   2.854 -0.6329  1.6337 -0.7274
 2245SOL     OW17014   8.113   7.477   5.513  0.5184 -0.0362 -0.5454
 2245SOL    HW117015   8.198   7.429   5.535 -0.8866 -1.8642  1.1903
 2245SOL    HW217016   8.071   7.434   5.433 -0.2536 -1.1488  0.4284
 2247SOL     OW17017   3.401   2.523   2.875 -0.1334 -0.4472 -0.3219
 2247SOL    HW117018   3.371   2.503   2.781 -1.5995  0.8900 -0.1523
 2247SOL    HW217019   3.322   2.523   2.936  0.6823 -0.2512  0.7475
 2249SOL     OW17020   8.576   3.038   3.804  0.2948 -0.2935  0.0528
 2249SOL    HW117021   8.637   3.043   3.725  0.6505 -0.1631  0.3381
 2249SOL    HW217022   8.496   2.982   3.781  0.2504 -0.0031 -0.4993
 2250SOL     OW17023   7.422   8.317   7.522 -0.2278 -0.3825 -0.6866
 2250SOL    HW117024   7.512   8.361   7.526 -1.0628  1.3307  0.1223
 2250SOL    HW217025   7.353   8.387   7.503 -1.6754 -1.2554  1.2030
 2252SOL     OW17026   2.398   2.612   5.568  0.0946  0.5493  0.2987
 2252SOL    HW117027   2.470   2.676   5.540  1.1059 -0.2712  0.9557
 2252SOL    HW217028   2.416   2.582   5.662 -0.7482 -0.1778  0.2288
 2254SOL     OW17029   7.809   4.183   3.457  0.7445  0.2463  0.4666
 2254SOL    HW117030   7.821   4.118   3.532  1.4588  0.1683  0.2860
 2254SOL    HW217031   7.837   4.274   3.488  0.6393  0.2912  0.4274
 2255SOL     OW17032   3.726   4.593   5.650 -0.0924  0.0769 -0.0252
 2255SOL    HW117033   3.789   4.661   5.688  0.6103  0.1393 -1.2609
 2255SOL    HW217034   3.770   4.503   5.651 -0.7643 -0.2419  0.9877
 2256SOL     OW17035   7.450   5.766   6.656 -0.7872 -0.7692 -0.3214
 2256SOL    HW117036   7.403   5.854   6.654 -0.6346 -0.6906 -0.4657
 2256SOL    HW217037   7.484   5.744   6.564 -4.1349 -2.7549 -1.1888
 2258SOL     OW17038   0.037   7.801   5.678  0.3222 -0.0990 -0.0996
 2258SOL    HW117039   0.126   7.780   5.638 -0.6301 -1.0014 -1.7866
 2258SOL    HW217040   0.009   7.727   5.739 -0.6785 -1.3312 -2.0148
 2259SOL     OW17041   1.412   7.789   1.494 -0.0847  0.4523  0.3245
 2259SOL    HW117042   1.323   7.751   1.467  0.3079 -0.7287  0.6494
 2259SOL    HW217043   1.479   7.715   1.498  0.9135  1.3394  0.0811
 2260SOL     OW17044   0.392   5.862   6.601  0.4015  0.1283 -0.2549
 2260SOL    HW117045   0.423   5.918   6.524  1.0236 -0.1709 -0.2325
 2260SOL    HW217046   0.458   5.788   6.616 -1.0121 -1.3146 -1.0299
 2261SOL     OW17047   8.508   9.736   0.463 -0.2844  0.0230  0.1985
 2261SOL    HW117048   8.475   9.713   0.371 -0.1408  0.5286  0.0174
 2261SOL    HW217049   8.471   9.671   0.529  0.4374 -0.9817 -0.3524
 2262SOL     OW17050   2.857   2.701   7.256 -0.0149  0.1802 -0.2626
 2262SOL    HW117051   2.773   2.684   7.205  0.9336 -1.9453 -1.1771
 2262SOL    HW217052   2.925   2.742   7.195  0.1387  0.4058  0.0601
 2263SOL     OW17053   3.534   6.833   4.007  0.2835 -0.2835  0.4327
 2263SOL    HW117054   3.458   6.778   4.040  0.6863 -0.8264  0.4556
 2263SOL    HW217055   3.573   6.792   3.925  1.1067 -0.4841  0.9163
 2264SOL     OW17056   3.530   8.665   6.574 -0.0501  0.0484 -0.4378
 2264SOL    HW117057   3.553   8.619   6.659 -0.5208  1.1676  0.2996
 2264SOL    HW217058   3.613   8.698   6.530  0.0535  0.9592  0.4379
 2267SOL     OW17059   1.073   5.611   5.802  0.3994 -0.2030 -0.4455
 2267SOL    HW117060   1.140   5.669   5.848 -0.1790  1.0311 -1.1450
 2267SOL    HW217061   1.105   5.589   5.710 -0.2012  0.4560 -0.8086
 2269SOL     OW17062   8.951   6.935   2.447 -0.0789 -0.2233  0.3671
 2269SOL    HW117063   8.906   6.954   2.360  2.2285 -0.9135 -1.0151
 2269SOL    HW217064   8.970   7.022   2.494 -0.2036  0.2351 -0.4207
 2270SOL     OW17065   3.815   2.086   1.814  0.1287  0.7119 -0.1495
 2270SOL    HW117066   3.846   2.175   1.782 -1.8910  0.8695 -1.8276
 2270SOL    HW217067   3.745   2.099   1.884  1.8421  0.4046  1.6265
 2271SOL     OW17068   2.549   3.431   1.453  0.4596 -0.2155 -0.5942
 2271SOL    HW117069   2.644   3.459   1.437 -0.5007  2.6673 -1.4491
 2271SOL    HW217070   2.509   3.399   1.368  0.8332 -2.0770 -0.0957
 2273SOL     OW17071   0.928   6.931   1.318 -0.1595  0.1693  0.6007
 2273SOL    HW117072   0.829   6.932   1.336 -0.7935 -0.4776 -2.5206
 2273SOL    HW217073   0.957   6.838   1.297  0.8921  0.5591  0.3241
 2274SOL     OW17074   8.052   8.444   4.410  0.7419 -0.1054  0.5007
 2274SOL    HW117075   7.959   8.411   4.428  0.5553 -0.3055 -0.7774
 2274SOL    HW217076   8.052   8.499   4.326  1.5268  1.0352  1.2308
 2277SOL     OW17077   2.983   5.091   5.268  0.0614  0.2365 -0.6678
 2277SOL    HW117078   3.052   5.163   5.261  0.7723 -0.2816  0.8435
 2277SOL    HW217079   2.932   5.102   5.353 -0.0747 -0.8338 -0.6075
 2281SOL     OW17080   0.869   8.686   0.849  0.5999  0.0985  0.0134
 2281SOL    HW117081   0.911   8.607   0.805  2.0483  0.9904 -0.2603
 2281SOL    HW217082   0.903   8.770   0.806  0.2980  0.9104  1.3150
 2282SOL     OW17083   3.562   9.832   1.958 -0.0560  0.1106 -0.4837
 2282SOL    HW117084   3.646   9.880   1.984  0.1712 -0.0018 -0.9990
 2282SOL    HW217085   3.527   9.781   2.037 -0.6285  1.5932  0.2334
 2283SOL     OW17086   2.475   0.658   7.786  0.4062 -0.0477  0.4719
 2283SOL    HW117087   2.550   0.717   7.814  0.3275  1.1919 -1.8432
 2283SOL    HW217088   2.392   0.712   7.773 -0.7048 -1.2838  2.1826
 2284SOL     OW17089   8.812   4.217   2.869 -0.1590 -0.0224  0.0784
 2284SOL    HW117090   8.908   4.240   2.881 -0.5106  1.3902  0.2447
 2284SOL    HW217091   8.785   4.147   2.936  0.7119 -0.3325  0.1045
 2285SOL     OW17092   9.915   9.464   6.600 -0.0840  0.2169 -0.3420
 2285SOL    HW117093   9.986   9.485   6.533  0.0461  3.8338  0.8291
 2285SOL    HW217094   9.951   9.399   6.667  0.2752 -2.2397 -2.8404
 2286SOL     OW17095   9.037   9.892   6.216  0.7014  0.1431 -0.1224
 2286SOL    HW117096   8.968   9.960   6.192 -0.7659 -0.8690  1.0895
 2286SOL    HW217097   9.122   9.937   6.241 -0.2323  1.5266  0.5841
 2287SOL     OW17098   0.048   0.395   7.554  0.1824 -0.7021  0.3021
 2287SOL    HW117099   0.061   0.359   7.461 -2.7962  0.0278 -0.4646
 2287SOL    HW217100   0.063   0.322   7.620  1.1136 -1.5586 -0.8231
 2288SOL     OW17101   2.116   6.166   1.436 -1.1426  0.3415 -0.0675
 2288SOL    HW117102   2.073   6.202   1.518 -1.3336  0.9273 -0.4200
 2288SOL    HW217103   2.065   6.197   1.355 -0.7531  0.0611 -0.4264
 2289SOL     OW17104   8.372   8.243   1.737  0.5135  0.1527 -0.3569
 2289SOL    HW117105   8.391   8.153   1.776  0.6822  0.5612  0.5252
 2289SOL    HW217106   8.411   8.248   1.645  0.5428 -0.6582 -0.3957
 2290SOL     OW17107   1.678   4.222   1.617  0.3791 -0.4204  0.2205
 2290SOL    HW117108   1.602   4.229   1.682  0.2047  0.1562 -0.0389
 2290SOL    HW217109   1.692   4.311   1.573 -1.1220 -1.3845 -2.3487
 2292SOL     OW17110   9.684   1.528   0.052 -0.0849 -0.1618  0.1191
 2292SOL    HW117111   9.727   1.617   0.042 -1.7566  0.6241 -0.3564
 2292SOL    HW217112   9.689   1.498   0.147 -1.2108  1.3472  0.6792
 2293SOL     OW17113   1.784   1.280   5.293 -0.1910  0.5246 -0.3157
 2293SOL    HW117114   1.766   1.302   5.197 -0.2478 -1.2067 -0.7265
 2293SOL    HW217115   1.711   1.220   5.327  1.4590 -1.4061 -0.1179
 2294SOL     OW17116   4.550   1.794   1.086  0.1856  0.3121  0.4175
 2294SOL    HW117117   4.500   1.878   1.065 -1.2526 -0.4900  0.5065
 2294SOL    HW217118   4.485   1.718   1.090  0.9581 -0.2537  3.6439
 2297SOL     OW17119   6.791   7.307   5.877  0.1648  0.0128 -0.1867
 2297SOL    HW117120   6.889   7.287   5.879  0.2810  0.6774  0.9061
 2297SOL    HW217121   6.745   7.254   5.947 -0.0119  0.9642  0.4264
 2298SOL     OW17122   0.128   7.042   1.580  0.3895 -0.1258 -0.2089
 2298SOL    HW117123   0.178   7.074   1.499  1.0647 -0.6329 -0.0001
 2298SOL    HW217124   0.153   6.947   1.599  0.1832 -0.0266  0.5565
 2299SOL     OW17125   0.973   0.897   4.950 -0.1524  0.2152  0.5182
 2299SOL    HW117126   0.981   0.805   4.989  1.6118  0.3083  0.3846
 2299SOL    HW217127   1.037   0.959   4.995 -0.4478  1.0920 -0.2535
 2300SOL     OW17128   9.849   1.615   7.813  0.0230  0.2487  0.0560
 2300SOL    HW117129   9.781   1.655   7.751  1.3753 -0.8861 -2.2401
 2300SOL    HW217130   9.913   1.560   7.760  0.1889 -2.2235  2.7239
 2301SOL     OW17131   8.248   6.395   1.222 -0.1669  0.3941  0.2585
 2301SOL    HW117132   8.307   6.422   1.298 -1.3988 -1.1191  1.7625
 2301SOL    HW217133   8.164   6.449   1.224 -0.8264 -0.6444  0.8335
 2302SOL     OW17134   7.287   8.948   6.943  0.4367 -0.5238 -0.3332
 2302SOL    HW117135   7.310   8.868   6.888  3.3297 -0.5709  0.8583
 2302SOL    HW217136   7.235   8.920   7.024  0.3705 -1.0168 -0.5448
 2305SOL     OW17137   5.036   0.721   3.624 -0.4295  0.4109 -0.2762
 2305SOL    HW117138   5.073   0.671   3.703 -3.9317  0.1424  1.2759
 2305SOL    HW217139   4.998   0.808   3.656 -0.6238  0.9369 -1.9163
 2306SOL     OW17140   7.722   6.964   4.759 -0.0446  0.5956  0.1077
 2306SOL    HW117141   7.697   6.868   4.746 -1.3609  0.8289  0.7835
 2306SOL    HW217142   7.804   6.970   4.816  1.4138 -0.1850 -1.8696
 2307SOL     OW17143   6.289   3.293   2.170 -0.5436  0.2214 -0.6593
 2307SOL    HW117144   6.283   3.269   2.268 -0.9643  3.1209  0.0602
 2307SOL    HW217145   6.247   3.220   2.116 -2.9649 -0.0934  1.5310
 2309SOL     OW17146   5.329   9.556   2.120 -0.1921  0.0209 -0.1704
 2309SOL    HW117147   5.344   9.646   2.081  0.3348  0.3099  0.6870
 2309SOL    HW217148   5.331   9.562   2.220 -1.3493 -0.7351 -0.0900
 2311SOL     OW17149   3.262   4.378   4.968 -0.1596  0.2157  0.0253
 2311SOL    HW117150   3.227   4.368   4.875 -0.1357  0.3251  0.0047
 2311SOL    HW217151   3.340   4.317   4.981  0.2108  0.6362 -0.2129
 2312SOL     OW17152   0.281   8.193   4.416 -0.3231  0.0970 -0.5568
 2312SOL    HW117153   0.221   8.115   4.400 -0.1025  0.0352 -1.0929
 2312SOL    HW217154   0.332   8.214   4.332  1.6836 -0.9357  0.3681
 2313SOL     OW17155   8.250   4.530   5.467  0.1218 -0.3306 -0.1880
 2313SOL    HW117156   8.348   4.513   5.452 -0.1255 -0.8292 -1.2101
 2313SOL    HW217157   8.239   4.619   5.513  1.0831 -0.5145  0.4123
 2314SOL     OW17158   1.980   9.401   6.586 -0.5940 -0.0539  0.5566
 2314SOL    HW117159   1.977   9.340   6.507 -1.2516  0.7203 -0.0195
 2314SOL    HW217160   2.061   9.379   6.641 -0.2545 -0.7489 -0.1984
 2316SOL     OW17161   1.382   3.299   5.618 -0.1253 -0.1964  0.4992
 2316SOL    HW117162   1.290   3.278   5.652  0.0090 -0.1061  0.9313
 2316SOL    HW217163   1.379   3.383   5.564 -0.4918 -0.8006 -0.4291
 2318SOL     OW17164   9.692   4.136   1.818  0.1235 -0.0816 -0.0399
 2318SOL    HW117165   9.782   4.094   1.828  0.8859  1.6106  0.3654
 2318SOL    HW217166   9.655   4.157   1.908  0.5388  1.7518 -0.2897
 2319SOL     OW17167   2.161   0.855   0.517 -0.2528  0.8206  0.0725
 2319SOL    HW117168   2.171   0.908   0.433 -0.8480  0.6199 -0.1284
 2319SOL    HW217169   2.237   0.876   0.580  1.5417 -0.8001 -1.4680
 2320SOL     OW17170   3.168   5.186   7.109 -0.5067 -0.4251 -0.3768
 2320SOL    HW117171   3.094   5.121   7.128 -2.8191  1.5578 -2.2533
 2320SOL    HW217172   3.153   5.270   7.162  0.2167  0.1257 -1.0431
 2322SOL     OW17173   7.360   5.158   3.447 -0.9912  0.2537 -0.2359
 2322SOL    HW117174   7.298   5.229   3.414 -0.1843  0.5767 -1.0536
 2322SOL    HW217175   7.443   5.200   3.482 -0.8383 -0.2432  0.0024
 2324SOL     OW17176   9.358   0.751   1.162 -0.1732  0.1532  0.4440
 2324SOL    HW117177   9.339   0.677   1.098  1.2654 -0.1573  0.3598
 2324SOL    HW217178   9.434   0.806   1.128 -0.3719  0.8788  1.1504
 2325SOL     OW17179   4.532   9.682   5.487 -0.0541 -0.5664  0.3001
 2325SOL    HW117180   4.535   9.736   5.404  1.2639 -0.2062  0.5782
 2325SOL    HW217181   4.592   9.602   5.477  1.7703  0.5892  1.6573
 2326SOL     OW17182   5.277   0.424   5.890 -0.5806 -0.2286 -0.5325
 2326SOL    HW117183   5.216   0.451   5.816 -0.1611 -0.4205 -0.9464
 2326SOL    HW217184   5.267   0.488   5.966 -1.4109 -0.3430 -0.5365
 2327SOL     OW17185   0.191   0.498   0.204  0.5617 -0.5412  0.4335
 2327SOL    HW117186   0.267   0.441   0.234  2.4124  1.5413 -0.1142
 2327SOL    HW217187   0.201   0.590   0.243 -0.9601  0.1257 -0.7033
 2328SOL     OW17188   7.272   7.885   4.504  0.2044  0.1902 -0.8907
 2328SOL    HW117189   7.284   7.805   4.445  1.7262 -1.0302  1.0161
 2328SOL    HW217190   7.260   7.967   4.448 -1.7520 -1.3949 -2.8932
 2329SOL     OW17191   4.653   1.074   1.985  0.3182  0.3195  0.4893
 2329SOL    HW117192   4.613   1.071   1.894  0.7313  2.2059  0.2362
 2329SOL    HW217193   4.584   1.105   2.051 -0.9086 -3.9855  1.3808
 2331SOL     OW17194   5.862   1.017   4.562  0.6330  0.3972 -0.5646
 2331SOL    HW117195   5.883   1.099   4.509  0.0608  0.6400 -0.4134
 2331SOL    HW217196   5.769   0.986   4.541  0.0677  1.0253  0.9851
 2332SOL     OW17197   2.920   1.665   5.118  0.6332  0.2819 -0.0411
 2332SOL    HW117198   2.866   1.588   5.152 -0.7729  1.3557  0.2105
 2332SOL    HW217199   2.883   1.750   5.155  0.6114  1.2841 -2.2877
 2333SOL     OW17200   8.864   8.122   3.009  0.5010 -0.3254 -0.7029
 2333SOL    HW117201   8.864   8.208   2.958 -2.7292  0.5696  0.7002
 2333SOL    HW217202   8.839   8.047   2.948  1.4167 -0.0033 -1.4959
 2334SOL     OW17203   9.936   8.173   4.321 -0.2795 -0.4539  0.6123
 2334SOL    HW117204  10.003   8.100   4.339 -0.3837 -0.8401 -0.5013
 2334SOL    HW217205   9.923   8.228   4.403  0.1683 -1.4009  1.3254
 2335SOL     OW17206   5.474   8.166   4.053  0.0988 -0.2940 -0.2868
 2335SOL    HW117207   5.488   8.189   4.150 -0.7941 -0.0420 -0.2161
 2335SOL    HW217208   5.405   8.226   4.014  0.1504 -0.6785 -0.9755
 2336SOL     OW17209   9.503   1.107   3.994  0.2770  0.4647  0.2673
 2336SOL    HW117210   9.468   1.026   4.042 -0.3659 -0.4123 -1.6259
 2336SOL    HW217211   9.430   1.175   3.987 -0.2307 -0.1803 -1.0863
 2337SOL     OW17212   9.000   8.610   2.698 -0.2312  0.3116  0.6032
 2337SOL    HW117213   9.077   8.662   2.663 -0.1387  0.5765  1.1970
 2337SOL    HW217214   8.980   8.534   2.636  1.6264 -0.8237  1.3491
 2338SOL     OW17215   7.993   1.750   5.901 -0.5883  0.1537  0.3758
 2338SOL    HW117216   7.976   1.662   5.856 -0.7932  1.1755 -1.6139
 2338SOL    HW217217   7.965   1.745   5.997  1.7080 -2.7301  0.9900
 2341SOL     OW17218   0.418   7.237   5.515 -0.1636 -0.5316 -0.2536
 2341SOL    HW117219   0.498   7.226   5.456  1.1659  0.9815  1.2179
 2341SOL    HW217220   0.432   7.187   5.601 -0.8098 -0.2964 -0.0038
 2342SOL     OW17221   3.603   4.004   6.722 -0.0303 -0.2285  0.5669
 2342SOL    HW117222   3.678   4.034   6.664  0.7058  0.2682  1.7554
 2342SOL    HW217223   3.516   4.035   6.683  0.3480 -1.0049 -0.9366
 2343SOL     OW17224   4.053   8.357   7.516 -0.2785 -0.4165 -0.2189
 2343SOL    HW117225   3.977   8.309   7.471  0.0429 -0.7108 -0.4464
 2343SOL    HW217226   4.056   8.332   7.612  0.7711 -1.9722 -0.6376
 2344SOL     OW17227   1.281   1.832   3.416  0.1711  0.0183 -0.2339
 2344SOL    HW117228   1.260   1.797   3.507 -0.2007 -0.3581 -0.4605
 2344SOL    HW217229   1.215   1.904   3.392  0.7241  0.6445  0.0917
 2345SOL     OW17230   9.881   0.026   2.337  1.0403 -0.4058 -0.0461
 2345SOL    HW117231   9.832   0.111   2.357 -0.3424 -1.4979  1.3589
 2345SOL    HW217232   9.863  -0.000   2.242  0.5870  0.3061 -0.1659
 2346SOL     OW17233   1.135   0.694   5.085  0.2381  0.3984  0.5958
 2346SOL    HW117234   1.135   0.669   5.182 -0.5776  0.0729  0.5160
 2346SOL    HW217235   1.152   0.613   5.029  0.1403  0.4834  0.4413
 2347SOL     OW17236   3.517   9.407   7.772 -0.0335  0.0469  0.8284
 2347SOL    HW117237   3.533   9.497   7.813 -0.9534  0.6192 -0.0237
 2347SOL    HW217238   3.593   9.346   7.794  0.9276  1.2349  0.8609
 2349SOL     OW17239   3.847   6.706   4.881 -0.1687  0.7143 -0.3865
 2349SOL    HW117240   3.801   6.673   4.963  1.9220 -1.4124 -0.0207
 2349SOL    HW217241   3.855   6.631   4.815  0.8958  1.5989 -1.2875
 2350SOL     OW17242   4.484   7.379   0.856  0.3832 -0.2144 -0.2136
 2350SOL    HW117243   4.503   7.416   0.947 -0.5677  1.3017 -0.6119
 2350SOL    HW217244   4.451   7.453   0.797  1.7119 -1.0187 -2.0072
 2351SOL     OW17245   7.677   2.348   1.591 -0.0779 -0.5353  0.5084
 2351SOL    HW117246   7.619   2.324   1.513 -0.3442  2.3379 -0.2115
 2351SOL    HW217247   7.633   2.421   1.643  1.5815 -0.3033  1.5947
 2352SOL     OW17248   7.390   9.969   2.631 -0.1997 -0.0024  0.6548
 2352SOL    HW117249   7.409   9.882   2.585 -0.9007 -0.0926  0.5254
 2352SOL    HW217250   7.331   9.953   2.710 -0.4116  0.3644  0.5723
 2353SOL     OW17251   2.647   0.486   2.757  0.4169 -0.0248 -0.0904
 2353SOL    HW117252   2.733   0.439   2.740  0.0861 -0.7829  0.3129
 2353SOL    HW217253   2.592   0.433   2.822 -1.1011 -0.4413 -1.6778
 2355SOL     OW17254   4.346   2.221   0.416  0.3127  0.6180  0.3672
 2355SOL    HW117255   4.264   2.221   0.474  0.5923 -0.2518  0.7680
 2355SOL    HW217256   4.318   2.218   0.320 -0.1096 -1.5863  0.5399
 2356SOL     OW17257   3.296   4.624   7.305 -0.4105  0.2334 -0.0043
 2356SOL    HW117258   3.338   4.536   7.330  1.4107  1.1689  0.3100
 2356SOL    HW217259   3.299   4.686   7.384 -0.9776  0.8452 -0.4589
 2357SOL     OW17260   6.575   0.753   4.107  0.1842 -0.1021 -0.5888
 2357SOL    HW117261   6.576   0.848   4.075  0.4821 -0.7332 -2.5718
 2357SOL    HW217262   6.668   0.715   4.099 -0.3035 -1.1191 -1.6435
 2358SOL     OW17263   2.016   6.180   0.102  0.1620 -0.1199  0.0842
 2358SOL    HW117264   2.110   6.175   0.134 -0.0102 -1.6660  0.3831
 2358SOL    HW217265   1.999   6.269   0.060  0.4625  1.9059  4.0333
 2360SOL     OW17266   6.254   1.797   1.908 -0.2091  0.5264  0.5470
 2360SOL    HW117267   6.297   1.717   1.950 -1.6557  0.9097  2.8463
 2360SOL    HW217268   6.324   1.852   1.861  1.2230 -0.6302  1.2898
 2364SOL     OW17269   7.193   1.915   3.939  0.4233 -0.4267 -0.2823
 2364SOL    HW117270   7.246   1.939   4.020 -2.2758  3.4329  0.4437
 2364SOL    HW217271   7.181   1.996   3.882 -0.7841 -2.2944 -2.7441
 2365SOL     OW17272   9.269   1.974   0.424  0.0230 -0.6021 -0.4457
 2365SOL    HW117273   9.207   2.049   0.445 -1.0546 -1.7276  0.5269
 2365SOL    HW217274   9.244   1.933   0.336 -0.0329 -0.4711 -0.4905
 2366SOL     OW17275   2.650   3.335   5.223 -0.1263 -0.0445  0.3739
 2366SOL    HW117276   2.699   3.414   5.260  1.3861  0.0262 -1.7173
 2366SOL    HW217277   2.591   3.364   5.148 -0.4821 -0.7298  0.3828
 2367SOL     OW17278   8.169   9.797   4.733  0.4582  0.0691  0.4434
 2367SOL    HW117279   8.147   9.755   4.645  1.4682 -0.5471  0.4875
 2367SOL    HW217280   8.229   9.737   4.785  0.1643  0.5979  1.4096
 2368SOL     OW17281   0.352   6.793   1.973 -0.1162  0.3369 -0.2902
 2368SOL    HW117282   0.426   6.856   1.995  1.4684 -1.2621 -0.9130
 2368SOL    HW217283   0.369   6.751   1.884 -1.9129  0.1415 -0.5613
 2369SOL     OW17284   4.056   1.551   1.298 -0.2004 -0.1893 -0.3034
 2369SOL    HW117285   4.019   1.535   1.206  0.5646  0.4827 -0.7307
 2369SOL    HW217286   4.076   1.463   1.341  1.8838 -0.4936 -1.7924
 2370SOL     OW17287   2.308   8.422   3.205  0.1521 -0.2919 -0.0128
 2370SOL    HW117288   2.340   8.346   3.262  0.0920 -0.8733 -0.7528
 2370SOL    HW217289   2.382   8.453   3.146 -0.5814 -1.5896 -1.6739
 2371SOL     OW17290   8.867   1.777   5.178 -0.0725  0.0318 -0.6505
 2371SOL    HW117291   8.936   1.784   5.106 -1.0351  0.3278 -1.5495
 2371SOL    HW217292   8.858   1.682   5.206  0.5631 -0.0356 -0.6587
 2373SOL     OW17293   8.443   7.719   7.052 -0.0283  0.2045  0.2726
 2373SOL    HW117294   8.422   7.622   7.040  1.1169 -0.1329  0.9338
 2373SOL    HW217295   8.536   7.737   7.023  0.2173  0.8485  1.4182
 2375SOL     OW17296   2.932   7.702   2.006 -0.5452  0.2306  0.7112
 2375SOL    HW117297   2.899   7.608   1.999  1.6751 -0.6831  2.0378
 2375SOL    HW217298   3.032   7.702   2.004 -0.4452  2.9732 -4.3093
 2376SOL     OW17299   5.861   8.213   3.589 -0.0415  0.6861  0.1458
 2376SOL    HW117300   5.813   8.127   3.576  2.1867 -0.2295 -2.6785
 2376SOL    HW217301   5.874   8.231   3.687 -1.1348 -1.8193  0.7712
 2378SOL     OW17302   1.890   4.829   0.267 -0.0843 -0.1133  0.5793
 2378SOL    HW117303   1.967   4.808   0.327 -1.3536  0.0347  2.2980
 2378SOL    HW217304   1.919   4.895   0.198  0.9325  1.1058  2.1351
 2379SOL     OW17305   7.038   8.926   4.145 -0.6400 -0.2221  0.1665
 2379SOL    HW117306   7.008   8.892   4.234  0.0834  0.4082  0.6647
 2379SOL    HW217307   7.065   9.023   4.154 -2.7592  0.5177 -1.2344
 2380SOL     OW17308   7.708   6.899   1.321 -0.3457  0.8893  0.4150
 2380SOL    HW117309   7.703   6.991   1.359  1.0083  0.2336  2.2382
 2380SOL    HW217310   7.800   6.862   1.335 -0.7729 -0.5964 -0.6353
 2381SOL     OW17311   4.630   6.008   2.981 -0.0492 -0.1359  0.6610
 2381SOL    HW117312   4.549   5.986   3.035  0.0532 -1.0235  0.4522
 2381SOL    HW217313   4.696   6.058   3.037  0.6433 -2.2407  1.7466
 2383SOL     OW17314   8.509   0.646   7.644  0.6423  0.3339 -0.0268
 2383SOL    HW117315   8.429   0.620   7.589 -0.1694 -0.2206  1.3991
 2383SOL    HW217316   8.491   0.733   7.690  1.4654  0.9811 -0.9119
 2384SOL     OW17317   1.212   8.915   6.627 -0.1954  0.1852 -0.4619
 2384SOL    HW117318   1.189   8.900   6.531 -3.4248 -0.9486  0.4155
 2384SOL    HW217319   1.264   8.837   6.662 -0.2684 -0.0651 -0.9105
 2385SOL     OW17320   9.951   1.437   6.580  0.5241  0.4921  0.0109
 2385SOL    HW117321   9.976   1.341   6.596  1.4207  0.6143 -0.6489
 2385SOL    HW217322   9.853   1.449   6.599  0.5413 -0.4118  0.7149
 2386SOL     OW17323   2.892   6.277   3.934 -0.3477  0.1187 -0.1942
 2386SOL    HW117324   2.925   6.294   3.842 -0.3715 -0.8460 -0.3891
 2386SOL    HW217325   2.826   6.201   3.932  0.6019 -0.7447  0.7913
 2387SOL     OW17326   0.533   6.632   4.084  0.2433  0.1575 -0.3126
 2387SOL    HW117327   0.560   6.564   4.015  0.0933  0.0291 -0.2461
 2387SOL    HW217328   0.471   6.589   4.150 -0.3065  0.5188 -0.6027
 2388SOL     OW17329   8.640   7.182   1.938  0.2783 -0.1984  0.2324
 2388SOL    HW117330   8.733   7.162   1.968 -0.2935 -0.5775  1.7653
 2388SOL    HW217331   8.603   7.259   1.989  0.2587  0.8996 -1.3975
 2389SOL     OW17332   0.121   7.519   6.041 -0.1623  0.7772 -0.1174
 2389SOL    HW117333   0.213   7.525   6.080 -0.7472  1.4898  1.1946
 2389SOL    HW217334   0.082   7.430   6.063 -0.1375  0.8237  0.1168
 2390SOL     OW17335   9.271   2.477   2.606 -0.4449  0.2891 -0.4931
 2390SOL    HW117336   9.192   2.514   2.556 -1.5132 -0.7512  0.3875
 2390SOL    HW217337   9.319   2.411   2.548 -0.5385  0.5180 -0.8375
 2392SOL     OW17338   5.401   3.964   0.225  0.5468 -0.1087 -0.0818
 2392SOL    HW117339   5.361   3.994   0.312  2.8961  1.4775  0.5014
 2392SOL    HW217340   5.405   3.864   0.223 -1.8798 -0.2549  0.5199
 2393SOL     OW17341   8.365   7.720   2.952 -0.1781  0.4286 -0.5497
 2393SOL    HW117342   8.346   7.677   2.863  0.5535  3.7051 -2.3934
 2393SOL    HW217343   8.464   7.731   2.963 -0.0647 -2.5148  2.0194
 2395SOL     OW17344   2.701   7.269   2.359 -0.5418  0.1248  0.2480
 2395SOL    HW117345   2.621   7.213   2.380  1.6470 -2.0883  2.9452
 2395SOL    HW217346   2.695   7.355   2.410 -1.3237  0.1065  0.1998
 2396SOL     OW17347   5.006   8.772   3.413  0.1651 -0.4093  0.4217
 2396SOL    HW117348   4.978   8.852   3.466  1.8521  0.3866  0.1432
 2396SOL    HW217349   5.048   8.704   3.473  0.1536 -0.4198  0.4179
 2397SOL     OW17350   3.618   6.977   5.403 -0.1246 -0.6258  0.3932
 2397SOL    HW117351   3.574   7.053   5.451 -0.8576 -0.7436 -0.0860
 2397SOL    HW217352   3.711   7.004   5.377 -1.2315  1.0426 -2.0164
 2399SOL     OW17353   1.513   4.372   0.607  0.3352  0.1180 -0.6433
 2399SOL    HW117354   1.451   4.383   0.684 -1.3558 -0.1922 -1.9338
 2399SOL    HW217355   1.524   4.275   0.586 -0.5805  0.2468 -1.8369
 2400SOL     OW17356   9.665   3.420   2.891  0.3853 -0.2432  0.0125
 2400SOL    HW117357   9.579   3.374   2.866  0.4288 -0.4755  0.2892
 2400SOL    HW217358   9.741   3.355   2.884  0.6518  0.1627 -0.9797
 2401SOL     OW17359   3.679   7.320   6.220 -0.0559  0.3835 -0.4446
 2401SOL    HW117360   3.624   7.294   6.299 -0.1876  0.6539 -0.4454
 2401SOL    HW217361   3.698   7.239   6.164  0.1006  0.1822 -0.0963
 2402SOL     OW17362   6.427   0.906   0.895 -0.4571  0.4247 -0.1852
 2402SOL    HW117363   6.369   0.825   0.897 -0.3896  0.3955  1.7305
 2402SOL    HW217364   6.510   0.889   0.948  0.4104  1.1354 -1.2764
 2403SOL     OW17365   0.611   4.008   1.790 -0.0555  0.1894  0.2100
 2403SOL    HW117366   0.595   3.920   1.835  0.7872  0.3550  0.8439
 2403SOL    HW217367   0.703   4.041   1.812 -1.2743  2.4651  2.0952
 2404SOL     OW17368   7.940   1.984   2.153  0.0382 -0.1701 -0.2108
 2404SOL    HW117369   7.903   1.955   2.065 -0.7686 -2.5293  0.8621
 2404SOL    HW217370   7.895   2.069   2.181  1.7883  1.7474 -3.0014
 2405SOL     OW17371   3.083   0.952   1.199  0.4495  0.3283  0.3928
 2405SOL    HW117372   3.082   0.997   1.109 -0.4233  0.9495  0.7045
 2405SOL    HW217373   3.123   1.014   1.266 -2.2877  1.3370  1.1636
 2406SOL     OW17374   9.468   5.817   1.399 -0.0825  0.3559 -0.2564
 2406SOL    HW117375   9.438   5.723   1.386 -1.3430  0.5471  1.1413
 2406SOL    HW217376   9.552   5.818   1.454  0.5965 -0.0036 -1.2742
 2407SOL     OW17377   9.573   9.616   5.272  0.1782 -0.6102 -0.4152
 2407SOL    HW117378   9.600   9.612   5.369  1.6742 -0.8975 -0.8244
 2407SOL    HW217379   9.546   9.524   5.242  1.2969 -0.8617 -0.6904
 2409SOL     OW17380   2.701   2.506   3.836 -0.2683 -0.3685 -0.2796
 2409SOL    HW117381   2.695   2.547   3.745 -0.3545  0.7723  0.2234
 2409SOL    HW217382   2.672   2.573   3.904 -1.9130 -1.7955  0.4582
 2410SOL     OW17383   0.633   1.447   1.776 -0.5280 -0.4210  0.2052
 2410SOL    HW117384   0.688   1.368   1.747 -0.2340 -0.3081  0.4599
 2410SOL    HW217385   0.548   1.449   1.723 -0.3721 -0.7015 -0.0584
 2411SOL     OW17386   8.497   4.342   6.176  0.0438 -1.0536 -0.1136
 2411SOL    HW117387   8.574   4.384   6.226 -0.2135  0.5885 -1.0641
 2411SOL    HW217388   8.530   4.260   6.128  1.1379 -0.5455 -0.2591
 2412SOL     OW17389   7.658   7.594   1.784 -0.1920  0.0073 -0.8887
 2412SOL    HW117390   7.636   7.496   1.784 -2.8376  0.5791 -1.0107
 2412SOL    HW217391   7.668   7.626   1.879 -1.5085  0.0872 -0.7750
 2413SOL     OW17392   8.865   0.114   4.639  0.0170  0.3124  1.0674
 2413SOL    HW117393   8.780   0.078   4.677  0.0721 -0.7957  0.1644
 2413SOL    HW217394   8.941   0.054   4.665  0.0378 -0.5211 -0.8429
 2415SOL     OW17395   7.632   8.237   7.014 -0.1012 -0.3097  0.1398
 2415SOL    HW117396   7.721   8.275   6.989  0.2593  0.6243  2.6785
 2415SOL    HW217397   7.645   8.152   7.064 -0.8024 -1.9547 -2.3480
 2416SOL     OW17398   5.055   9.608   2.490  0.1947  0.3310 -0.4390
 2416SOL    HW117399   5.004   9.645   2.568  0.1078  1.7969 -1.1808
 2416SOL    HW217400   5.117   9.536   2.523  0.6924  1.4343  1.1017
 2418SOL     OW17401   3.328   6.468   6.580  0.2799 -0.6107  0.5988
 2418SOL    HW117402   3.342   6.542   6.645 -1.1665 -1.2008  1.6050
 2418SOL    HW217403   3.282   6.504   6.498 -0.9655 -0.4811  1.3317
 2419SOL     OW17404   0.400   5.261   1.640  0.3036  0.1979 -0.2397
 2419SOL    HW117405   0.382   5.230   1.547 -1.5056 -1.0703  0.4917
 2419SOL    HW217406   0.341   5.211   1.703  0.5525  1.9883  1.4539
 2420SOL     OW17407   8.959   1.055   4.962  0.0331 -0.0042  0.1305
 2420SOL    HW117408   9.038   1.046   4.901 -0.2725 -1.4653 -0.0624
 2420SOL    HW217409   8.875   1.032   4.912 -0.4798  1.0998  0.4564
 2422SOL     OW17410   5.014   2.179   7.348 -0.1289 -0.2860  0.2024
 2422SOL    HW117411   5.066   2.101   7.310  0.1614 -0.7629  1.5354
 2422SOL    HW217412   5.078   2.243   7.392 -0.4951  0.0168  0.2935
 2423SOL     OW17413   8.367   9.891   2.997 -0.3955 -0.1363 -0.0032
 2423SOL    HW117414   8.332   9.818   2.939 -1.7760  1.4378 -1.2052
 2423SOL    HW217415   8.294   9.956   3.018  0.5287  0.3195  1.9808
 2424SOL     OW17416   2.612   8.479   4.902 -0.7648 -0.0299 -0.7420
 2424SOL    HW117417   2.572   8.504   4.991 -1.9895 -1.1027 -0.9802
 2424SOL    HW217418   2.711   8.469   4.913 -1.1073 -2.0167  0.9674
 2425SOL     OW17419   2.871   5.046   6.220 -0.0308 -0.0618  0.0746
 2425SOL    HW117420   2.875   5.144   6.204  0.3130 -0.2242 -0.8526
 2425SOL    HW217421   2.897   4.997   6.137 -1.1801 -0.9478  0.2265
 2426SOL     OW17422   5.971   1.887   1.930  0.1163  0.0979 -0.5501
 2426SOL    HW117423   5.967   1.961   1.997 -1.0025  0.6221 -1.1798
 2426SOL    HW217424   6.063   1.847   1.930  0.7178  1.4535 -0.1793
 2427SOL     OW17425   8.266   6.631   3.009 -0.0207  0.1103 -0.3203
 2427SOL    HW117426   8.232   6.725   3.001  0.7820  0.3966 -0.3992
 2427SOL    HW217427   8.199   6.576   3.059  1.1206  1.5959  2.9757
 2428SOL     OW17428   2.980   8.063   7.083  0.6150 -0.1178  0.2693
 2428SOL    HW117429   3.069   8.020   7.069  0.7221 -0.4299  1.8193
 2428SOL    HW217430   2.925   8.007   7.145 -0.6651  0.0801 -0.6691
 2429SOL     OW17431   3.627   6.501   4.457  0.1955 -0.2544 -0.7422
 2429SOL    HW117432   3.542   6.499   4.510  1.4986  2.5639  1.6019
 2429SOL    HW217433   3.619   6.569   4.383  0.5936  0.4628 -0.1355
 2431SOL     OW17434   0.317   5.826   7.436  0.2503  0.2108  0.4354
 2431SOL    HW117435   0.324   5.903   7.374 -0.7232  0.5315  0.7200
 2431SOL    HW217436   0.381   5.754   7.408  1.8626  1.4973  0.7317
 2432SOL     OW17437   7.150   0.268   4.283 -0.3735 -0.5107  0.4610
 2432SOL    HW117438   7.134   0.211   4.363  0.7009 -0.9915  0.3424
 2432SOL    HW217439   7.181   0.212   4.207  4.4671  0.5777  1.4269
 2433SOL     OW17440   3.753   1.362   1.515  0.1498 -0.0691 -0.3990
 2433SOL    HW117441   3.825   1.429   1.498  0.7955 -0.6662 -0.0588
 2433SOL    HW217442   3.691   1.396   1.586  2.0205 -0.9578  1.7035
 2434SOL     OW17443   7.362   2.830   4.389 -0.1191 -0.2171  0.3284
 2434SOL    HW117444   7.354   2.744   4.339  2.5203  0.1583 -0.8123
 2434SOL    HW217445   7.429   2.889   4.344 -1.6644  2.3338  1.2561
 2436SOL     OW17446   1.993   9.827   4.688 -0.1361 -0.4316  0.5302
 2436SOL    HW117447   1.943   9.741   4.696 -2.7718  0.9764  0.0140
 2436SOL    HW217448   2.048   9.842   4.770 -1.7293 -1.3408  1.7982
 2437SOL     OW17449   3.420   8.625   3.672 -0.0052  0.0241 -0.1551
 2437SOL    HW117450   3.406   8.535   3.713 -2.2453 -0.5214 -2.0426
 2437SOL    HW217451   3.509   8.627   3.626  0.8254 -0.6198  1.3804
 2438SOL     OW17452   7.895   6.710   0.891 -0.8311  0.1265 -0.3716
 2438SOL    HW117453   7.953   6.637   0.927 -1.3986 -1.1191 -1.9020
 2438SOL    HW217454   7.863   6.768   0.966 -0.8172 -1.5275  0.9346
 2439SOL     OW17455   1.856   5.660   2.588 -0.0416  0.2932  0.2878
 2439SOL    HW117456   1.870   5.697   2.679  1.3616  0.8516 -0.1457
 2439SOL    HW217457   1.881   5.728   2.519 -2.4941  0.4127 -0.5397
 2440SOL     OW17458   0.373   7.098   6.777 -0.3975  0.4232 -0.0577
 2440SOL    HW117459   0.386   7.197   6.777 -0.4412  0.4411  1.2493
 2440SOL    HW217460   0.314   7.073   6.853 -0.1730 -0.6364 -0.2327
 2441SOL     OW17461   1.059   3.762   2.013 -0.4346 -0.1861 -0.2930
 2441SOL    HW117462   0.989   3.768   1.942 -1.4343 -0.5586  0.6562
 2441SOL    HW217463   1.123   3.838   2.002  0.1744 -0.9631 -2.3845
 2442SOL     OW17464   1.649   4.605   6.124 -0.7347 -0.1630  0.3572
 2442SOL    HW117465   1.684   4.662   6.050 -0.9277  0.0216  0.4073
 2442SOL    HW217466   1.703   4.621   6.207 -1.2234  0.4591  0.5570
 2443SOL     OW17467   0.649   0.428   0.205 -0.7009 -0.4455  0.3566
 2443SOL    HW117468   0.738   0.427   0.251 -0.8767 -2.2877  0.6981
 2443SOL    HW217469   0.650   0.361   0.131 -1.9243 -0.7309  0.5916
 2444SOL     OW17470   3.408   7.163   7.602  0.3539  0.1943 -0.0807
 2444SOL    HW117471   3.316   7.148   7.639  0.2000 -0.0286 -0.5469
 2444SOL    HW217472   3.461   7.219   7.665  0.3473 -0.8113  0.8419
 2446SOL     OW17473   0.287   4.600   6.553 -0.1591 -0.1692  0.1582
 2446SOL    HW117474   0.267   4.577   6.648 -2.1025  0.8022  0.0157
 2446SOL    HW217475   0.266   4.697   6.537 -0.0205 -0.3685 -1.2935
 2448SOL     OW17476   1.060   1.809   2.706 -0.0666 -0.3097 -0.2159
 2448SOL    HW117477   0.978   1.865   2.695 -0.0008 -0.0001  0.7802
 2448SOL    HW217478   1.080   1.798   2.804  0.5327 -1.1817 -0.4315
 2449SOL     OW17479   1.253   4.714   7.605 -0.8791  0.0705 -0.6314
 2449SOL    HW117480   1.190   4.784   7.638  1.1969  1.6459  0.1169
 2449SOL    HW217481   1.274   4.651   7.679  2.1268  2.3719  0.5759
 2450SOL     OW17482   9.554   6.022   4.454  0.4731  0.6831 -0.0283
 2450SOL    HW117483   9.626   6.041   4.521  0.9581 -0.1122 -0.3231
 2450SOL    HW217484   9.465   6.048   4.493  0.7475  0.1889  0.9413
 2451SOL     OW17485   2.525   3.901   0.765  0.0188  0.0303 -0.4212
 2451SOL    HW117486   2.444   3.928   0.817  0.2614 -0.4864  0.2242
 2451SOL    HW217487   2.497   3.846   0.687 -0.4240  1.5169 -1.3415
 2452SOL     OW17488   0.544   5.126   7.070 -0.0394 -0.3511 -0.4885
 2452SOL    HW117489   0.485   5.196   7.112  0.9645  0.5958 -0.6388
 2452SOL    HW217490   0.570   5.059   7.139 -1.1232 -0.6646 -0.3701
 2453SOL     OW17491   1.014   5.742   0.408  0.2151  0.0379  0.1858
 2453SOL    HW117492   1.047   5.825   0.454 -0.2406 -0.0669  0.6982
 2453SOL    HW217493   0.984   5.765   0.316 -0.0844  0.4758  0.3929
 2455SOL     OW17494   4.636   7.604   1.793  0.0231 -0.3759  0.5181
 2455SOL    HW117495   4.695   7.677   1.828  0.5796 -0.8521  0.5862
 2455SOL    HW217496   4.593   7.557   1.870  1.8155 -1.8951  0.6201
 2458SOL     OW17497   1.915   7.450   4.180 -1.2854 -0.3673  0.4940
 2458SOL    HW117498   1.856   7.400   4.244  0.0575  1.1489  3.0278
 2458SOL    HW217499   1.891   7.548   4.182 -1.1903 -0.2887 -1.3223
 2459SOL     OW17500   2.941   1.051   7.724 -0.0426  0.5465  0.0246
 2459SOL    HW117501   2.975   1.005   7.806  0.7501  0.4473 -0.3556
 2459SOL    HW217502   2.934   0.985   7.649  2.2009  1.2272 -0.8514
 2463SOL     OW17503   4.324   2.367   5.849 -0.1857  0.1968  0.7226
 2463SOL    HW117504   4.415   2.334   5.873 -0.1441  0.1906  0.5501
 2463SOL    HW217505   4.291   2.318   5.768 -1.0238 -1.0023  1.7658
 2464SOL     OW17506   5.857   1.510   3.767  0.1746 -0.2620 -0.7027
 2464SOL    HW117507   5.916   1.526   3.688  1.4664 -2.1190 -0.1470
 2464SOL    HW217508   5.773   1.465   3.738 -0.3295  1.0451 -1.2985
 2465SOL     OW17509   2.551   1.542   6.362  0.1152 -0.0750  0.6996
 2465SOL    HW117510   2.614   1.520   6.288 -0.8508 -0.0876 -0.1339
 2465SOL    HW217511   2.492   1.462   6.380 -0.5758  0.3901  0.5316
 2466SOL     OW17512   5.431   0.613   5.383 -0.0082 -0.1313  0.3997
 2466SOL    HW117513   5.475   0.630   5.471  0.7381  1.5094 -0.2659
 2466SOL    HW217514   5.336   0.587   5.398  0.7745 -2.2812  1.7858
 2467SOL     OW17515   0.646   8.182   1.893  0.3898  0.2544 -0.4420
 2467SOL    HW117516   0.553   8.152   1.874  0.3253 -0.2660  0.6054
 2467SOL    HW217517   0.707   8.151   1.820 -0.2219  0.4216 -1.0253
 2468SOL     OW17518   1.071   6.638   0.270  0.4266  0.5841  0.5654
 2468SOL    HW117519   1.110   6.692   0.344  1.1508 -2.7913  2.7325
 2468SOL    HW217520   0.971   6.642   0.275  0.4782  1.2011  1.1002
 2469SOL     OW17521   6.230   5.234   0.998 -0.0995  0.3389  0.0432
 2469SOL    HW117522   6.287   5.271   1.071 -1.0225  2.0933 -0.1043
 2469SOL    HW217523   6.185   5.308   0.949 -2.4452 -0.9878  0.0945
 2470SOL     OW17524   4.682   0.348   6.299 -0.1979 -0.0566 -0.2990
 2470SOL    HW117525   4.690   0.378   6.394  0.5540  1.7803 -0.9054
 2470SOL    HW217526   4.654   0.252   6.296 -0.4604 -0.0684  1.7641
 2472SOL     OW17527   0.614   3.873   7.759  0.2079 -0.6125  0.0350
 2472SOL    HW117528   0.588   3.784   7.797  1.3312 -0.2664  1.6623
 2472SOL    HW217529   0.638   3.935   7.834 -0.2746  0.9693 -1.1039
 2474SOL     OW17530   8.507   1.916   7.952  0.2411 -0.0958  0.2097
 2474SOL    HW117531   8.545   1.877   7.868 -1.9156  0.4641 -1.0752
 2474SOL    HW217532   8.416   1.878   7.968  0.5813 -0.0895  2.2390
 2475SOL     OW17533   1.468   5.349   3.867 -0.1141  0.5088 -0.3047
 2475SOL    HW117534   1.537   5.420   3.848 -1.5932  2.3759  1.0753
 2475SOL    HW217535   1.508   5.279   3.926  0.9670  0.9560 -0.4884
 2477SOL     OW17536   0.893   7.275   4.657  0.4547 -0.4568 -0.0142
 2477SOL    HW117537   0.988   7.260   4.631  0.1021 -1.2756 -0.8572
 2477SOL    HW217538   0.859   7.196   4.709  0.0178 -0.4913 -0.3478
 2478SOL     OW17539   1.780   6.970   4.167  0.4950  0.0660  0.6247
 2478SOL    HW117540   1.874   6.943   4.146  0.5758 -0.9403  2.1444
 2478SOL    HW217541   1.750   7.041   4.104  1.7541 -0.6757 -0.8364
 2479SOL     OW17542   7.818   3.655   0.914  0.0830 -0.0759  0.2965
 2479SOL    HW117543   7.718   3.656   0.904  0.1765 -0.4100 -0.7086
 2479SOL    HW217544   7.844   3.719   0.987 -0.8222  0.4138  0.2069
 2480SOL     OW17545   2.648   6.301   6.768  0.5783  0.6473 -0.2074
 2480SOL    HW117546   2.587   6.312   6.847  0.9466 -1.1225  0.3288
 2480SOL    HW217547   2.593   6.292   6.685  0.1618  1.2963 -0.0041
 2481SOL     OW17548   2.681   5.971   4.504  0.0684 -0.4040 -0.0880
 2481SOL    HW117549   2.632   6.023   4.434  0.3568  0.4254  0.3228
 2481SOL    HW217550   2.779   5.979   4.489  0.1286 -0.3116  0.3556
 2483SOL     OW17551   3.566   8.148   6.890  0.6925 -0.4725  0.3223
 2483SOL    HW117552   3.541   8.173   6.983 -0.4408  0.7128 -0.2798
 2483SOL    HW217553   3.561   8.229   6.831  0.6886 -1.3532 -0.9138
 2485SOL     OW17554   3.550   3.178   6.263  0.1077  0.2035 -0.1613
 2485SOL    HW117555   3.542   3.240   6.185 -2.7922 -0.9927 -0.8501
 2485SOL    HW217556   3.602   3.097   6.235 -0.9517 -0.2387 -0.8986
 2486SOL     OW17557   4.142   3.178   6.677 -0.4160  0.3063  0.3130
 2486SOL    HW117558   4.141   3.085   6.640 -0.5223  0.8545 -1.0816
 2486SOL    HW217559   4.231   3.219   6.662 -0.1078  0.1547  1.6579
 2487SOL     OW17560   1.673   8.403   5.231 -0.7503  0.4616 -0.1328
 2487SOL    HW117561   1.766   8.424   5.261 -0.4939 -1.2215  0.3143
 2487SOL    HW217562   1.676   8.355   5.143 -1.1736  0.0675  0.0640
 2488SOL     OW17563   6.252   0.226   2.958  0.4652 -0.2029 -0.6883
 2488SOL    HW117564   6.157   0.196   2.951  0.4704  0.1604 -2.8016
 2488SOL    HW217565   6.312   0.150   2.933  0.6281  0.2627 -1.7405
 2489SOL     OW17566   3.652   8.687   1.098  0.2099 -0.3501  0.2484
 2489SOL    HW117567   3.721   8.719   1.034  1.0921 -0.7334  0.9990
 2489SOL    HW217568   3.611   8.603   1.063  0.9637 -0.7727  0.3662
 2490SOL     OW17569   4.447   3.456   5.770 -0.7099 -0.2390 -0.2769
 2490SOL    HW117570   4.423   3.473   5.674 -0.8403 -0.8397 -0.3516
 2490SOL    HW217571   4.538   3.416   5.775 -1.5144 -2.1112 -0.2921
 2491SOL     OW17572   2.403   9.118   4.877 -0.2505 -0.0264 -0.4889
 2491SOL    HW117573   2.327   9.173   4.911  0.8923  0.1445  1.9108
 2491SOL    HW217574   2.486   9.174   4.873  0.0993 -0.6076 -1.6087
 2492SOL     OW17575   7.000   5.117   0.143 -0.1026  0.5425  0.0088
 2492SOL    HW117576   6.957   5.139   0.230 -0.4384  0.2544 -0.0862
 2492SOL    HW217577   6.980   5.023   0.118 -0.0025  0.6220 -0.3801
 2493SOL     OW17578   2.303   2.975   3.547 -0.5117 -0.1883  0.2322
 2493SOL    HW117579   2.274   3.068   3.568  0.6934  0.1193  0.5219
 2493SOL    HW217580   2.403   2.969   3.547 -0.5539 -1.1327 -1.3046
 2494SOL     OW17581   3.660   1.441   3.114  0.0160 -0.0598 -0.3311
 2494SOL    HW117582   3.677   1.395   3.026  0.2813  1.2942 -1.0064
 2494SOL    HW217583   3.582   1.398   3.159 -0.0732 -0.8239 -1.1835
 2496SOL     OW17584   0.790   5.476   7.119 -0.0660  0.2958 -0.1463
 2496SOL    HW117585   0.808   5.386   7.158  0.2944  0.1107 -0.7331
 2496SOL    HW217586   0.821   5.547   7.182  0.5414 -0.0046 -0.1026
 2497SOL     OW17587   9.202   1.614   4.393 -0.1620  0.3065 -0.4159
 2497SOL    HW117588   9.133   1.548   4.426 -3.1464  3.4706 -0.0956
 2497SOL    HW217589   9.243   1.580   4.309 -1.5097 -2.0549 -0.1688
 2499SOL     OW17590   7.713   2.269   3.055  0.7039  0.3692  0.3626
 2499SOL    HW117591   7.651   2.311   2.990  0.8724 -0.7808 -0.5625
 2499SOL    HW217592   7.677   2.179   3.082  0.6530  0.8059  1.8323
 2500SOL     OW17593   0.247   6.659   4.173  0.2898  0.0136  0.0041
 2500SOL    HW117594   0.227   6.755   4.156 -1.9205 -0.7035 -1.6852
 2500SOL    HW217595   0.210   6.632   4.263 -0.0515  0.4580 -0.0042
 2501SOL     OW17596   2.292   7.744   2.640 -0.4267 -0.4302 -0.1338
 2501SOL    HW117597   2.308   7.841   2.656  0.0654 -0.4208 -0.6564
 2501SOL    HW217598   2.302   7.724   2.542  2.2322 -1.5036  0.3185
 2502SOL     OW17599   9.822   2.901   7.799  0.1788  0.9693  0.3367
 2502SOL    HW117600   9.891   2.867   7.862  0.7067  1.2457 -0.0835
 2502SOL    HW217601   9.811   3.000   7.811 -1.5779  0.6239  1.7748
 2503SOL     OW17602   0.365   0.950   4.347  0.5907 -0.2593 -0.5987
 2503SOL    HW117603   0.413   1.018   4.290  2.0147 -0.5786  0.2006
 2503SOL    HW217604   0.305   0.997   4.412  0.2795  0.1641 -1.1835
 2504SOL     OW17605   1.938   1.232   7.551 -0.2271  0.7008  0.0472
 2504SOL    HW117606   2.007   1.221   7.623 -0.4180 -4.4960 -0.3637
 2504SOL    HW217607   1.978   1.207   7.463 -1.7009  0.9059 -0.6957
 2506SOL     OW17608   7.165   0.070   5.572  0.8234  0.5257 -0.7656
 2506SOL    HW117609   7.132   0.162   5.591 -2.1328 -0.0473 -2.7233
 2506SOL    HW217610   7.113   0.004   5.626  2.4141 -0.0743  0.0701
 2510SOL     OW17611   0.745   0.254   3.179 -0.1165  0.2268 -0.1081
 2510SOL    HW117612   0.728   0.167   3.131  0.8859 -0.0128 -0.0301
 2510SOL    HW217613   0.660   0.285   3.221 -0.7169 -0.2226 -0.9505
 2511SOL     OW17614   7.974   5.204   7.252 -0.2397 -0.9998  0.3007
 2511SOL    HW117615   7.912   5.227   7.177  0.8227 -1.5372 -0.7512
 2511SOL    HW217616   8.035   5.130   7.224  0.3630 -1.0080  1.5957
 2512SOL     OW17617   2.581   0.204   1.485  0.6474 -0.6336 -0.5653
 2512SOL    HW117618   2.614   0.264   1.558  1.2905  0.7344 -1.9549
 2512SOL    HW217619   2.481   0.213   1.478  0.5704 -0.8336  0.1811
 2513SOL     OW17620   0.412   6.170   4.954 -0.5211  0.2700  0.5754
 2513SOL    HW117621   0.372   6.078   4.959  0.5403 -0.2167  0.1559
 2513SOL    HW217622   0.441   6.189   4.860 -2.2057  1.6741  0.2960
 2515SOL     OW17623   2.599   0.187   2.604  0.2301 -0.0894  0.0420
 2515SOL    HW117624   2.682   0.195   2.658 -0.2717  0.1562  0.7847
 2515SOL    HW217625   2.607   0.245   2.522  0.8969 -0.2908 -0.0401
 2516SOL     OW17626   6.925   9.048   6.722  0.2152 -0.2916  0.0895
 2516SOL    HW117627   6.990   8.980   6.688 -1.0957 -0.8902 -1.2940
 2516SOL    HW217628   6.968   9.138   6.723  1.4738 -0.8880  0.4671
 2519SOL     OW17629   4.375   8.304   3.284  0.0474  0.4556  0.1679
 2519SOL    HW117630   4.365   8.315   3.382  0.7349 -0.8123  0.3915
 2519SOL    HW217631   4.465   8.337   3.255  0.4665 -0.6249  0.2131
 2520SOL     OW17632   8.563   1.783   0.230 -0.4330 -0.4823 -0.1176
 2520SOL    HW117633   8.522   1.839   0.158 -0.0885  0.4281  0.3878
 2520SOL    HW217634   8.494   1.722   0.268 -0.6617 -0.8247 -1.0840
 2521SOL     OW17635   9.349   1.245   1.536 -0.4832  0.1832  0.6739
 2521SOL    HW117636   9.266   1.192   1.517  0.2286 -0.6594 -0.1776
 2521SOL    HW217637   9.409   1.192   1.596 -0.6982  0.9160  1.5363
 2523SOL     OW17638   5.305   6.967   2.728 -0.0172  0.4977 -0.5238
 2523SOL    HW117639   5.254   6.991   2.646 -0.7019  1.7898  0.2476
 2523SOL    HW217640   5.242   6.927   2.796  0.0676  1.6808  0.2623
 2526SOL     OW17641   4.544   5.953   7.215  0.2289  0.3501 -0.0715
 2526SOL    HW117642   4.513   5.882   7.277  0.3504  0.7970  0.5024
 2526SOL    HW217643   4.608   6.013   7.262  0.3304  0.6873 -0.6296
 2527SOL     OW17644   1.506   1.159   0.020 -0.2656 -0.0421  0.7516
 2527SOL    HW117645   1.594   1.133  -0.019  0.7138  0.5941  2.4572
 2527SOL    HW217646   1.436   1.160  -0.051  1.1434 -0.3719 -0.6531
 2528SOL     OW17647   1.263   3.959   0.780  0.4486  0.4281 -0.4468
 2528SOL    HW117648   1.343   3.910   0.815 -0.1370  1.3561  2.2504
 2528SOL    HW217649   1.198   3.893   0.742  0.2771 -0.7906  1.8982
 2529SOL     OW17650   2.016   2.663   2.435  0.0292  0.0351 -0.2648
 2529SOL    HW117651   1.976   2.734   2.493  0.2081 -1.6074  1.9316
 2529SOL    HW217652   1.991   2.573   2.470  0.3819 -1.0265 -2.6037
 2531SOL     OW17653   8.430   2.613   7.838 -0.1306 -0.2048 -0.3464
 2531SOL    HW117654   8.434   2.710   7.815 -0.9229  0.2089  1.2063
 2531SOL    HW217655   8.338   2.578   7.818  0.2463 -0.7366 -1.2141
 2532SOL     OW17656   0.366   1.626   6.257 -0.5018  0.8491  0.3972
 2532SOL    HW117657   0.308   1.549   6.284 -0.0075  0.4441  0.3269
 2532SOL    HW217658   0.399   1.673   6.339 -1.1229  1.2288  0.4312
 2533SOL     OW17659   0.997   2.324   4.408 -0.0521  0.7678  0.1831
 2533SOL    HW117660   1.045   2.393   4.354 -1.2366  1.6855  0.2865
 2533SOL    HW217661   0.901   2.351   4.419 -0.3373 -0.5046  0.8857
 2534SOL     OW17662   7.766   4.222   0.132  0.3795  0.5220 -0.9886
 2534SOL    HW117663   7.682   4.169   0.139  0.1350  0.7418 -2.1744
 2534SOL    HW217664   7.744   4.318   0.115  0.8481  0.7820 -0.1607
 2535SOL     OW17665   5.463   8.007   4.564  0.2876  0.3883 -0.4577
 2535SOL    HW117666   5.495   7.913   4.580  2.6708  1.6116  2.5702
 2535SOL    HW217667   5.375   8.005   4.517  1.1697 -3.3192 -2.1248
 2537SOL     OW17668   1.483   6.984   0.202 -0.0620 -0.3848  0.0128
 2537SOL    HW117669   1.452   7.015   0.112  2.3574  0.6467 -0.5068
 2537SOL    HW217670   1.493   6.884   0.201 -2.0284 -0.5934 -0.2032
 2538SOL     OW17671   0.464   1.921   5.182  0.2788  0.0996 -0.3993
 2538SOL    HW117672   0.460   2.014   5.219  1.2084  0.4105 -1.0342
 2538SOL    HW217673   0.519   1.863   5.243 -1.8491 -0.5215  0.9575
 2539SOL     OW17674   1.746   8.034   6.190  0.1390  0.4036 -0.1346
 2539SOL    HW117675   1.751   7.939   6.219 -1.8630 -0.2890 -1.9352
 2539SOL    HW217676   1.834   8.079   6.209  1.0569 -1.7369  0.8634
 2540SOL     OW17677   9.885   1.859   6.537 -0.5311 -0.6967  0.5870
 2540SOL    HW117678   9.859   1.796   6.464  1.1737 -0.6256 -0.1059
 2540SOL    HW217679   9.808   1.871   6.600 -2.7307  0.8168 -2.2896
 2541SOL     OW17680   4.229   4.877   5.865 -0.0152  0.3590  0.4103
 2541SOL    HW117681   4.172   4.941   5.917 -0.7378 -2.1699  2.8725
 2541SOL    HW217682   4.323   4.884   5.896 -0.2818 -0.4833  1.4435
 2542SOL     OW17683   1.289   5.024   6.987 -0.3731 -0.2589  0.1577
 2542SOL    HW117684   1.288   4.927   6.962  0.0337 -0.0718 -0.6032
 2542SOL    HW217685   1.366   5.069   6.941  1.2609 -0.1923  2.8249
 2543SOL     OW17686   7.251   6.383   5.316  0.5920 -0.2465  0.2338
 2543SOL    HW117687   7.238   6.285   5.327  0.0243 -0.1552  0.3978
 2543SOL    HW217688   7.198   6.415   5.238 -0.3408  0.1623  1.0170
 2545SOL     OW17689   6.654   5.402   2.239 -0.0927  0.0697 -0.1203
 2545SOL    HW117690   6.648   5.489   2.191 -0.4679 -1.7492 -3.5629
 2545SOL    HW217691   6.731   5.349   2.202 -0.4094 -1.4296  1.2873
 2546SOL     OW17692   6.525   0.958   3.280 -0.0923 -0.2824  0.6004
 2546SOL    HW117693   6.594   1.028   3.259 -0.1467  0.1426  1.7890
 2546SOL    HW217694   6.548   0.914   3.366  0.4313 -2.3762 -0.5752
 2548SOL     OW17695   8.669   4.449   2.105  0.2884  0.5549  0.1363
 2548SOL    HW117696   8.634   4.528   2.055  0.4397  0.6043  0.1073
 2548SOL    HW217697   8.697   4.478   2.197 -0.6358  0.3316  0.4960
 2549SOL     OW17698   6.077   0.730   1.296 -0.1046  0.5746  0.1368
 2549SOL    HW117699   5.979   0.749   1.303 -0.2957 -0.4705  0.3647
 2549SOL    HW217700   6.120   0.800   1.239 -1.2663  0.1408 -1.3282
 2552SOL     OW17701   4.160   8.931   1.671  0.2582  0.2611 -0.4334
 2552SOL    HW117702   4.110   8.990   1.607  1.1223  1.1409 -0.3086
 2552SOL    HW217703   4.164   8.975   1.761 -0.9395 -0.9708  0.2353
 2554SOL     OW17704   3.720   0.140   5.773  0.1294  0.1891  0.4984
 2554SOL    HW117705   3.818   0.122   5.766  0.5162  2.1401  0.4265
 2554SOL    HW217706   3.694   0.206   5.702 -1.2318 -0.3255  0.5245
 2555SOL     OW17707   2.066   4.701   4.617 -0.7022  0.3427 -0.4972
 2555SOL    HW117708   1.978   4.685   4.572 -0.5348  1.0486 -1.0731
 2555SOL    HW217709   2.089   4.798   4.614  0.7566 -0.0069 -1.5851
 2556SOL     OW17710   6.248   4.605   0.683 -0.3902 -0.2274  0.3598
 2556SOL    HW117711   6.270   4.676   0.616 -1.4400 -0.3653 -0.1550
 2556SOL    HW217712   6.191   4.645   0.755  0.4148 -0.1692  0.9619
 2557SOL     OW17713   0.958   7.457   4.345 -0.0521  0.2197 -0.3799
 2557SOL    HW117714   0.949   7.473   4.247 -0.1783  3.0491  0.0730
 2557SOL    HW217715   0.872   7.423   4.382 -0.0045 -0.8563 -1.2068
 2558SOL     OW17716   1.063   5.928   2.547  0.3202 -0.1453 -0.2021
 2558SOL    HW117717   1.127   5.930   2.624  1.1978  0.2901 -0.9357
 2558SOL    HW217718   1.005   5.847   2.554  0.2835 -0.0203  1.0081
 2560SOL     OW17719   6.845   6.569   4.945 -0.2461 -0.0254 -0.3263
 2560SOL    HW117720   6.842   6.514   5.028 -0.5866  0.5333  0.0285
 2560SOL    HW217721   6.832   6.665   4.968  0.3538  0.2048 -0.9468
 2561SOL     OW17722   8.752   5.523   2.504  0.6090  0.2787  0.3848
 2561SOL    HW117723   8.766   5.484   2.413 -3.3339 -1.8246  0.5636
 2561SOL    HW217724   8.788   5.460   2.573 -1.4034 -0.8077  0.4714
 2563SOL     OW17725   2.594   3.921   3.670  0.1884  0.0009  0.6691
 2563SOL    HW117726   2.522   3.925   3.739  0.4667  2.4378  0.8614
 2563SOL    HW217727   2.564   3.971   3.588  0.8306 -0.7898 -0.0573
 2564SOL     OW17728   2.311   5.671   6.065  0.1489 -0.7463 -0.0118
 2564SOL    HW117729   2.268   5.585   6.038 -0.3942 -0.3378 -0.4953
 2564SOL    HW217730   2.292   5.740   5.994  2.4904 -0.8247 -0.7549
 2565SOL     OW17731   0.880   2.153   6.675  0.6201 -0.2242 -0.1714
 2565SOL    HW117732   0.958   2.142   6.737  0.3876 -1.1223 -0.0314
 2565SOL    HW217733   0.798   2.113   6.717  0.7029 -1.8796 -1.5398
 2566SOL     OW17734   0.583   5.047   3.251 -0.0475 -0.2059 -0.0732
 2566SOL    HW117735   0.674   5.024   3.284  0.1154 -1.3452 -1.2395
 2566SOL    HW217736   0.518   4.979   3.285 -0.5035  0.7674  0.9887
 2567SOL     OW17737   2.255   2.965   5.643 -0.0020 -0.0794  0.5997
 2567SOL    HW117738   2.218   3.045   5.690  0.6491  0.1277  0.7685
 2567SOL    HW217739   2.352   2.956   5.665  0.6296  0.7945 -1.7938
 2568SOL     OW17740   5.550   9.456   6.548  0.0251 -0.4013 -0.1215
 2568SOL    HW117741   5.603   9.389   6.495  1.9139  0.3661  0.7599
 2568SOL    HW217742   5.554   9.432   6.645 -0.0575  0.4695  0.0977
 2569SOL     OW17743   6.420   9.204   4.920  1.0533 -0.5722  0.2026
 2569SOL    HW117744   6.479   9.270   4.967  3.0902 -1.6895 -0.7651
 2569SOL    HW217745   6.379   9.248   4.840  1.0987 -0.0071  0.4852
 2570SOL     OW17746   2.720   8.474   6.541 -0.1146 -0.2447  0.6934
 2570SOL    HW117747   2.638   8.417   6.533 -0.8619  0.8289  0.5287
 2570SOL    HW217748   2.725   8.537   6.464  0.8921 -0.3312  0.6845
 2571SOL     OW17749   8.841   5.718   6.526  0.2084  0.4822 -0.4695
 2571SOL    HW117750   8.776   5.760   6.463  0.7130  0.1874 -1.1959
 2571SOL    HW217751   8.933   5.721   6.486  0.1176 -2.1888 -1.0241
 2572SOL     OW17752   9.040   8.051   5.701 -0.7497 -0.2093 -0.4299
 2572SOL    HW117753   9.019   7.955   5.680  0.0796 -0.1025 -1.8207
 2572SOL    HW217754   8.972   8.087   5.765 -1.2337 -1.6414 -0.1196
 2573SOL     OW17755   2.343   2.809   4.115  0.1506 -0.4754 -0.0247
 2573SOL    HW117756   2.320   2.712   4.117  1.0960 -0.6895  0.6310
 2573SOL    HW217757   2.398   2.828   4.033 -0.2849 -0.4406 -0.3066
 2574SOL     OW17758   0.004   1.938   2.264 -0.6982 -0.4898 -0.1259
 2574SOL    HW117759   0.055   1.926   2.350  0.5775 -0.5702 -0.8798
 2574SOL    HW217760  -0.082   1.985   2.283 -0.4443 -0.5396  1.2075
 2575SOL     OW17761   5.415   8.821   5.418 -0.5853  0.0731 -0.3791
 2575SOL    HW117762   5.316   8.820   5.432 -0.9147 -0.6549 -2.5371
 2575SOL    HW217763   5.446   8.914   5.398 -1.1070  0.0292 -1.4165
 2576SOL     OW17764   6.506   3.509   1.490 -0.0108 -0.3195  0.6448
 2576SOL    HW117765   6.514   3.533   1.587  0.1563  0.4107  0.4508
 2576SOL    HW217766   6.593   3.526   1.444 -0.3355  0.1164  0.1949
 2577SOL     OW17767   3.972   1.382   6.619  0.4381  0.4376  0.1025
 2577SOL    HW117768   4.001   1.463   6.567  1.8001 -0.1242 -0.0332
 2577SOL    HW217769   3.929   1.411   6.704  1.7458  1.3118  0.4868
 2578SOL     OW17770   4.540   8.731   1.331  0.4446 -0.2940  0.3213
 2578SOL    HW117771   4.466   8.772   1.384 -1.6999 -0.2351 -2.5599
 2578SOL    HW217772   4.609   8.800   1.309 -1.2136  0.9232 -1.2288
 2579SOL     OW17773   0.409   7.411   3.165 -0.1908 -0.8645  0.1253
 2579SOL    HW117774   0.350   7.445   3.238 -0.5039  2.2426 -1.5026
 2579SOL    HW217775   0.486   7.473   3.152  1.0410 -2.5409 -0.7479
 2580SOL     OW17776   8.040   3.932   0.086  0.0797 -0.0075 -0.5913
 2580SOL    HW117777   8.074   3.991   0.013 -1.3461  1.7765  0.1249
 2580SOL    HW217778   8.055   3.977   0.174 -0.1073 -1.1904  0.0487
 2581SOL     OW17779   1.262   3.745   6.616  0.2958  0.0976 -0.1129
 2581SOL    HW117780   1.314   3.767   6.534  0.7608  0.0847  0.1804
 2581SOL    HW217781   1.304   3.788   6.696  0.0671 -0.2109  0.1783
 2582SOL     OW17782   4.872   5.375   3.885  0.3696 -0.3592 -0.0196
 2582SOL    HW117783   4.785   5.405   3.845 -0.5842 -1.5303  1.1379
 2582SOL    HW217784   4.935   5.350   3.812 -0.2366  0.5426 -0.8746
 2583SOL     OW17785   9.228   2.234   1.471 -0.1084  0.1226 -0.5722
 2583SOL    HW117786   9.244   2.250   1.373 -0.7687  0.9419 -0.5488
 2583SOL    HW217787   9.307   2.186   1.509  0.6172  0.7168 -1.2873
 2584SOL     OW17788   7.779   0.733   2.572  0.1690  0.3678  0.0977
 2584SOL    HW117789   7.689   0.763   2.543  0.4203  0.3142 -0.7499
 2584SOL    HW217790   7.771   0.678   2.656 -0.6656 -0.2971 -0.4107
 2586SOL     OW17791   7.541   6.978   4.414 -0.1439  0.4013 -0.1550
 2586SOL    HW117792   7.590   6.991   4.500 -1.8903  3.0057  0.5081
 2586SOL    HW217793   7.605   6.949   4.343  1.4487 -1.0751  1.8143
 2587SOL     OW17794   8.029   6.820   5.452 -0.0779 -0.4917 -0.1678
 2587SOL    HW117795   8.048   6.793   5.546  1.1790  0.2977 -0.1914
 2587SOL    HW217796   7.930   6.817   5.436 -0.3439 -0.0699  1.3390
 2588SOL     OW17797   4.062   7.441   0.667 -0.2674  0.0117  0.2324
 2588SOL    HW117798   3.972   7.452   0.626 -0.8243 -2.4453  0.7090
 2588SOL    HW217799   4.132   7.438   0.596 -0.8039 -0.4328 -0.2726
 2589SOL     OW17800   2.298   4.946   3.298  0.2924 -0.3035  0.0124
 2589SOL    HW117801   2.254   5.025   3.342  0.5059  0.2444 -0.7492
 2589SOL    HW217802   2.294   4.956   3.199  0.8456 -0.9630 -0.0827
 2590SOL     OW17803   7.629   1.687   5.867  0.2500 -0.8092  0.1517
 2590SOL    HW117804   7.672   1.774   5.845 -1.5330 -0.1670 -0.9129
 2590SOL    HW217805   7.698   1.615   5.871  1.4842  0.2994 -0.9093
 2591SOL     OW17806   6.389   0.776   4.310  1.0010  0.1066 -0.2872
 2591SOL    HW117807   6.466   0.756   4.249  1.3339 -0.0187  0.1737
 2591SOL    HW217808   6.336   0.692   4.325  2.1258 -0.3543  1.2650
 2592SOL     OW17809   2.731   3.331   1.751 -0.1199  0.6425  0.9048
 2592SOL    HW117810   2.767   3.387   1.677  2.4709 -1.0118  0.8057
 2592SOL    HW217811   2.803   3.267   1.782 -2.9946 -2.8491  0.7372
 2593SOL     OW17812   6.553   3.301   2.250  0.1292 -0.1278  0.0456
 2593SOL    HW117813   6.547   3.341   2.342 -0.9742 -0.8746  0.3044
 2593SOL    HW217814   6.466   3.258   2.226  1.0581 -1.7571 -0.5146
 2594SOL     OW17815   9.548   3.275   0.969 -0.0473 -0.2134  0.3451
 2594SOL    HW117816   9.544   3.303   1.065 -0.6562 -0.8399  0.5011
 2594SOL    HW217817   9.588   3.349   0.915 -0.5200  0.4893  0.9469
 2595SOL     OW17818   8.387   2.805   2.896 -0.0345  0.3316  0.1938
 2595SOL    HW117819   8.301   2.759   2.874  0.1351 -0.7524  1.7139
 2595SOL    HW217820   8.463   2.752   2.861  0.0404  1.1155 -0.8507
 2596SOL     OW17821   2.449   7.250   0.627  0.0498  0.2420  0.4718
 2596SOL    HW117822   2.428   7.198   0.710  0.5615  0.9970  1.0894
 2596SOL    HW217823   2.484   7.189   0.557 -1.3877 -0.5623  0.4556
 2598SOL     OW17824   8.927   7.526   1.845 -0.0256  0.6251  0.5652
 2598SOL    HW117825   8.991   7.500   1.773  0.1784  2.2831  0.1284
 2598SOL    HW217826   8.835   7.532   1.807 -0.0859  0.4514  0.6829
 2599SOL     OW17827   5.601   4.239   2.119  0.1692 -0.0578  0.6581
 2599SOL    HW117828   5.696   4.255   2.147  1.1281 -0.2372 -2.3388
 2599SOL    HW217829   5.586   4.141   2.107  0.2131  0.1310 -0.9364
 2600SOL     OW17830   0.039   2.875   5.064 -0.0192  0.0193 -0.1796
 2600SOL    HW117831   0.109   2.803   5.056 -0.2448 -0.4442  1.8154
 2600SOL    HW217832   0.064   2.937   5.138 -1.8330 -0.2682  0.6824
 2601SOL     OW17833   7.482   1.565   5.678 -0.1304 -0.2161 -0.5912
 2601SOL    HW117834   7.528   1.624   5.744  0.9401 -1.5358 -0.1422
 2601SOL    HW217835   7.473   1.614   5.591  0.1556  0.8394 -0.0432
 2602SOL     OW17836   9.195   1.973   2.092  1.0954  0.3448  0.2796
 2602SOL    HW117837   9.185   1.992   1.994  0.9461  0.1898  0.2643
 2602SOL    HW217838   9.121   1.913   2.122  0.8868  0.7512  0.5833
 2603SOL     OW17839   2.983   8.069   1.423 -0.3806 -0.4243 -0.0276
 2603SOL    HW117840   2.906   8.027   1.470  0.9555 -1.9687  0.8025
 2603SOL    HW217841   3.005   8.156   1.467 -0.2080 -1.0625  1.1761
 2604SOL     OW17842   6.394   3.154   0.268 -0.2466  0.3938  0.1903
 2604SOL    HW117843   6.435   3.099   0.341 -0.1680 -0.5632 -0.5600
 2604SOL    HW217844   6.320   3.101   0.225 -0.4869  1.0665 -0.2265
 2605SOL     OW17845   2.806   2.073   6.200 -0.0937 -0.1938  0.0908
 2605SOL    HW117846   2.783   2.153   6.145  2.9633  0.2722 -0.6299
 2605SOL    HW217847   2.724   2.019   6.216 -1.6840  1.4970 -1.9614
 2607SOL     OW17848   9.589   3.103   6.903 -1.0270 -0.3681 -0.1017
 2607SOL    HW117849   9.563   3.125   6.997 -0.2970 -0.0036  0.0102
 2607SOL    HW217850   9.677   3.143   6.881 -0.1296 -2.3153 -0.2072
 2608SOL     OW17851   7.042   5.967   6.522 -0.6408  0.9675  0.1570
 2608SOL    HW117852   7.090   6.005   6.443  1.9254  0.2899  1.3370
 2608SOL    HW217853   6.980   6.036   6.560 -2.0771  1.2134 -2.5499
 2609SOL     OW17854   1.485   1.577   7.887 -0.7211  0.1025  0.3708
 2609SOL    HW117855   1.402   1.588   7.943 -1.5269  1.8545 -1.1031
 2609SOL    HW217856   1.464   1.521   7.807  0.0648 -1.1695  1.0320
 2610SOL     OW17857   3.905   9.479   6.437 -0.4475  0.2948 -0.0585
 2610SOL    HW117858   3.888   9.435   6.526  0.2359 -1.2724 -0.6754
 2610SOL    HW217859   3.819   9.487   6.387 -0.8375  1.1943  0.7530
 2613SOL     OW17860   6.756   3.533   1.397 -0.3026 -0.3695  0.2852
 2613SOL    HW117861   6.834   3.596   1.402  0.2621 -1.1074  0.8069
 2613SOL    HW217862   6.786   3.440   1.416 -1.5740 -0.4466  2.0985
 2614SOL     OW17863   3.624   8.710   7.414  0.6859  0.7036  0.2894
 2614SOL    HW117864   3.526   8.711   7.392  0.4435  2.2985  1.4277
 2614SOL    HW217865   3.677   8.716   7.329 -0.1412 -2.8913 -0.5677
 2615SOL     OW17866   0.624   1.474   4.215 -0.3958 -0.0216 -0.2449
 2615SOL    HW117867   0.588   1.418   4.141 -0.8857  0.3730 -0.3059
 2615SOL    HW217868   0.719   1.449   4.232 -0.7150 -1.1208 -0.0293
 2616SOL     OW17869   1.365   6.560   0.619  0.4090 -0.0704  0.7249
 2616SOL    HW117870   1.407   6.497   0.553  0.1216 -0.2344  0.6992
 2616SOL    HW217871   1.285   6.603   0.578  0.0290 -0.4299  1.0882
 2617SOL     OW17872   4.630   3.688   6.282 -0.1638  0.1401  0.8965
 2617SOL    HW117873   4.548   3.693   6.339 -0.0140  0.0207  1.1176
 2617SOL    HW217874   4.614   3.623   6.207 -0.8071  1.1873  0.0903
 2618SOL     OW17875   9.947   3.711   5.822 -0.3028 -0.3667 -0.3726
 2618SOL    HW117876   9.971   3.698   5.726  1.5155 -1.6547  0.2234
 2618SOL    HW217877   9.864   3.660   5.842  0.2145 -1.4554 -0.9026
 2620SOL     OW17878   5.831   7.727   6.374 -0.0301  0.4493  0.4894
 2620SOL    HW117879   5.908   7.667   6.395  2.4448  2.6954 -1.7880
 2620SOL    HW217880   5.799   7.770   6.458  1.5525 -0.1173  1.4001
 2621SOL     OW17881   2.031   8.694   6.095  0.0543  0.0554 -0.3685
 2621SOL    HW117882   2.078   8.636   6.161  1.0016  0.8546 -0.3460
 2621SOL    HW217883   1.986   8.636   6.027  1.8126 -0.7048 -0.9082
 2622SOL     OW17884   9.124   4.559   3.279 -0.0288 -0.0519  0.3197
 2622SOL    HW117885   9.087   4.613   3.204  0.3296  0.8382  0.7823
 2622SOL    HW217886   9.211   4.598   3.308 -0.8355  0.4291  2.1243
 2624SOL     OW17887   9.478   0.252   6.786 -0.2200  0.0550 -0.0251
 2624SOL    HW117888   9.549   0.295   6.841 -0.7037  1.1878 -0.2692
 2624SOL    HW217889   9.471   0.299   6.698 -2.3139  0.9517  0.5902
 2625SOL     OW17890   1.237   6.776   7.807  0.0893 -0.5662  0.4531
 2625SOL    HW117891   1.291   6.857   7.830 -0.8874  0.7332 -1.6872
 2625SOL    HW217892   1.297   6.696   7.803  1.7956  0.7575 -1.3254
 2626SOL     OW17893   1.373   5.720   3.073 -0.4339  0.2720  0.1270
 2626SOL    HW117894   1.286   5.701   3.026  0.4355  0.5496 -1.6335
 2626SOL    HW217895   1.423   5.790   3.022  1.2591 -0.5769  0.6207
 2627SOL     OW17896   4.281   8.705   2.524 -0.0378 -0.1983 -0.5146
 2627SOL    HW117897   4.349   8.777   2.517  1.3442 -1.2633  1.6743
 2627SOL    HW217898   4.198   8.733   2.476  0.6163  2.6611 -0.0358
 2628SOL     OW17899   3.218   0.937   4.925  0.2276 -0.5889  0.1260
 2628SOL    HW117900   3.118   0.937   4.931  0.1702 -2.6531 -0.6158
 2628SOL    HW217901   3.255   0.855   4.969  1.5674 -0.1353 -0.1105
 2629SOL     OW17902   1.293   1.462   7.094  0.1042 -0.4262  0.2815
 2629SOL    HW117903   1.258   1.443   7.002  0.4869 -1.8672  0.4252
 2629SOL    HW217904   1.359   1.537   7.089  0.5245 -0.8444 -0.7021
 2630SOL     OW17905   0.365   1.447   6.656 -0.2234 -0.0281  0.5852
 2630SOL    HW117906   0.290   1.404   6.706 -0.1559  0.3136  0.9845
 2630SOL    HW217907   0.329   1.495   6.576 -0.3188 -0.6718  0.2342
 2631SOL     OW17908   3.438   9.915   4.463  0.2424  0.2872 -0.0922
 2631SOL    HW117909   3.532   9.885   4.479  0.2574 -0.4377 -1.4623
 2631SOL    HW217910   3.376   9.837   4.469  0.0535  0.2757 -1.7647
 2632SOL     OW17911   0.882   9.132   6.874  0.0686  0.2947 -0.0443
 2632SOL    HW117912   0.920   9.181   6.795 -1.7295 -0.5095 -1.4525
 2632SOL    HW217913   0.836   9.197   6.934 -1.4056  0.5326 -1.3781
 2634SOL     OW17914   4.317   8.841   3.418 -0.1081  0.5285  0.2481
 2634SOL    HW117915   4.307   8.746   3.447  0.0001  0.6659  0.7388
 2634SOL    HW217916   4.412   8.859   3.395 -0.0748  0.6032  0.4484
 2635SOL     OW17917   4.413   0.390   5.604  0.1827  0.5273  0.3821
 2635SOL    HW117918   4.365   0.453   5.542  0.1642  0.0636 -0.0782
 2635SOL    HW217919   4.371   0.393   5.694  2.1043  3.5249  1.2535
 2637SOL     OW17920   3.204   6.994   4.179  0.2440  0.2581  0.9012
 2637SOL    HW117921   3.122   7.009   4.234  1.1936  0.2861  2.3221
 2637SOL    HW217922   3.241   7.082   4.149 -0.2442  0.2444  0.2297
 2638SOL     OW17923   4.727   6.360   0.200  0.5142 -0.2201 -0.3918
 2638SOL    HW117924   4.680   6.275   0.226 -0.4083  0.8275  1.4917
 2638SOL    HW217925   4.685   6.397   0.117 -0.6187 -0.3918  0.0996
 2639SOL     OW17926   9.949   4.717   0.826 -0.3174  0.6712 -0.3061
 2639SOL    HW117927   9.866   4.712   0.882 -1.0476 -0.1925 -1.4357
 2639SOL    HW217928   9.945   4.798   0.768 -0.1074  0.9301  0.0374
 2640SOL     OW17929   7.627   9.002   2.681  0.0295  0.2759  0.1538
 2640SOL    HW117930   7.654   9.091   2.644  0.0257  0.4381  0.5338
 2640SOL    HW217931   7.647   8.999   2.779 -0.1987 -0.0509  0.1933
 2641SOL     OW17932   3.156   0.597   5.998 -0.3700 -0.6696  0.1908
 2641SOL    HW117933   3.176   0.597   6.096 -1.2489 -2.0473  0.3918
 2641SOL    HW217934   3.227   0.544   5.951 -0.6250 -1.0589  0.2420
 2643SOL     OW17935   3.039   5.050   1.617 -0.2226  0.2225  0.2002
 2643SOL    HW117936   2.942   5.030   1.600 -0.1141  0.5522 -0.8590
 2643SOL    HW217937   3.089   4.965   1.631 -0.2144 -0.1322 -1.7975
 2644SOL     OW17938   5.286   2.356   6.619 -0.1830  0.1651 -0.2427
 2644SOL    HW117939   5.195   2.379   6.586 -0.5293  0.1712  0.7297
 2644SOL    HW217940   5.284   2.341   6.718  0.9355  0.5015 -0.1617
 2645SOL     OW17941   5.850   2.071   1.755 -0.2773  0.6894 -0.1046
 2645SOL    HW117942   5.761   2.079   1.800 -0.8647  2.1453 -1.4832
 2645SOL    HW217943   5.909   2.012   1.810 -1.7124  0.5998  1.4046
 2646SOL     OW17944   5.183   2.897   0.166 -0.7717 -0.0115  0.3351
 2646SOL    HW117945   5.278   2.928   0.174  0.2765 -1.7604 -3.8646
 2646SOL    HW217946   5.175   2.805   0.204 -0.9093  0.3021  1.0766
 2647SOL     OW17947   2.871   9.538   7.241  0.3727 -0.6196 -0.4088
 2647SOL    HW117948   2.962   9.505   7.216  0.4819 -0.8614  0.2746
 2647SOL    HW217949   2.817   9.461   7.276 -0.0714 -0.4662 -0.7542
 2648SOL     OW17950   5.519   7.470   3.725  0.3065  0.5931  0.7693
 2648SOL    HW117951   5.573   7.401   3.775  1.7625  0.3123 -1.1506
 2648SOL    HW217952   5.504   7.439   3.631 -2.1968  1.2384  0.9125
 2649SOL     OW17953   2.754   9.807   2.476 -0.1180  0.0805 -0.3717
 2649SOL    HW117954   2.795   9.850   2.556  1.3819 -0.0974 -1.0209
 2649SOL    HW217955   2.701   9.875   2.425 -0.7040  0.2958  0.5121
 2650SOL     OW17956   1.714   5.542   5.348  0.2829  0.1421 -0.1839
 2650SOL    HW117957   1.632   5.540   5.404  0.2861  0.0013 -0.1861
 2650SOL    HW217958   1.757   5.452   5.347  0.6875  0.3243  0.1917
 2651SOL     OW17959   3.586   0.409   4.278  0.5238  0.4914 -0.0775
 2651SOL    HW117960   3.554   0.320   4.309 -1.0967  0.3214 -2.1063
 2651SOL    HW217961   3.653   0.397   4.205 -0.0222  0.9024 -0.6589
 2652SOL     OW17962   1.791   5.475   4.467  0.1898  0.0768 -0.3587
 2652SOL    HW117963   1.703   5.509   4.500  0.8699 -0.1252  1.6769
 2652SOL    HW217964   1.858   5.549   4.468  1.1005 -0.7550  1.9876
 2653SOL     OW17965   5.292   9.433   7.947  0.2681 -0.0773  0.1592
 2653SOL    HW117966   5.249   9.464   7.862 -1.4087  1.2121  1.4584
 2653SOL    HW217967   5.257   9.341   7.970 -0.7594  0.3812  0.4672
 2654SOL     OW17968   5.058   8.650   1.076 -0.7577  0.1363  0.3790
 2654SOL    HW117969   5.031   8.672   1.170  0.4096 -0.4335  0.8597
 2654SOL    HW217970   5.011   8.566   1.047 -0.2866 -0.2927  0.8472
 2655SOL     OW17971   9.032   6.109   1.328  0.1407 -0.2086  0.3728
 2655SOL    HW117972   9.053   6.202   1.357  2.0103 -0.4407 -0.2090
 2655SOL    HW217973   8.973   6.065   1.397 -1.3058  1.6007  0.3199
 2656SOL     OW17974   2.398   5.998   0.707  0.5835 -0.5922  0.1754
 2656SOL    HW117975   2.388   6.097   0.696  0.6060 -0.4224  1.4879
 2656SOL    HW217976   2.318   5.952   0.669 -0.6489  0.1157  1.8326
 2657SOL     OW17977   8.098   6.488   6.072  0.1137 -0.0636 -1.0810
 2657SOL    HW117978   8.165   6.540   6.126  0.0512 -0.4817 -0.5975
 2657SOL    HW217979   8.006   6.512   6.102  0.1262 -2.5656  1.1575
 2658SOL     OW17980   8.606   6.030   5.720 -0.4065  0.1734  0.5209
 2658SOL    HW117981   8.528   6.050   5.779  0.4353 -1.3781  2.1911
 2658SOL    HW217982   8.594   5.941   5.677 -1.7252  1.9127 -2.9082
 2659SOL     OW17983   9.045   3.885   7.657  0.2344  0.0146  0.4869
 2659SOL    HW117984   9.023   3.840   7.743 -0.3537 -0.3848  0.1286
 2659SOL    HW217985   8.962   3.897   7.603  0.4101  1.3470  0.4908
 2660SOL     OW17986   8.764   6.336   2.198  0.4087  0.7606 -0.6371
 2660SOL    HW117987   8.747   6.241   2.170  0.0687  0.6395 -0.0261
 2660SOL    HW217988   8.827   6.379   2.133  0.6446  0.0855 -0.8616
 2661SOL     OW17989   1.216   0.114   4.573  0.1491  0.2461  0.4497
 2661SOL    HW117990   1.308   0.077   4.559 -0.9985 -2.8739  0.7958
 2661SOL    HW217991   1.196   0.119   4.671 -1.2024 -2.2275  0.3524
 2662SOL     OW17992   9.018   6.672   2.499  0.1010  0.4403 -0.0180
 2662SOL    HW117993   8.949   6.612   2.541 -0.9082  0.0545 -2.1786
 2662SOL    HW217994   8.982   6.765   2.495  0.1792  0.4664 -0.0880
 2663SOL     OW17995   7.163   8.679   1.552  0.3425 -0.8294 -0.0218
 2663SOL    HW117996   7.202   8.733   1.477  0.0269  1.1579  1.2293
 2663SOL    HW217997   7.212   8.592   1.559  0.2301 -1.1407 -2.6651
 2664SOL     OW17998   5.592   8.564   4.612  0.2142 -0.2550 -0.4713
 2664SOL    HW117999   5.647   8.633   4.660  1.0464 -0.1572 -1.5418
 2664SOL    HW218000   5.645   8.479   4.605  0.8398  0.2970 -2.8169
 2666SOL     OW18001   2.450   3.390   0.137 -0.3247  0.1354  0.0736
 2666SOL    HW118002   2.413   3.449   0.209 -0.8672  2.6510 -2.1974
 2666SOL    HW218003   2.374   3.355   0.081  0.2806  0.3717 -0.9005
 2667SOL     OW18004   1.835   9.830   4.212  0.6405  0.8994 -0.1510
 2667SOL    HW118005   1.784   9.768   4.153  1.8500  2.4600 -2.9198
 2667SOL    HW218006   1.771   9.889   4.261 -0.4519 -1.4862  1.4306
 2668SOL     OW18007   9.677   8.230   3.941  0.0652  0.1248 -0.1164
 2668SOL    HW118008   9.600   8.259   3.998  1.3050 -1.4083  2.4606
 2668SOL    HW218009   9.762   8.242   3.991  1.0917 -2.5755 -1.0857
 2669SOL     OW18010   2.764   7.477   1.136  0.0475  0.1267 -0.2619
 2669SOL    HW118011   2.779   7.568   1.173 -0.0959  0.4925 -1.0976
 2669SOL    HW218012   2.731   7.416   1.209  0.7404  0.5785  0.4351
 2670SOL     OW18013   0.715   5.460   2.609 -0.4438 -0.1007  0.0933
 2670SOL    HW118014   0.687   5.527   2.678 -0.6799  0.6814 -0.7586
 2670SOL    HW218015   0.655   5.466   2.530 -0.3798 -1.2366 -0.0517
 2672SOL     OW18016   1.747   6.237   1.497  0.4927 -0.2957 -0.2875
 2672SOL    HW118017   1.787   6.165   1.441  1.2187  0.1803 -0.3991
 2672SOL    HW218018   1.820   6.279   1.552  0.0344  0.1989 -0.0597
 2673SOL     OW18019   2.026   0.287   0.663  0.0705 -0.6554  0.1314
 2673SOL    HW118020   1.928   0.287   0.680  0.1716 -1.5318  0.7385
 2673SOL    HW218021   2.055   0.377   0.632 -1.1829 -0.7989 -1.5397
 2674SOL     OW18022   0.553   6.663   3.321 -0.1126  0.2180 -0.9495
 2674SOL    HW118023   0.617   6.633   3.249 -0.5290 -1.4689 -0.6273
 2674SOL    HW218024   0.605   6.692   3.401  0.3467  1.8370 -1.7950
 2675SOL     OW18025   7.375   5.073   7.329 -0.2700 -0.1322  0.2012
 2675SOL    HW118026   7.400   5.169   7.345 -1.3846  0.2229 -0.1114
 2675SOL    HW218027   7.317   5.041   7.403 -1.2231 -0.0601 -0.4951
 2676SOL     OW18028   3.753   0.878   5.330 -0.1299  0.2993 -0.4049
 2676SOL    HW118029   3.703   0.925   5.403 -0.7200 -0.5009 -0.2764
 2676SOL    HW218030   3.837   0.839   5.367 -0.5241 -0.2708 -0.0973
 2678SOL     OW18031   1.527   6.114   5.412  0.3861 -0.1181  0.1324
 2678SOL    HW118032   1.595   6.116   5.485  0.8004 -1.5738 -0.1873
 2678SOL    HW218033   1.571   6.088   5.326 -0.0278  1.9731 -0.7353
 2679SOL     OW18034   0.126   4.684   3.388 -0.1995 -0.3868 -0.1060
 2679SOL    HW118035   0.213   4.636   3.375  0.1942  0.2688  0.0988
 2679SOL    HW218036   0.084   4.701   3.299  0.2056 -0.1075 -0.2434
 2680SOL     OW18037   8.756   8.976   1.447  0.4403  0.0489 -0.2109
 2680SOL    HW118038   8.711   8.889   1.470  2.0165 -1.1329 -1.4125
 2680SOL    HW218039   8.853   8.958   1.427  1.2317  2.3749  1.3755
 2682SOL     OW18040   5.490   0.094   1.800 -0.1698  0.1221  0.1205
 2682SOL    HW118041   5.585   0.069   1.813  0.7190  2.2874 -1.8453
 2682SOL    HW218042   5.449   0.121   1.887  1.9394  2.2231  0.4882
 2683SOL     OW18043   8.480   0.278   5.127 -0.1264  0.7398 -0.4589
 2683SOL    HW118044   8.518   0.240   5.043 -0.6972  0.3858 -0.5617
 2683SOL    HW218045   8.522   0.367   5.145  1.1139  0.1261 -0.2922
 2684SOL     OW18046   8.564   2.697   0.223 -0.5364  0.4633  0.2679
 2684SOL    HW118047   8.610   2.660   0.304 -0.4988  2.2191  1.0971
 2684SOL    HW218048   8.632   2.719   0.153 -0.5333 -0.7432 -0.1038
 2685SOL     OW18049   8.309   1.264   7.379  0.2883 -0.7369  0.4995
 2685SOL    HW118050   8.333   1.338   7.316 -0.7303 -0.5542  0.3194
 2685SOL    HW218051   8.210   1.253   7.381  0.4167 -1.9792  0.6617
 2687SOL     OW18052   2.945   9.488   1.397  0.3274 -0.0895  0.1510
 2687SOL    HW118053   2.926   9.449   1.306 -0.9721  1.1910 -0.1400
 2687SOL    HW218054   2.866   9.540   1.428  1.9519  2.1249  0.6614
 2688SOL     OW18055   4.419   4.731   5.073  0.0424 -0.1357  0.0413
 2688SOL    HW118056   4.358   4.782   5.012  1.0394  0.2569 -0.6650
 2688SOL    HW218057   4.396   4.634   5.071 -0.5950  0.0211 -0.1710
 2689SOL     OW18058   0.228   0.717   4.193  0.2986  0.5683  0.0258
 2689SOL    HW118059   0.218   0.620   4.212  0.9528  0.3131 -0.9452
 2689SOL    HW218060   0.299   0.755   4.252  0.9953  0.1761 -0.5674
 2690SOL     OW18061   7.426   0.517   7.344  0.4723 -0.3479 -0.3915
 2690SOL    HW118062   7.334   0.483   7.323  0.5025  0.0137 -1.1343
 2690SOL    HW218063   7.428   0.616   7.330  0.4647 -0.0605  1.4612
 2691SOL     OW18064   2.945   6.209   0.780 -0.7379 -0.3413 -0.2391
 2691SOL    HW118065   2.975   6.305   0.774  2.2795 -1.0462  2.5530
 2691SOL    HW218066   3.000   6.154   0.717 -0.3076 -0.6948  0.4405
 2692SOL     OW18067   2.326   2.788   4.529  0.4139 -0.4987 -0.3056
 2692SOL    HW118068   2.336   2.851   4.452  1.9127  2.0855  1.9491
 2692SOL    HW218069   2.335   2.838   4.615  0.0281 -3.5424  1.5676
 2694SOL     OW18070   7.685   5.792   7.093  0.1279  0.7791  0.0819
 2694SOL    HW118071   7.717   5.698   7.096  0.1449  0.7651 -0.4553
 2694SOL    HW218072   7.606   5.798   7.031  0.3911  1.1923 -0.2193
 2695SOL     OW18073   6.475   4.573   0.387 -0.1568 -0.1444 -0.7040
 2695SOL    HW118074   6.423   4.658   0.394 -1.0124 -0.3909 -3.3548
 2695SOL    HW218075   6.421   4.504   0.339  1.3085 -1.5315 -0.4341
 2696SOL     OW18076   3.420   8.913   2.406  0.0222  0.1826 -0.2134
 2696SOL    HW118077   3.365   8.865   2.338 -0.3026  0.8265 -0.3999
 2696SOL    HW218078   3.360   8.956   2.473  0.2890  1.2707 -0.6756
 2697SOL     OW18079   5.792   7.667   3.598 -0.7326  0.0428  0.1999
 2697SOL    HW118080   5.869   7.607   3.618 -1.2679 -0.6040  0.3608
 2697SOL    HW218081   5.723   7.616   3.546 -1.3942  0.3771  0.7274
 2699SOL     OW18082   5.781   0.554   3.951  0.1242  0.4168  0.6689
 2699SOL    HW118083   5.772   0.481   3.883  0.7106 -0.7020  1.7692
 2699SOL    HW218084   5.701   0.613   3.948 -0.4241 -0.3597 -0.1403
 2700SOL     OW18085   8.096   4.959   3.731  0.1708  0.3370 -0.2277
 2700SOL    HW118086   8.135   5.051   3.739  1.4107 -0.1794 -0.2528
 2700SOL    HW218087   8.073   4.925   3.821 -0.6916  0.8349 -0.2517
 2701SOL     OW18088   3.858   7.791   0.976 -0.2231 -0.2141  0.2004
 2701SOL    HW118089   3.921   7.736   1.029  2.3570  0.1677 -2.3703
 2701SOL    HW218090   3.899   7.880   0.957 -1.7579  0.2546 -1.0250
 2702SOL     OW18091   6.232   9.400   7.219 -0.7024  0.2426  0.0502
 2702SOL    HW118092   6.200   9.473   7.280 -1.5535  0.2288 -0.3713
 2702SOL    HW218093   6.161   9.330   7.210  0.3009 -0.8920  0.8342
 2703SOL     OW18094   1.860   5.823   2.026 -0.3975  0.0736 -0.1543
 2703SOL    HW118095   1.850   5.922   2.032  0.4996  0.2172 -0.9381
 2703SOL    HW218096   1.956   5.800   2.010 -0.7888 -0.8503 -1.2633
 2704SOL     OW18097   0.840   1.992   1.171 -0.2416 -0.3865  0.1842
 2704SOL    HW118098   0.820   1.994   1.074 -3.5153 -0.2840  0.8062
 2704SOL    HW218099   0.804   2.074   1.215 -1.9249 -2.0047  1.9793
 2705SOL     OW18100   1.988   3.094   4.644 -0.2402  0.4942 -0.2763
 2705SOL    HW118101   1.958   3.000   4.654 -0.3832  0.6951  1.3311
 2705SOL    HW218102   1.918   3.156   4.680  1.7453  0.9977  2.9068
 2706SOL     OW18103   7.995   1.495   4.728 -0.6171 -0.3916 -0.2240
 2706SOL    HW118104   8.031   1.459   4.642 -1.8391 -1.2273 -0.3994
 2706SOL    HW218105   8.036   1.445   4.805  0.6526  0.5127 -0.2824
 2707SOL     OW18106   9.708   0.426   7.220  0.2990 -0.0642 -0.0248
 2707SOL    HW118107   9.745   0.515   7.192 -0.1633  0.4029  0.8058
 2707SOL    HW218108   9.782   0.368   7.253  0.6180 -0.0184 -0.6592
 2708SOL     OW18109   9.853   8.643   5.314 -0.0309 -0.1843  0.2950
 2708SOL    HW118110   9.839   8.658   5.217 -1.2458  0.5098  0.5731
 2708SOL    HW218111   9.924   8.706   5.348  0.3627 -0.4008 -0.1288
 2709SOL     OW18112   2.319   0.144   5.263 -0.5305  0.2073  0.2367
 2709SOL    HW118113   2.274   0.084   5.330 -0.7383 -0.9141 -0.8797
 2709SOL    HW218114   2.254   0.167   5.190 -0.0646  0.7460 -0.0117
 2710SOL     OW18115   0.221   9.677   4.507 -0.0228  0.0072  0.2164
 2710SOL    HW118116   0.232   9.773   4.534  1.0519  0.0388 -0.3115
 2710SOL    HW218117   0.305   9.626   4.528 -0.7502 -0.9254  0.9143
 2711SOL     OW18118   4.050   8.502   2.205 -0.5470  0.6702 -0.1375
 2711SOL    HW118119   4.020   8.414   2.241 -0.4148  1.2495  1.4046
 2711SOL    HW218120   3.990   8.529   2.129 -1.0370 -0.3911 -0.1319
 2712SOL     OW18121   9.663   0.413   6.902 -0.3688 -0.4507 -0.3158
 2712SOL    HW118122   9.676   0.490   6.840 -1.8129 -1.8926 -2.4639
 2712SOL    HW218123   9.626   0.446   6.989 -1.2779  1.2344 -1.3214
 2713SOL     OW18124   2.420   5.221   5.443 -0.1132 -0.5654  0.5294
 2713SOL    HW118125   2.481   5.287   5.489 -0.7538 -1.1631  2.2730
 2713SOL    HW218126   2.354   5.186   5.509 -1.2458 -1.2315 -0.9510
 2715SOL     OW18127   3.236   1.032   6.162 -0.3851  0.0159 -0.0089
 2715SOL    HW118128   3.312   0.978   6.199  0.5521  1.3983  0.1008
 2715SOL    HW218129   3.184   1.072   6.237  0.9488  2.0390 -0.1352
 2716SOL     OW18130   7.280   1.650   3.937  0.8119 -0.4179  0.1842
 2716SOL    HW118131   7.291   1.623   4.033  2.6677 -2.4018 -0.5442
 2716SOL    HW218132   7.242   1.742   3.933  3.9634  1.1007  2.8846
 2717SOL     OW18133   7.837   7.577   4.787 -0.0024  0.6626 -0.2013
 2717SOL    HW118134   7.824   7.655   4.848  0.9549  1.0595 -0.4941
 2717SOL    HW218135   7.775   7.504   4.813  0.1925  0.9381  1.0630
 2719SOL     OW18136   0.417   2.186   7.486 -0.1548 -0.0117 -0.2046
 2719SOL    HW118137   0.406   2.137   7.573  0.5467  0.8076  0.3472
 2719SOL    HW218138   0.512   2.183   7.458 -0.6673 -1.7994 -1.8679
 2721SOL     OW18139   2.583   6.628   2.606  0.0557 -0.5773 -0.1105
 2721SOL    HW118140   2.533   6.557   2.557  1.5386 -1.0864 -0.9059
 2721SOL    HW218141   2.665   6.653   2.555 -0.7517  2.1617 -0.1671
 2722SOL     OW18142   3.377   8.577   1.166  0.8129  0.6283  0.1233
 2722SOL    HW118143   3.439   8.499   1.157  0.0175  0.1916 -1.8613
 2722SOL    HW218144   3.321   8.585   1.084  0.2163  2.7339  0.6915
 2723SOL     OW18145   6.127   9.561   7.446  1.0343  0.1364  0.8410
 2723SOL    HW118146   6.125   9.539   7.544  2.1650 -0.9264  0.6338
 2723SOL    HW218147   6.176   9.647   7.432 -1.1633  1.5250  1.4120
 2726SOL     OW18148   4.012   3.806   7.930  0.4731 -0.1422  0.7254
 2726SOL    HW118149   4.111   3.788   7.927  0.3137 -1.2802  1.9134
 2726SOL    HW218150   3.969   3.745   7.996 -1.5661 -2.0427 -2.2142
 2729SOL     OW18151   2.631   6.925   0.957  0.4967  0.1268 -0.3262
 2729SOL    HW118152   2.610   6.985   1.034  0.6259  0.1019 -0.2727
 2729SOL    HW218153   2.588   6.836   0.971 -2.7313  1.3104 -2.0722
 2730SOL     OW18154   0.217   4.424   5.131 -0.2215  0.0114  0.2055
 2730SOL    HW118155   0.146   4.355   5.122 -0.8757  0.7373 -0.3184
 2730SOL    HW218156   0.197   4.481   5.211  0.3816 -0.4873  0.7081
 2732SOL     OW18157   7.677   6.781   3.864 -0.1776  0.3107  0.5963
 2732SOL    HW118158   7.641   6.739   3.781  0.2372  1.5609 -0.2144
 2732SOL    HW218159   7.727   6.712   3.917 -0.2211 -0.4170 -0.3002
 2733SOL     OW18160   3.388   8.533   2.041  0.6276  0.0041 -0.3374
 2733SOL    HW118161   3.460   8.547   2.109  1.0086  0.1191 -0.7604
 2733SOL    HW218162   3.299   8.530   2.086  0.6894  2.0806 -0.0359
 2734SOL     OW18163   9.056   9.610   4.094 -0.3213 -0.1845  0.2926
 2734SOL    HW118164   9.060   9.602   4.193  0.0244 -1.0190  0.2235
 2734SOL    HW218165   8.999   9.687   4.068 -2.1882 -1.2610  1.1176
 2735SOL     OW18166   6.400   8.884   5.567  0.1105  0.4590 -0.0632
 2735SOL    HW118167   6.404   8.933   5.654  2.1426 -0.3045  0.3013
 2735SOL    HW218168   6.379   8.949   5.494 -0.5389  1.2985  0.8466
 2737SOL     OW18169   3.166   7.506   2.733 -0.0446 -0.1867  0.4821
 2737SOL    HW118170   3.125   7.515   2.823  1.7052  0.5013  1.2328
 2737SOL    HW218171   3.109   7.554   2.666 -1.0497 -0.2196  1.2931
 2738SOL     OW18172   2.790   0.112   0.835  0.2119 -0.0331 -0.7473
 2738SOL    HW118173   2.778   0.122   0.737 -5.0391  1.9686 -0.0606
 2738SOL    HW218174   2.715   0.058   0.873  0.9791  0.9988  2.4280
 2739SOL     OW18175   6.592   0.091   7.824 -0.0665  0.1689  0.1145
 2739SOL    HW118176   6.519   0.056   7.883 -0.2388  0.8732  0.3229
 2739SOL    HW218177   6.584   0.050   7.733 -2.0230  1.8535 -0.5043
 2740SOL     OW18178   6.924   1.528   5.654 -0.1075 -0.1279  0.1865
 2740SOL    HW118179   6.906   1.435   5.623 -2.1107  1.1151 -2.7199
 2740SOL    HW218180   7.014   1.557   5.624 -0.0631 -0.6432 -0.1796
 2742SOL     OW18181   0.964   1.538   5.694  0.2545 -0.0712 -0.3833
 2742SOL    HW118182   1.057   1.523   5.728  1.1438  1.3709 -2.0627
 2742SOL    HW218183   0.927   1.452   5.658  0.1691 -1.0852  2.0303
 2744SOL     OW18184   4.362   3.851   0.320 -0.7273  0.1380  0.2676
 2744SOL    HW118185   4.363   3.812   0.412 -0.2194  2.4107  1.2694
 2744SOL    HW218186   4.401   3.943   0.323  1.4944 -0.6163 -2.6357
 2745SOL     OW18187   1.544   1.063   0.272 -0.4456 -0.7516  0.0118
 2745SOL    HW118188   1.643   1.070   0.265 -0.4141 -1.4029 -0.2266
 2745SOL    HW218189   1.503   1.084   0.182 -0.5182 -0.6357  0.0712
 2746SOL     OW18190   2.603   7.698   7.160 -0.0992  0.9655 -0.2247
 2746SOL    HW118191   2.665   7.626   7.193 -0.6345  0.1727 -0.9409
 2746SOL    HW218192   2.564   7.747   7.239  2.8071  2.6783  0.2389
 2747SOL     OW18193   8.951   3.481   2.395 -0.2892 -0.4712  0.1649
 2747SOL    HW118194   9.029   3.542   2.380  0.5381 -1.3564  0.8189
 2747SOL    HW218195   8.934   3.429   2.312  1.1559 -1.7799  0.6525
 2750SOL     OW18196   2.840   4.279   1.430  0.0570 -0.2757 -0.1062
 2750SOL    HW118197   2.800   4.188   1.422  0.6423 -0.5038 -0.4775
 2750SOL    HW218198   2.893   4.285   1.514  0.0356 -0.2840 -0.0921
 2751SOL     OW18199   8.275   8.257   6.189  0.2356 -0.0249  0.4620
 2751SOL    HW118200   8.319   8.268   6.100  0.8911  0.9068  0.9009
 2751SOL    HW218201   8.267   8.159   6.210 -2.1600 -0.3526 -1.7076
 2752SOL     OW18202   8.032   6.236   3.147 -0.2021  0.2406 -0.4889
 2752SOL    HW118203   8.020   6.187   3.060  0.1240  0.2579 -0.5437
 2752SOL    HW218204   7.973   6.195   3.216 -0.5829  0.3286 -0.7586
 2753SOL     OW18205   9.068   3.912   6.426 -0.3023  0.3929 -0.7514
 2753SOL    HW118206   9.118   3.941   6.508 -0.9403 -1.0435  0.1612
 2753SOL    HW218207   9.119   3.941   6.345  0.5764  1.4265  0.1419
 2754SOL     OW18208   3.382   5.036   6.957 -0.2752 -0.7289  0.4661
 2754SOL    HW118209   3.305   5.080   7.002  0.6335 -1.5358  2.8818
 2754SOL    HW218210   3.389   4.940   6.987  0.5792 -1.1834 -1.1059
 2755SOL     OW18211   3.257   0.642   0.705 -0.3230 -0.6798  0.1146
 2755SOL    HW118212   3.304   0.587   0.773 -1.4590 -0.8602  0.7760
 2755SOL    HW218213   3.212   0.582   0.639 -2.7507 -0.6513  1.6407
 2759SOL     OW18214   9.348   5.716   0.307 -0.0801 -0.0363  0.3641
 2759SOL    HW118215   9.405   5.637   0.329  1.4051  1.5720  2.6229
 2759SOL    HW218216   9.380   5.757   0.222  1.2546 -0.0228  0.8453
 2760SOL     OW18217   8.826   2.466   4.202  0.4562 -0.1650 -0.0274
 2760SOL    HW118218   8.902   2.402   4.198 -0.3616 -1.2360  1.1115
 2760SOL    HW218219   8.758   2.442   4.132 -1.0314 -2.1281  2.0190
 2761SOL     OW18220   6.327   1.842   5.982 -0.7307 -0.0283  0.5026
 2761SOL    HW118221   6.303   1.916   5.919  1.6907 -0.0417 -0.4957
 2761SOL    HW218222   6.411   1.798   5.951 -0.4371 -1.1729  2.8132
 2762SOL     OW18223   4.275   7.342   4.105 -0.5234  0.2330  0.2809
 2762SOL    HW118224   4.344   7.295   4.050  0.1894  2.1057 -0.4479
 2762SOL    HW218225   4.306   7.346   4.200 -0.6811 -0.9172  0.3907
 2763SOL     OW18226   9.422   3.928   1.096  0.2636 -0.9942  0.7029
 2763SOL    HW118227   9.334   3.941   1.140 -0.5660  0.7187 -1.3808
 2763SOL    HW218228   9.469   4.016   1.088 -0.4352 -0.9115 -3.4650
 2764SOL     OW18229   0.547   7.007   3.401 -0.1346  0.0525  0.0937
 2764SOL    HW118230   0.520   7.103   3.412 -0.1279  0.0051  0.4964
 2764SOL    HW218231   0.479   6.960   3.344 -0.1422  0.2918 -0.0978
 2765SOL     OW18232   9.381   8.933   4.057  0.2743  0.3254  0.8388
 2765SOL    HW118233   9.313   8.863   4.033  1.5817 -0.6143 -0.1696
 2765SOL    HW218234   9.414   8.916   4.150 -1.8425  1.5971  1.8689
 2766SOL     OW18235   6.731   2.593   3.898 -0.4414 -0.0544 -0.0775
 2766SOL    HW118236   6.786   2.533   3.955 -0.4971  1.0359  1.1430
 2766SOL    HW218237   6.790   2.638   3.830 -0.4497 -1.6834 -1.1922
 2767SOL     OW18238   2.881   0.624   7.921 -0.0976 -0.4224 -0.3209
 2767SOL    HW118239   2.850   0.570   8.000  0.6309 -1.7496 -0.9243
 2767SOL    HW218240   2.931   0.704   7.953 -0.9015 -0.2650  0.5841
 2768SOL     OW18241   9.042   8.127   7.440 -0.2300  0.0274 -0.4137
 2768SOL    HW118242   8.962   8.164   7.486  0.1455  0.0615  0.2169
 2768SOL    HW218243   9.123   8.180   7.466  0.2053 -0.8260 -0.0174
 2769SOL     OW18244   8.795   2.610   7.384  0.7730 -0.1889  0.2862
 2769SOL    HW118245   8.829   2.522   7.416  1.4477  0.2970  0.9115
 2769SOL    HW218246   8.870   2.676   7.380  0.0181  0.7638  1.2408
 2770SOL     OW18247   0.544   5.090   4.534  0.3243 -0.1648 -0.1243
 2770SOL    HW118248   0.565   5.004   4.582 -0.2526 -0.8389 -1.0661
 2770SOL    HW218249   0.555   5.166   4.597  0.2367 -0.9860  0.9020
 2771SOL     OW18250   2.219   0.009   6.931 -0.0710 -0.2120  0.3324
 2771SOL    HW118251   2.226  -0.030   6.839  0.2086 -0.0793  0.2965
 2771SOL    HW218252   2.248   0.105   6.929  0.9875 -0.5056  0.7613
 2773SOL     OW18253   3.651   4.831   7.343 -0.1796 -0.3039 -0.2640
 2773SOL    HW118254   3.701   4.867   7.264  0.0553 -1.5160 -0.6819
 2773SOL    HW218255   3.712   4.825   7.422 -0.7796  2.3115  0.4634
 2774SOL     OW18256   8.829   0.288   4.946 -0.0681 -0.5349  1.0038
 2774SOL    HW118257   8.885   0.359   4.903  0.1727 -1.4097 -0.1410
 2774SOL    HW218258   8.758   0.258   4.883  1.0716 -2.7161  0.6840
 2777SOL     OW18259   3.495   9.507   4.073 -0.6234  0.1932  0.6318
 2777SOL    HW118260   3.426   9.441   4.046  0.6116 -0.8848  0.0501
 2777SOL    HW218261   3.528   9.556   3.992 -1.0690  1.0855  0.9755
 2778SOL     OW18262   6.410   7.717   5.634 -0.6613  0.0216 -0.7445
 2778SOL    HW118263   6.492   7.680   5.677 -1.7501 -0.4587  0.9604
 2778SOL    HW218264   6.348   7.642   5.612 -1.2813  0.5180 -0.6804
 2781SOL     OW18265   0.087   3.738   6.965 -0.2639  0.2523  0.5106
 2781SOL    HW118266   0.139   3.721   6.881 -0.8444  0.5430  0.0957
 2781SOL    HW218267   0.139   3.801   7.024  0.1786 -0.0159  0.4083
 2782SOL     OW18268   0.370   8.906   3.989 -0.9683 -0.3023 -0.2048
 2782SOL    HW118269   0.319   8.971   3.933  1.2193  1.4126 -0.2486
 2782SOL    HW218270   0.432   8.853   3.932  0.3365  0.5592  0.3820
 2783SOL     OW18271   0.279   3.041   6.867 -0.4071 -0.0269  0.1191
 2783SOL    HW118272   0.227   2.956   6.869 -0.4732  0.0299  1.0285
 2783SOL    HW218273   0.356   3.034   6.931  1.8027 -0.8038 -2.5545
 2784SOL     OW18274   0.576   6.872   6.908 -0.3081 -0.4783  0.9401
 2784SOL    HW118275   0.491   6.922   6.896 -0.1893 -0.5052 -0.0620
 2784SOL    HW218276   0.646   6.934   6.946  0.2484  0.5370 -1.6295
 2785SOL     OW18277   7.931   2.891   1.162  0.2307 -0.1807 -0.0793
 2785SOL    HW118278   7.945   2.963   1.093  0.1301 -0.1697 -0.0883
 2785SOL    HW218279   7.986   2.811   1.138  0.2792 -0.1371 -0.1144
 2786SOL     OW18280   3.422   1.101   7.800  0.4900 -0.2582 -1.0342
 2786SOL    HW118281   3.397   1.145   7.887 -1.9241 -1.5102 -1.0328
 2786SOL    HW218282   3.436   1.171   7.730  2.3194  0.7599  0.3129
 2787SOL     OW18283   8.232   8.362   0.509 -0.3181  0.1839 -0.2694
 2787SOL    HW118284   8.313   8.420   0.512  0.9349 -1.5824  1.5155
 2787SOL    HW218285   8.240   8.297   0.434  0.9603 -1.4031  1.2080
 2788SOL     OW18286   2.030   5.929   0.898 -0.0606  0.3026 -0.4747
 2788SOL    HW118287   2.050   5.841   0.941  0.3743 -0.0625 -1.4011
 2788SOL    HW218288   1.932   5.946   0.901 -0.2785 -0.7474 -1.2914
 2789SOL     OW18289   4.294   5.863   2.722 -0.3660 -0.0161 -0.3204
 2789SOL    HW118290   4.283   5.790   2.789 -1.1679  0.0542 -0.3768
 2789SOL    HW218291   4.207   5.879   2.675  0.2759 -0.2993 -1.6205
 2790SOL     OW18292   7.303   6.103   3.199 -0.2586 -0.3592 -0.3667
 2790SOL    HW118293   7.354   6.043   3.261  0.2096 -0.4992 -0.8886
 2790SOL    HW218294   7.297   6.060   3.109  0.2786  0.4921 -0.8111
 2791SOL     OW18295   5.156   0.960   7.205  0.0239  0.3269  0.1213
 2791SOL    HW118296   5.155   1.060   7.212 -1.2127  0.3627 -0.5558
 2791SOL    HW218297   5.158   0.920   7.297  1.5817  0.9707  0.3832
 2792SOL     OW18298   3.790   8.639   1.597  0.1731 -0.0244  0.4289
 2792SOL    HW118299   3.801   8.559   1.655  1.5105 -1.9582 -2.3892
 2792SOL    HW218300   3.694   8.645   1.567 -0.3988  0.6748  2.3206
 2793SOL     OW18301   1.960   1.239   0.066 -0.3069 -0.3563 -0.0213
 2793SOL    HW118302   2.018   1.176   0.015  0.4072 -1.1901  1.8058
 2793SOL    HW218303   1.911   1.298   0.001  1.0390 -0.9788 -1.6457
 2794SOL     OW18304   1.890   7.977   7.692  0.0861 -0.2608 -0.3925
 2794SOL    HW118305   1.968   8.038   7.704 -1.3338  1.5178  0.0116
 2794SOL    HW218306   1.807   8.023   7.722 -1.1775 -2.0134 -1.1209
 2795SOL     OW18307   4.783   5.444   3.095 -0.1166  0.3646  0.2116
 2795SOL    HW118308   4.686   5.442   3.122  0.0121 -2.8581  0.7014
 2795SOL    HW218309   4.790   5.455   2.996 -1.1337 -1.8905 -0.1593
 2796SOL     OW18310   5.376   9.346   1.228  0.2036 -0.1747  0.1789
 2796SOL    HW118311   5.472   9.323   1.216  0.5077  1.4622 -0.6965
 2796SOL    HW218312   5.320   9.297   1.161  0.4737 -0.7766  0.3946
 2797SOL     OW18313   2.021   8.691   3.995  0.3319  0.3184  0.1937
 2797SOL    HW118314   2.105   8.740   4.017 -0.8413  2.5199 -0.0402
 2797SOL    HW218315   2.039   8.593   3.991  2.2769  0.5090  2.9253
 2798SOL     OW18316   5.523   9.531   7.576  0.1825 -0.0752 -0.0350
 2798SOL    HW118317   5.513   9.511   7.674  0.4211  0.9389  0.2118
 2798SOL    HW218318   5.439   9.574   7.543  0.2250 -0.1166 -0.1930
 2799SOL     OW18319   4.827   9.205   6.140  0.1971 -0.0764 -0.0446
 2799SOL    HW118320   4.817   9.148   6.058 -0.2029  0.2330 -0.2116
 2799SOL    HW218321   4.832   9.301   6.113 -2.5100  0.2362  0.4531
 2800SOL     OW18322   1.428   2.451   0.412  0.3136 -0.0726 -0.2102
 2800SOL    HW118323   1.526   2.455   0.432  0.4888  1.7070 -1.3307
 2800SOL    HW218324   1.377   2.448   0.498  1.2829  0.9393  0.4097
 2801SOL     OW18325   2.905   5.979   0.914  0.6446  0.4876  0.0828
 2801SOL    HW118326   2.900   6.075   0.889  0.1403  0.7134  1.0275
 2801SOL    HW218327   2.895   5.922   0.831 -2.6454  1.1805 -0.0846
 2803SOL     OW18328   9.368   5.798   3.400  0.1235  0.3617 -0.0429
 2803SOL    HW118329   9.392   5.702   3.388 -0.0891  0.5082 -1.7829
 2803SOL    HW218330   9.278   5.805   3.444  0.2012 -0.2287  0.2060
 2804SOL     OW18331   1.742   4.550   1.300  0.1606  0.3167 -0.6156
 2804SOL    HW118332   1.738   4.578   1.204  0.0702 -0.4214 -0.8311
 2804SOL    HW218333   1.811   4.604   1.347 -1.0170  1.8990 -0.6785
 2805SOL     OW18334   1.527   4.742   3.202  0.9973  0.2358 -0.3864
 2805SOL    HW118335   1.503   4.648   3.226  2.3804 -0.0261  0.0240
 2805SOL    HW218336   1.450   4.803   3.222  0.6517 -0.5820  0.8001
 2806SOL     OW18337   8.089   8.939   6.484 -0.3270  0.0080 -0.8659
 2806SOL    HW118338   8.132   8.916   6.571  1.6471  1.6240 -1.3847
 2806SOL    HW218339   7.994   8.968   6.500  0.2816  1.1184  0.8435
 2807SOL     OW18340   3.923   8.313   0.111  0.3555  0.2121 -0.3825
 2807SOL    HW118341   3.935   8.304   0.012  0.0694 -0.8656 -0.3242
 2807SOL    HW218342   3.825   8.315   0.133  0.4105 -0.6607 -0.0339
 2808SOL     OW18343   6.782   5.930   1.947  0.4878 -0.1218  0.4033
 2808SOL    HW118344   6.837   6.010   1.970  0.8768 -0.0409 -0.7574
 2808SOL    HW218345   6.809   5.896   1.856 -1.0519 -0.3628  0.0163
 2809SOL     OW18346   0.926   6.731   3.464 -0.1128  0.2683 -0.4420
 2809SOL    HW118347   0.941   6.799   3.392 -2.9893  1.6214  0.1694
 2809SOL    HW218348   0.994   6.659   3.456  0.9685  1.5174 -3.1649
 2810SOL     OW18349   9.385   6.597   7.137  0.5270 -0.5438  0.2020
 2810SOL    HW118350   9.418   6.534   7.208  1.8394  1.0489  1.0481
 2810SOL    HW218351   9.307   6.649   7.171  0.7717 -0.2137  0.2612
 2811SOL     OW18352   1.297   2.170   6.214  0.2340  0.1191 -0.0153
 2811SOL    HW118353   1.319   2.265   6.191 -0.7833 -0.3328 -3.1355
 2811SOL    HW218354   1.325   2.110   6.138  0.7286 -2.0686  1.8397
 2812SOL     OW18355   1.485   7.171   1.730  0.3121 -0.1703  0.2725
 2812SOL    HW118356   1.578   7.173   1.694  0.6609  1.6384  1.2290
 2812SOL    HW218357   1.486   7.133   1.823  0.0988 -0.1541  0.2812
 2813SOL     OW18358   7.224   2.944   1.286  0.1192  0.2348 -0.6423
 2813SOL    HW118359   7.296   3.003   1.251  1.8785 -1.5543 -0.1489
 2813SOL    HW218360   7.174   2.904   1.209  0.8615  0.0425 -1.0240
 2814SOL     OW18361   4.549   3.702   2.270  0.4474  0.4094  0.7097
 2814SOL    HW118362   4.486   3.758   2.217  2.0856  0.1935 -1.5308
 2814SOL    HW218363   4.623   3.669   2.211  1.9722 -0.3909  2.9831
 2815SOL     OW18364   3.088   9.395   2.940  0.3381 -0.0574 -0.9979
 2815SOL    HW118365   3.150   9.410   3.017  0.7804 -0.7812 -1.2133
 2815SOL    HW218366   3.090   9.474   2.879  1.3604 -0.2715 -1.2324
 2816SOL     OW18367   3.538   2.327   0.382  0.5965  0.0700 -0.6040
 2816SOL    HW118368   3.472   2.358   0.450  2.2946  1.7791  0.3256
 2816SOL    HW218369   3.566   2.233   0.402 -2.1964 -1.0365 -1.5696
 2817SOL     OW18370   4.823   0.222   1.343 -0.3017  0.0091  0.4368
 2817SOL    HW118371   4.873   0.160   1.282 -0.7700 -0.3897  0.4476
 2817SOL    HW218372   4.774   0.168   1.412  0.9311  0.5116  1.7199
 2818SOL     OW18373   8.471   8.241   6.383 -0.3787 -0.1382  0.2104
 2818SOL    HW118374   8.404   8.258   6.311  1.9457  0.4541 -1.8813
 2818SOL    HW218375   8.499   8.145   6.381 -0.3324 -0.1278  0.3526
 2819SOL     OW18376   1.931   3.967   1.927  0.0117  0.7330  0.0456
 2819SOL    HW118377   1.986   3.886   1.949  0.9751  1.1353 -0.8748
 2819SOL    HW218378   1.883   3.998   2.009  1.7188  0.8070  1.0319
 2820SOL     OW18379   7.346   8.981   6.272  0.0799 -0.4830  0.1507
 2820SOL    HW118380   7.382   9.032   6.350  0.7717 -0.3092 -0.2760
 2820SOL    HW218381   7.394   8.893   6.264 -0.4630 -0.7935  0.3319
 2821SOL     OW18382   1.177   4.071   5.547  0.0012 -0.1189 -0.3494
 2821SOL    HW118383   1.118   4.090   5.468 -0.9142  1.6785  0.7322
 2821SOL    HW218384   1.189   4.155   5.600  0.3992 -1.3703  1.5690
 2822SOL     OW18385   7.686   2.402   3.318  0.7899 -0.3252  0.1541
 2822SOL    HW118386   7.705   2.402   3.220 -0.8966 -0.2042 -0.1866
 2822SOL    HW218387   7.715   2.315   3.358 -2.2962 -2.0858 -1.2417
 2823SOL     OW18388   2.671   2.232   6.001 -0.0046  0.3260 -0.3780
 2823SOL    HW118389   2.736   2.304   5.979  1.6677 -1.4667 -1.4929
 2823SOL    HW218390   2.690   2.151   5.945 -1.9460 -0.9371  0.6948
 2825SOL     OW18391   9.979   9.102   5.756 -0.2083  0.0612  0.0161
 2825SOL    HW118392   9.927   9.135   5.834 -0.1470  1.3503 -0.4718
 2825SOL    HW218393  10.074   9.132   5.764 -0.2543  0.4048 -0.6717
 2826SOL     OW18394   4.498   1.895   0.663  0.0561 -0.8341  0.1618
 2826SOL    HW118395   4.543   1.984   0.668  1.9388 -1.8601  1.9494
 2826SOL    HW218396   4.562   1.823   0.690 -1.6342 -2.6880 -0.6095
 2829SOL     OW18397   4.871   4.154   0.044 -0.2331  0.0291 -0.4798
 2829SOL    HW118398   4.952   4.187   0.093  1.2225 -1.6854 -1.6487
 2829SOL    HW218399   4.841   4.068   0.084 -0.4112 -0.2321 -1.1686
 2832SOL     OW18400   6.937   2.743   4.831 -0.7369  0.7668  0.1946
 2832SOL    HW118401   7.030   2.745   4.868 -1.8784  2.1413  3.2153
 2832SOL    HW218402   6.940   2.749   4.731  2.3813  1.4290  0.2756
 2834SOL     OW18403   9.152   2.183   3.655 -0.2871 -0.5151  0.2555
 2834SOL    HW118404   9.165   2.085   3.672  1.3850 -0.6689 -1.6562
 2834SOL    HW218405   9.231   2.219   3.606 -1.8522  1.3228 -1.0100
 2835SOL     OW18406   6.980   2.058   0.635 -0.1543  0.5822  0.3224
 2835SOL    HW118407   6.998   2.083   0.539 -1.9146  0.4539 -0.0480
 2835SOL    HW218408   6.910   2.118   0.673  0.2550  0.3785  1.4270
 2836SOL     OW18409   3.911   5.193   1.302 -0.0231  0.0527  0.1448
 2836SOL    HW118410   3.986   5.217   1.240  1.0924  0.3260  1.5680
 2836SOL    HW218411   3.862   5.276   1.328 -3.0551 -0.4706 -3.4946
 2839SOL     OW18412   0.929   9.034   6.420 -0.0054 -0.3470  0.1890
 2839SOL    HW118413   0.905   8.974   6.497  0.5371 -1.3527 -0.4124
 2839SOL    HW218414   0.989   8.985   6.357  0.0941  0.6939 -0.5430
 2840SOL     OW18415   6.442   7.905   4.884 -0.4550 -0.1529 -0.2025
 2840SOL    HW118416   6.527   7.955   4.873 -0.0073 -0.8855 -0.1287
 2840SOL    HW218417   6.365   7.963   4.858  0.1557  0.1119 -1.4128
 2841SOL     OW18418   6.096   9.685   5.714 -0.5604 -0.1832 -0.4370
 2841SOL    HW118419   6.152   9.602   5.716 -1.6569 -0.9381  2.9117
 2841SOL    HW218420   6.115   9.739   5.797 -1.4449  1.8549 -1.5295
 2842SOL     OW18421   6.238   7.675   3.133  0.1096  0.5441  0.3075
 2842SOL    HW118422   6.283   7.596   3.092 -0.9280  0.3892 -0.5811
 2842SOL    HW218423   6.275   7.759   3.094  0.2417  0.4475  0.2243
 2843SOL     OW18424   1.306   4.115   1.593 -0.1367  0.2940 -0.3253
 2843SOL    HW118425   1.391   4.120   1.646  0.9048  0.6561 -1.9780
 2843SOL    HW218426   1.287   4.205   1.553 -0.4419 -0.1799 -1.2490
 2845SOL     OW18427   4.926   4.184   6.850 -0.0609  0.3844 -0.5689
 2845SOL    HW118428   4.844   4.175   6.793  0.2092  0.1419 -0.9178
 2845SOL    HW218429   4.932   4.278   6.884 -1.4513 -0.0651  0.9362
 2846SOL     OW18430   1.305   5.947   6.675  0.2126 -0.3374 -0.0253
 2846SOL    HW118431   1.304   6.045   6.698 -2.0639 -0.6478  1.4201
 2846SOL    HW218432   1.398   5.919   6.654  1.4725  1.4278  2.8030
 2847SOL     OW18433   4.878   6.189   1.532  0.7294  0.1645 -0.0666
 2847SOL    HW118434   4.832   6.249   1.466  0.2145  2.0180  1.9207
 2847SOL    HW218435   4.969   6.224   1.551  1.4026 -1.1389 -0.7843
 2848SOL     OW18436   1.884   4.239   7.852  1.1561 -0.3268 -0.3306
 2848SOL    HW118437   1.980   4.224   7.876  1.0007  0.5789  0.9121
 2848SOL    HW218438   1.851   4.323   7.895 -1.5296 -3.0884  3.3329
 2849SOL     OW18439   8.113   8.270   6.621 -0.1136 -0.2025  0.1707
 2849SOL    HW118440   8.117   8.366   6.593  0.5686 -0.4485 -0.6107
 2849SOL    HW218441   8.056   8.261   6.703 -3.0785  0.4104 -1.7425
 2851SOL     OW18442   2.010   8.170   3.005  0.8116  0.5596 -0.0681
 2851SOL    HW118443   2.001   8.235   2.930  0.7733  2.1153  1.2804
 2851SOL    HW218444   2.066   8.092   2.974  0.6405  1.0724 -1.7591
 2852SOL     OW18445   3.089   1.255   1.008 -0.0320 -0.1113  0.6052
 2852SOL    HW118446   2.992   1.261   0.987 -0.0312 -0.7079  0.4113
 2852SOL    HW218447   3.127   1.172   0.966  0.4874 -0.0518  0.9540
 2853SOL     OW18448   9.849   3.097   0.064 -0.2500  0.6202 -0.5517
 2853SOL    HW118449   9.898   3.164   0.120  0.4195 -1.4989  1.4640
 2853SOL    HW218450   9.752   3.096   0.090 -0.0285 -0.0332  0.2711
 2854SOL     OW18451   9.837   1.901   1.316 -0.4743 -0.5624  0.3664
 2854SOL    HW118452   9.810   1.860   1.403 -0.5144  1.6464  1.4319
 2854SOL    HW218453   9.937   1.902   1.310 -0.4054  0.9076  1.2507
 2855SOL     OW18454   9.881   7.974   2.346  0.0119 -0.2648  1.0892
 2855SOL    HW118455   9.823   7.899   2.380  0.1910 -1.5477 -1.3017
 2855SOL    HW218456   9.969   7.937   2.319  0.6684  1.1022  1.3570
 2856SOL     OW18457   3.413   4.444   4.367 -0.6640 -0.0775 -0.3425
 2856SOL    HW118458   3.349   4.452   4.444 -0.9470  0.4181 -0.6248
 2856SOL    HW218459   3.362   4.421   4.285 -0.4709  0.2673 -0.5594
 2857SOL     OW18460   7.262   5.885   2.474  0.1329 -0.7364 -0.4184
 2857SOL    HW118461   7.267   5.984   2.461 -1.7483 -0.6899 -0.8383
 2857SOL    HW218462   7.297   5.839   2.392 -0.3046 -0.4261 -0.7754
 2858SOL     OW18463   0.951   3.115   6.579  0.3827  0.1268 -0.0766
 2858SOL    HW118464   0.865   3.106   6.528  0.9476  0.6615 -1.1296
 2858SOL    HW218465   0.948   3.198   6.634 -0.4798 -0.7769  1.2613
 2859SOL     OW18466   0.348   3.941   2.074  0.2516  0.3269 -0.1768
 2859SOL    HW118467   0.266   3.944   2.132 -1.1556 -0.7378 -2.0408
 2859SOL    HW218468   0.324   3.970   1.982  2.1138  0.5231 -0.6123
 2860SOL     OW18469   9.421   3.980   0.246  0.0590 -0.2956 -0.3676
 2860SOL    HW118470   9.436   4.063   0.299  0.0183  0.9944 -2.3101
 2860SOL    HW218471   9.348   3.926   0.288 -0.5969  1.1519  0.3803
 2861SOL     OW18472   9.144   3.704   3.836 -0.1536  0.0599  0.1881
 2861SOL    HW118473   9.176   3.655   3.916  0.6898  2.4837  1.3845
 2861SOL    HW218474   9.119   3.798   3.861 -0.2152  0.7653 -2.3040
 2863SOL     OW18475   9.065   4.124   4.429  0.3738  0.4943 -0.2435
 2863SOL    HW118476   9.006   4.203   4.444 -1.1037 -0.7054  0.4789
 2863SOL    HW218477   9.157   4.154   4.406 -0.5090  2.4106 -1.3221
 2864SOL     OW18478   7.224   2.727   1.460  0.2090 -0.2244 -0.2249
 2864SOL    HW118479   7.235   2.651   1.396  1.0962 -0.0384 -0.3024
 2864SOL    HW218480   7.204   2.811   1.409  2.8115  0.3173 -0.4419
 2865SOL     OW18481   2.596   6.965   4.170  0.0986  0.2785 -0.6467
 2865SOL    HW118482   2.572   7.049   4.218  0.0708  0.2584 -0.6253
 2865SOL    HW218483   2.533   6.892   4.197 -0.1341  0.3560 -0.9769
 2866SOL     OW18484   0.418   9.901   0.122 -0.4005  0.0415 -0.5478
 2866SOL    HW118485   0.423   9.811   0.167 -2.7165 -0.1679 -0.6643
 2866SOL    HW218486   0.377   9.967   0.184 -0.2586  0.6348 -1.0780
 2868SOL     OW18487   6.947   2.994   0.786 -0.2472 -0.0633  0.2783
 2868SOL    HW118488   6.990   3.084   0.797  0.0475  0.2997 -3.4461
 2868SOL    HW218489   6.851   3.006   0.762 -0.2341 -0.7359 -0.1070
 2869SOL     OW18490   2.411   2.296   7.128  0.1886  0.2649  0.4886
 2869SOL    HW118491   2.335   2.232   7.140 -0.3204  0.4813 -1.3640
 2869SOL    HW218492   2.374   2.386   7.104  1.0008  0.5626  0.3613
 2870SOL     OW18493   3.181   2.042   2.580 -0.2221 -0.2267  0.1100
 2870SOL    HW118494   3.126   2.114   2.622  1.1134  0.2213  1.1579
 2870SOL    HW218495   3.160   2.036   2.483  0.3231  2.2747 -0.2219
 2871SOL     OW18496   4.953   8.349   3.893  0.5232  0.2373 -0.3757
 2871SOL    HW118497   4.889   8.422   3.917  1.7559  1.2797 -0.1985
 2871SOL    HW218498   5.046   8.383   3.901  1.1687 -1.8362  1.2210
 2872SOL     OW18499   3.554   4.432   3.219  0.5342 -0.2784  0.1206
 2872SOL    HW118500   3.479   4.367   3.234  1.0685 -0.5451  1.8050
 2872SOL    HW218501   3.642   4.386   3.236  0.9051  0.9464  1.6234
 2873SOL     OW18502   2.458   0.187   0.782 -0.0985 -0.4412 -0.4730
 2873SOL    HW118503   2.456   0.282   0.751 -2.6045 -0.6357 -0.9931
 2873SOL    HW218504   2.507   0.181   0.869  2.2088  0.9266 -1.6164
 2874SOL     OW18505   9.612   8.627   2.605  0.0712 -0.4452  0.3396
 2874SOL    HW118506   9.652   8.662   2.690  0.3871  2.4691 -0.9512
 2874SOL    HW218507   9.646   8.534   2.588  2.1637 -0.0142  1.9677
 2875SOL     OW18508   2.512   9.913   3.010 -0.1045  0.4353  0.2786
 2875SOL    HW118509   2.570   9.899   2.930  0.2313  0.2132  0.5538
 2875SOL    HW218510   2.554   9.982   3.070 -0.8899  1.3651 -0.2434
 2876SOL     OW18511   2.715   5.699   2.164 -0.2998  0.7408 -0.2717
 2876SOL    HW118512   2.757   5.735   2.247 -1.0796  1.3840 -0.1523
 2876SOL    HW218513   2.623   5.667   2.185 -0.6020  1.1698 -0.9553
 2878SOL     OW18514   7.428   7.526   5.774 -0.1978 -0.6009  0.7176
 2878SOL    HW118515   7.447   7.444   5.828  0.3836 -1.3703 -0.6205
 2878SOL    HW218516   7.513   7.562   5.737 -0.5976 -0.1500  0.2225
 2879SOL     OW18517   5.836   1.991   5.545 -0.5236 -0.2025 -0.0307
 2879SOL    HW118518   5.897   2.033   5.612  0.0469 -1.7137  0.4183
 2879SOL    HW218519   5.799   1.906   5.582 -0.5195 -0.8494 -1.4507
 2880SOL     OW18520   9.672   8.996   1.473 -0.3305 -0.3317  0.1085
 2880SOL    HW118521   9.646   8.899   1.463 -2.4612  0.2305 -0.0423
 2880SOL    HW218522   9.679   9.018   1.571  0.0050 -0.5921  0.1448
 2881SOL     OW18523   8.045   2.434   1.825  0.4820 -0.1919  0.5692
 2881SOL    HW118524   8.114   2.362   1.820  0.0837 -0.6009  0.8281
 2881SOL    HW218525   8.006   2.450   1.734 -0.0996 -0.9790  0.6723
 2882SOL     OW18526   3.851   0.110   7.724  0.5485  0.3050  0.2941
 2882SOL    HW118527   3.766   0.152   7.755 -0.2419 -0.6841 -0.5166
 2882SOL    HW218528   3.911   0.094   7.803 -0.7215 -0.5699  1.0986
 2883SOL     OW18529   3.029   5.739   3.164 -0.8918  0.9632 -0.1245
 2883SOL    HW118530   2.941   5.784   3.176 -0.8010  0.9942  0.4432
 2883SOL    HW218531   3.093   5.800   3.117 -0.2518  2.0681  2.1058
 2884SOL     OW18532   0.781   8.022   2.866  0.7093 -0.4356 -0.2434
 2884SOL    HW118533   0.877   8.048   2.876 -0.0301  1.3811  2.5926
 2884SOL    HW218534   0.722   8.100   2.887 -1.4204 -1.2601 -2.7975
 2885SOL     OW18535   4.172   1.877   0.845  0.1511  0.1893  0.5477
 2885SOL    HW118536   4.247   1.909   0.903  1.8233 -0.7574 -1.0560
 2885SOL    HW218537   4.201   1.878   0.750 -1.9193 -0.1321 -0.1067
 2886SOL     OW18538   1.803   5.862   6.155  0.3870 -0.2628 -0.1204
 2886SOL    HW118539   1.732   5.912   6.206  0.6733  0.9766 -0.9101
 2886SOL    HW218540   1.885   5.853   6.212 -1.0898 -3.6178  1.6248
 2890SOL     OW18541   7.917   9.316   2.180  0.4355  0.2353 -0.0101
 2890SOL    HW118542   7.972   9.233   2.191 -1.0097 -0.9358 -1.3637
 2890SOL    HW218543   7.946   9.364   2.097 -0.4525 -0.3035 -0.6410
 2891SOL     OW18544   1.937   5.091   5.946 -0.4360 -0.0496  0.1020
 2891SOL    HW118545   1.958   5.134   6.034  0.6319 -1.5076  0.5799
 2891SOL    HW218546   1.991   5.008   5.936 -1.7369 -0.7627 -1.2334
 2893SOL     OW18547   1.686   1.803   2.940 -0.2244 -0.1709 -0.0728
 2893SOL    HW118548   1.698   1.899   2.961 -0.0012 -0.7591  2.6449
 2893SOL    HW218549   1.724   1.783   2.849 -1.0024  2.4196 -0.9915
 2894SOL     OW18550   1.381   1.400   4.625 -0.2070 -0.1734  0.1055
 2894SOL    HW118551   1.390   1.468   4.552  0.8003 -0.6783 -0.2583
 2894SOL    HW218552   1.365   1.310   4.585  1.0844 -0.5744  0.4652
 2896SOL     OW18553   3.775   5.178   3.502  0.5579 -0.4627  1.0150
 2896SOL    HW118554   3.716   5.098   3.513 -0.2145 -0.0905 -0.4359
 2896SOL    HW218555   3.720   5.261   3.504  0.9862 -0.1246 -0.6113
 2897SOL     OW18556   3.617   2.229   5.730 -0.4819 -0.6291  0.1620
 2897SOL    HW118557   3.656   2.313   5.693  0.4049 -1.0482  0.1389
 2897SOL    HW218558   3.688   2.178   5.778 -0.8135 -1.8022 -0.5838
 2898SOL     OW18559   1.865   7.443   2.763 -0.2589  0.4691  0.2017
 2898SOL    HW118560   1.926   7.472   2.689 -0.7773  0.0906 -0.3748
 2898SOL    HW218561   1.777   7.489   2.752 -1.0669 -1.2504 -0.6751
 2899SOL     OW18562   9.101   7.268   6.114  0.4421  0.8219  0.0107
 2899SOL    HW118563   9.056   7.196   6.061 -2.8805  2.4098  0.5821
 2899SOL    HW218564   9.131   7.341   6.052  1.5857  0.1273 -0.2765
 2900SOL     OW18565   5.492   5.312   0.152  0.0205 -0.5886 -0.2023
 2900SOL    HW118566   5.431   5.363   0.091  1.3801  1.4908  0.0998
 2900SOL    HW218567   5.570   5.370   0.177  1.3645 -2.6591  0.6046
 2901SOL     OW18568   7.199   1.587   5.527  0.1454  0.8091 -0.4274
 2901SOL    HW118569   7.211   1.488   5.539 -1.3051  0.6286 -0.3753
 2901SOL    HW218570   7.271   1.622   5.467  1.3135 -0.0799  0.4260
 2902SOL     OW18571   1.475   5.433   4.256  0.1203 -0.1954 -0.9049
 2902SOL    HW118572   1.441   5.381   4.334  0.6603 -0.8310 -1.0839
 2902SOL    HW218573   1.526   5.371   4.195  0.3531  0.4475 -1.3627
 2903SOL     OW18574   6.186   5.373   0.105  0.2468  0.0308 -0.4685
 2903SOL    HW118575   6.183   5.408   0.012  0.2680  2.6873  0.5026
 2903SOL    HW218576   6.094   5.379   0.145  0.0177 -2.0508 -0.6361
 2904SOL     OW18577   4.450   8.457   6.920  0.8286 -0.0878  0.3651
 2904SOL    HW118578   4.371   8.414   6.877 -0.1598  1.8129  0.2118
 2904SOL    HW218579   4.509   8.387   6.961 -1.2996 -1.4601  1.1117
 2905SOL     OW18580   2.271   7.832   6.592  0.0029  0.2263  0.0368
 2905SOL    HW118581   2.199   7.763   6.589  0.1032  0.1323 -0.3701
 2905SOL    HW218582   2.348   7.799   6.647 -1.4767  1.5353  3.0042
 2906SOL     OW18583   9.755   5.310   3.451 -0.1451 -0.5251 -0.2584
 2906SOL    HW118584   9.756   5.318   3.551 -0.6009 -1.2361 -0.1865
 2906SOL    HW218585   9.847   5.290   3.418  0.4655  2.1060 -0.2086
 2907SOL     OW18586   8.540   5.262   7.617 -0.1349  0.4165  0.4667
 2907SOL    HW118587   8.626   5.313   7.618 -0.1261  0.4882 -1.7771
 2907SOL    HW218588   8.482   5.295   7.542 -1.8504 -0.0691  1.5474
 2908SOL     OW18589   9.667   7.667   0.155 -0.5345 -0.2577 -0.4504
 2908SOL    HW118590   9.710   7.749   0.193  2.0054 -2.1174  0.8457
 2908SOL    HW218591   9.586   7.644   0.210 -0.9439  1.0656 -0.4891
 2909SOL     OW18592   2.633   9.788   3.347 -0.2834  0.4554  0.1671
 2909SOL    HW118593   2.682   9.873   3.331  0.7409 -0.3664 -1.1051
 2909SOL    HW218594   2.564   9.803   3.418  0.4134  2.1330  0.5216
 2910SOL     OW18595   7.142   1.385   4.920  0.8140 -0.3177  0.4660
 2910SOL    HW118596   7.102   1.296   4.901  2.5179 -1.4169  1.8215
 2910SOL    HW218597   7.228   1.395   4.870  0.1381  0.9759 -0.4566
 2911SOL     OW18598   8.840   3.361   7.685 -0.1881  0.0775  0.4135
 2911SOL    HW118599   8.934   3.394   7.675 -0.3911  0.5923  0.1776
 2911SOL    HW218600   8.839   3.283   7.748  0.3902  0.0889  0.4460
 2913SOL     OW18601   6.443   8.566   4.632 -0.1172  0.5511 -0.1545
 2913SOL    HW118602   6.490   8.519   4.557 -0.8802 -0.4467 -0.0240
 2913SOL    HW218603   6.510   8.607   4.693  0.5649 -0.1115 -0.4474
 2914SOL     OW18604   3.457   9.480   5.789  0.1730  0.0728 -0.0281
 2914SOL    HW118605   3.487   9.395   5.746 -1.2081  0.0567 -1.0028
 2914SOL    HW218606   3.523   9.553   5.770 -0.1348 -0.0667 -1.7396
 2915SOL     OW18607   4.988   8.981   2.555 -0.1994 -0.2450 -0.3035
 2915SOL    HW118608   4.971   8.885   2.579 -0.4777 -0.0256  0.3981
 2915SOL    HW218609   4.910   9.017   2.504 -0.4068 -0.1934  0.0442
 2916SOL     OW18610   1.504   5.111   4.018  0.0851  0.0501 -0.5326
 2916SOL    HW118611   1.464   5.034   3.969 -0.4836 -0.6295  0.9925
 2916SOL    HW218612   1.475   5.110   4.113  2.9400  0.1115  0.3870
 2917SOL     OW18613   8.363   7.961   1.806  0.1168 -0.0677  0.1890
 2917SOL    HW118614   8.429   7.907   1.754  0.6888 -0.0109  0.8491
 2917SOL    HW218615   8.373   7.941   1.903 -1.6160 -0.9160  0.2098
 2918SOL     OW18616   3.470   0.124   7.474  0.3952  1.1097 -0.1687
 2918SOL    HW118617   3.419   0.198   7.431  0.1502  0.2030 -1.4347
 2918SOL    HW218618   3.415   0.085   7.548  0.4434  2.0535  0.3752
 2919SOL     OW18619   2.045   6.591   3.221 -0.0320  0.0305 -0.2770
 2919SOL    HW118620   1.947   6.610   3.217 -0.1053  0.0889  1.5040
 2919SOL    HW218621   2.079   6.606   3.314  1.4225 -1.1581 -0.5849
 2920SOL     OW18622   7.699   2.873   1.713 -0.5715 -0.0034  0.1954
 2920SOL    HW118623   7.607   2.863   1.675 -0.9296 -0.7914  1.2250
 2920SOL    HW218624   7.697   2.849   1.810 -0.1162  3.8383  1.2727
 2921SOL     OW18625   5.777   4.353   2.422  0.6849 -0.1430  0.2518
 2921SOL    HW118626   5.701   4.419   2.419  0.3104 -0.5901 -0.2299
 2921SOL    HW218627   5.742   4.263   2.447  1.2222 -0.1269  1.0565
 2922SOL     OW18628   8.238   1.078   0.546  0.0956  0.1255  0.0770
 2922SOL    HW118629   8.240   1.177   0.555 -1.3744  0.1560  0.1907
 2922SOL    HW218630   8.143   1.046   0.551  0.5155 -1.2330 -0.4441
 2923SOL     OW18631   7.072   4.004   0.638 -0.5148  0.2050 -0.4764
 2923SOL    HW118632   6.988   3.952   0.653  0.2331 -0.8612  0.0800
 2923SOL    HW218633   7.112   3.979   0.550 -0.5934  0.4736 -0.5914
 2924SOL     OW18634   7.921   6.668   6.804  0.1475 -0.1729 -0.1545
 2924SOL    HW118635   7.979   6.748   6.787 -0.9707  0.5361 -0.6865
 2924SOL    HW218636   7.892   6.669   6.900  2.1280 -1.2850  0.4804
 2925SOL     OW18637   3.018   0.182   5.965  0.4259 -0.1569 -0.3639
 2925SOL    HW118638   2.929   0.227   5.969  1.4075  1.7776  0.3734
 2925SOL    HW218639   3.052   0.167   6.058  1.7280  0.8965 -0.6426
 2928SOL     OW18640   3.209   2.839   5.024 -0.0166  0.0611  0.0538
 2928SOL    HW118641   3.152   2.869   5.101 -2.0675 -0.9493 -1.0036
 2928SOL    HW218642   3.299   2.813   5.057 -1.4726 -2.1694  2.4454
 2929SOL     OW18643   7.717   5.235   3.228 -0.5509 -0.1675 -0.1929
 2929SOL    HW118644   7.811   5.237   3.194 -0.0694 -0.5598  1.0672
 2929SOL    HW218645   7.711   5.171   3.304 -1.6906  0.3496  0.1653
 2930SOL     OW18646   3.352   4.663   3.844  0.2144 -0.0670 -0.2523
 2930SOL    HW118647   3.356   4.760   3.865  0.1935 -0.0094 -0.5097
 2930SOL    HW218648   3.443   4.622   3.853  0.1483 -0.1077  0.2491
 2933SOL     OW18649   0.095   1.751   5.564 -0.6774  0.0266  0.2902
 2933SOL    HW118650   0.132   1.726   5.475 -1.2274 -1.5269  0.4938
 2933SOL    HW218651   0.030   1.827   5.553  0.7187  1.1589 -0.3606
 2934SOL     OW18652   7.821   0.717   2.210  0.5834  0.1244  0.2051
 2934SOL    HW118653   7.787   0.648   2.146  1.2238  1.0613 -1.1614
 2934SOL    HW218654   7.845   0.674   2.297 -3.2109 -0.7419  0.9242
 2936SOL     OW18655   0.636   4.888   6.357 -0.0421 -0.2516 -0.4009
 2936SOL    HW118656   0.728   4.905   6.322  0.6220 -1.6719  0.6238
 2936SOL    HW218657   0.625   4.934   6.445 -0.2674 -0.1939 -0.4602
 2938SOL     OW18658   8.903   3.771   6.263  0.4590  0.3918  0.4299
 2938SOL    HW118659   8.900   3.829   6.182 -1.2471  1.2023  1.0614
 2938SOL    HW218660   8.958   3.815   6.334  2.5673 -0.6422 -0.4848
 2940SOL     OW18661   3.449   4.619   5.675  0.2486  0.2966 -0.3553
 2940SOL    HW118662   3.430   4.717   5.684  2.0915  0.6546 -0.2067
 2940SOL    HW218663   3.543   4.605   5.645 -0.5203 -1.4091 -2.0858
 2941SOL     OW18664   7.476   9.353   4.024 -0.2078  0.1602  0.4376
 2941SOL    HW118665   7.424   9.299   3.958 -1.4394  0.7361  0.9115
 2941SOL    HW218666   7.574   9.336   4.012 -0.5214 -1.2126 -0.2408
 2942SOL     OW18667   6.634   8.673   4.244  0.2270  0.4426  0.0220
 2942SOL    HW118668   6.671   8.615   4.172  0.9260  0.0785  0.6608
 2942SOL    HW218669   6.573   8.619   4.302 -1.4847  1.0975 -1.1614
 2945SOL     OW18670   9.618   3.318   4.698  0.3343  0.2091  0.4556
 2945SOL    HW118671   9.616   3.407   4.653 -0.7527  0.4049  0.8803
 2945SOL    HW218672   9.645   3.329   4.794  0.4816  0.0467  0.4330
 2946SOL     OW18673   6.817   8.357   1.991 -0.7206  0.9319 -0.1014
 2946SOL    HW118674   6.724   8.337   2.024 -0.8978  2.2828  0.2450
 2946SOL    HW218675   6.813   8.433   1.926 -0.1998 -0.8281 -2.2454
 2947SOL     OW18676   8.055   0.192   6.803 -0.3744 -0.3758  0.3627
 2947SOL    HW118677   8.140   0.219   6.849  0.1830 -1.0872 -0.2185
 2947SOL    HW218678   8.005   0.128   6.860 -0.0831 -0.6281  0.3378
 2948SOL     OW18679   0.441   3.045   6.518 -0.3535 -0.6714 -0.1469
 2948SOL    HW118680   0.524   3.079   6.564 -1.2446  1.0004  0.2739
 2948SOL    HW218681   0.364   3.105   6.540 -1.7105 -2.2598 -0.4670
 2949SOL     OW18682   2.213   3.047   4.128 -0.4027 -0.8170  0.4125
 2949SOL    HW118683   2.214   3.077   4.032 -0.0892 -0.3081  0.5714
 2949SOL    HW218684   2.250   2.955   4.135 -0.9847 -1.0835 -0.0351
 2950SOL     OW18685   2.700   0.792   7.845  0.5759 -0.4325 -0.2020
 2950SOL    HW118686   2.695   0.869   7.910  1.8352  0.1976 -0.8297
 2950SOL    HW218687   2.771   0.729   7.875  1.2308 -0.0895 -1.0056
 2951SOL     OW18688   3.818   6.884   0.700  0.1950  0.0253 -0.2259
 2951SOL    HW118689   3.767   6.953   0.752  0.8662  0.8801 -0.6809
 2951SOL    HW218690   3.880   6.835   0.762  1.2562  1.2860 -0.2636
 2952SOL     OW18691   3.529   6.234   2.938  0.0678  0.2065  0.1457
 2952SOL    HW118692   3.553   6.195   2.849 -4.3340  0.2704 -1.1804
 2952SOL    HW218693   3.544   6.166   3.009  0.2140 -1.1071 -1.1116
 2953SOL     OW18694   2.784   6.344   7.306 -0.1721 -0.2300 -0.2842
 2953SOL    HW118695   2.740   6.427   7.341 -1.1235 -0.2120 -1.4943
 2953SOL    HW218696   2.719   6.268   7.309  0.0668 -0.4657 -1.0373
 2954SOL     OW18697   6.487   0.631   6.728 -0.1042 -0.2929  0.3578
 2954SOL    HW118698   6.493   0.678   6.640  1.1418 -0.9939  0.0520
 2954SOL    HW218699   6.574   0.586   6.748 -0.7112 -1.0098  1.4699
 2960SOL     OW18700   9.843   5.573   1.965 -0.1508 -0.5179  0.4467
 2960SOL    HW118701   9.831   5.528   1.876 -0.8189 -1.2714  0.9162
 2960SOL    HW218702   9.821   5.670   1.955 -0.7415 -0.7000 -0.0926
 2962SOL     OW18703   1.494   4.753   7.800  0.2743  0.0141 -0.2929
 2962SOL    HW118704   1.439   4.813   7.859  0.8924  1.8979 -1.5777
 2962SOL    HW218705   1.579   4.729   7.847 -0.2661 -0.4094  0.4883
 2963SOL     OW18706   0.309   4.034   1.839  0.5735 -0.3483  0.1807
 2963SOL    HW118707   0.364   4.047   1.757 -1.5391  0.3280 -1.1624
 2963SOL    HW218708   0.319   4.114   1.899 -0.1503  0.4674 -0.7814
 2964SOL     OW18709   0.794   3.599   6.173  0.0393  0.2358 -0.8089
 2964SOL    HW118710   0.753   3.643   6.093 -0.0431  2.2884  0.3226
 2964SOL    HW218711   0.726   3.590   6.245  0.3351 -0.7896 -0.6516
 2965SOL     OW18712   8.395   2.572   0.064  0.0565  0.1651  0.1830
 2965SOL    HW118713   8.443   2.624   0.134  0.3315  0.4932 -0.2507
 2965SOL    HW218714   8.398   2.475   0.087  0.8583  0.1943  0.1966
 2966SOL     OW18715   1.425   6.000   5.973  0.3670  0.4051  0.2303
 2966SOL    HW118716   1.507   6.022   5.920  0.7322 -0.0936  0.5875
 2966SOL    HW218717   1.427   6.050   6.060  0.4494  0.1376  0.3808
 2967SOL     OW18718   0.337   6.856   3.294  0.5266 -0.0135  0.1948
 2967SOL    HW118719   0.380   6.771   3.323 -0.5745 -0.2633  1.1245
 2967SOL    HW218720   0.263   6.837   3.230 -0.5910  0.1254  1.4217
 2968SOL     OW18721   9.452   9.050   1.056 -0.0587  0.7494  0.1105
 2968SOL    HW118722   9.449   8.964   1.106 -2.4763 -0.4974 -2.0885
 2968SOL    HW218723   9.361   9.073   1.023  1.1848  2.4081 -2.2914
 2969SOL     OW18724   1.049   1.862   1.564  0.6637  0.3610  0.5418
 2969SOL    HW118725   0.949   1.862   1.566  0.6148  0.7442 -0.8992
 2969SOL    HW218726   1.081   1.952   1.535  1.4024 -0.0025  0.2242
 2970SOL     OW18727   7.553   4.876   7.638 -0.2067  0.3659  0.3310
 2970SOL    HW118728   7.531   4.829   7.553 -1.0205  0.5523  0.4282
 2970SOL    HW218729   7.600   4.813   7.700 -2.2573 -0.6615  0.8867
 2971SOL     OW18730   8.158   5.169   5.953 -0.2603  0.2312 -0.6782
 2971SOL    HW118731   8.076   5.116   5.932 -0.4683  0.8202 -1.3923
 2971SOL    HW218732   8.231   5.107   5.982 -1.2080 -0.2059  0.8007
 2973SOL     OW18733   0.199   4.353   2.289 -0.3064 -0.3156  0.1321
 2973SOL    HW118734   0.281   4.297   2.286 -0.6488 -0.7975 -0.2605
 2973SOL    HW218735   0.124   4.305   2.244 -0.5875  0.4819 -0.2554
 2974SOL     OW18736   4.414   1.528   5.746  0.0441 -0.1152  0.6321
 2974SOL    HW118737   4.440   1.602   5.684 -1.0252  0.6920  1.1393
 2974SOL    HW218738   4.315   1.519   5.748  0.0680 -0.2234  2.1082
 2976SOL     OW18739   0.405   1.284   2.512 -0.5925 -0.1290 -0.3835
 2976SOL    HW118740   0.352   1.235   2.581 -1.0156  0.2222 -0.4580
 2976SOL    HW218741   0.370   1.377   2.502  0.2139  0.1883 -0.2468
 2978SOL     OW18742   1.926   0.996   4.244 -0.7013  0.0677 -0.4671
 2978SOL    HW118743   1.917   1.093   4.224 -1.3501 -0.0470 -0.7343
 2978SOL    HW218744   1.912   0.943   4.160 -0.3191 -0.2574 -0.3291
 2979SOL     OW18745   4.167   6.247   4.624 -0.1730  0.4852  0.0299
 2979SOL    HW118746   4.177   6.319   4.693  2.7595  1.1254 -1.0015
 2979SOL    HW218747   4.148   6.288   4.535  1.7114  0.0284 -0.6027
 2981SOL     OW18748   3.024   1.639   2.353  0.4494 -0.3536 -0.2709
 2981SOL    HW118749   3.120   1.613   2.362  1.2449  1.8865 -1.6733
 2981SOL    HW218750   2.995   1.685   2.437  0.5710 -1.0752  0.1768
 2982SOL     OW18751   8.819   9.084   7.426 -0.0527 -0.2538  0.3299
 2982SOL    HW118752   8.811   9.179   7.459  0.0358 -0.1014 -0.0886
 2982SOL    HW218753   8.735   9.035   7.448  0.4316 -0.4584  1.7749
 2983SOL     OW18754   1.852   9.739   5.968  0.4393 -0.5072 -0.1771
 2983SOL    HW118755   1.920   9.704   5.904 -0.2843 -1.1613 -0.6014
 2983SOL    HW218756   1.898   9.772   6.051  1.3149 -0.3529 -0.7212
 2984SOL     OW18757   8.806   1.405   4.300 -0.6042  0.2694  0.7291
 2984SOL    HW118758   8.811   1.407   4.201 -1.5213 -1.5728  0.6179
 2984SOL    HW218759   8.898   1.408   4.339 -0.0225 -2.7555 -0.3079
 2987SOL     OW18760   1.981   6.598   0.845  0.4513 -0.7302 -0.3795
 2987SOL    HW118761   1.920   6.654   0.901  0.9503 -0.9559  0.3984
 2987SOL    HW218762   1.974   6.627   0.749 -0.3093 -0.2556 -0.1877
 2988SOL     OW18763   1.543   7.453   4.102  0.2523 -0.1354 -0.5307
 2988SOL    HW118764   1.577   7.413   4.017  2.0774  0.2776 -0.0042
 2988SOL    HW218765   1.618   7.499   4.151 -0.7254 -0.5465  1.4133
 2989SOL     OW18766   7.680   0.193   3.320 -0.4454 -0.2502  0.1697
 2989SOL    HW118767   7.621   0.201   3.401 -0.8968  1.2321 -0.2889
 2989SOL    HW218768   7.642   0.123   3.258 -0.0109 -1.5057  1.2938
 2990SOL     OW18769   8.570   2.845   5.209  0.1974 -0.2191  0.3862
 2990SOL    HW118770   8.582   2.813   5.115 -0.5646  0.5630  0.0212
 2990SOL    HW218771   8.558   2.766   5.269 -0.6467 -0.6768 -0.3661
 2991SOL     OW18772   2.261   4.178   6.092 -0.0205 -0.6016 -0.2163
 2991SOL    HW118773   2.210   4.264   6.090 -0.7920 -0.9679  2.2222
 2991SOL    HW218774   2.333   4.184   6.161  1.0001 -1.3496 -1.1920
 2992SOL     OW18775   5.013   2.008   1.350  0.2784  0.4324 -0.3483
 2992SOL    HW118776   4.964   1.967   1.426  1.1851  0.3047  0.1692
 2992SOL    HW218777   4.952   2.069   1.300  0.2384  2.1207  1.7116
 2993SOL     OW18778   6.664   2.852   0.252 -0.2145 -0.6303 -0.4932
 2993SOL    HW118779   6.647   2.903   0.168  0.2200 -1.4145 -1.0527
 2993SOL    HW218780   6.693   2.916   0.324  0.0941 -0.0611 -1.1224
 2994SOL     OW18781   2.061   6.468   4.510 -0.5427 -0.6018  0.1768
 2994SOL    HW118782   2.152   6.450   4.549 -0.0669 -0.9573 -1.0944
 2994SOL    HW218783   2.014   6.382   4.495 -1.1396 -0.4124  0.9157
 2995SOL     OW18784   1.154   4.607   6.173  0.0541 -0.0956  0.1835
 2995SOL    HW118785   1.157   4.651   6.263  0.6241  0.8130 -0.2732
 2995SOL    HW218786   1.225   4.646   6.115  0.7947 -1.8590 -0.1314
 2996SOL     OW18787   6.355   5.531   0.931 -0.1703  0.3831  1.1758
 2996SOL    HW118788   6.443   5.483   0.931 -0.7558 -0.7073  1.9793
 2996SOL    HW218789   6.330   5.556   1.024 -1.4156 -0.6414  1.1272
 2997SOL     OW18790   7.956   9.730   5.209 -0.5185  0.4795 -0.0808
 2997SOL    HW118791   8.005   9.817   5.201  1.3464 -0.4523  0.9055
 2997SOL    HW218792   7.945   9.707   5.305  2.3373 -2.1966 -0.3379
 2998SOL     OW18793   4.461   4.555   7.401  0.6125 -0.0217  0.3433
 2998SOL    HW118794   4.484   4.651   7.419  0.8133  0.3701 -1.8471
 2998SOL    HW218795   4.432   4.511   7.486 -0.8090  2.3478  1.1401
 2999SOL     OW18796   9.081   7.216   6.380  0.1661 -0.3397  0.1421
 2999SOL    HW118797   9.070   7.234   6.282 -1.2938 -1.3945  0.0802
 2999SOL    HW218798   9.010   7.264   6.431  1.5009  0.9771  0.7948
 3000SOL     OW18799   7.035   7.335   2.902 -0.3773  0.3046  0.0595
 3000SOL    HW118800   7.036   7.314   3.000 -0.3834 -1.2350 -0.2534
 3000SOL    HW218801   6.992   7.423   2.887 -0.5413  0.4669  1.4346
 3001SOL     OW18802   9.513   1.261   1.302  0.6495 -0.1201 -0.1506
 3001SOL    HW118803   9.433   1.236   1.357  0.9765 -1.5330 -0.2967
 3001SOL    HW218804   9.577   1.184   1.299  0.7253 -0.0017 -2.3607
 3002SOL     OW18805   0.813   7.674   3.823 -0.3505  0.0161  0.7449
 3002SOL    HW118806   0.870   7.736   3.877 -0.2298  1.5228 -1.0363
 3002SOL    HW218807   0.747   7.630   3.882  1.0751  0.1051  2.4409
 3003SOL     OW18808   9.916   5.826   3.911 -0.3198 -0.0138 -0.1511
 3003SOL    HW118809   9.970   5.910   3.905  0.0444 -0.2491 -0.1759
 3003SOL    HW218810   9.820   5.847   3.892  0.1552 -0.0138 -2.8186
 3005SOL     OW18811   7.297   8.113   1.448 -0.7450 -0.7316  0.3340
 3005SOL    HW118812   7.233   8.101   1.523 -0.5777  1.1216  0.7892
 3005SOL    HW218813   7.346   8.199   1.459  0.6917 -1.3710 -0.8534
 3006SOL     OW18814   3.265   9.146   6.474 -0.0431  0.2205 -0.5169
 3006SOL    HW118815   3.293   9.064   6.524 -1.4323  0.0720  0.0267
 3006SOL    HW218816   3.341   9.212   6.473  0.5218 -0.4031  0.4580
 3007SOL     OW18817   2.347   6.008   3.709  0.5834 -0.0106 -0.1003
 3007SOL    HW118818   2.329   6.013   3.807  1.2892 -2.2783  0.1718
 3007SOL    HW218819   2.414   6.078   3.684  0.2542  0.7082  0.9877
 3008SOL     OW18820   0.068   9.793   1.463 -0.0160 -0.6151  0.0811
 3008SOL    HW118821   0.039   9.872   1.516  0.6480 -0.8786  0.8506
 3008SOL    HW218822   0.136   9.741   1.514  0.2021 -1.2033 -0.7810
 3009SOL     OW18823   0.867   9.498   0.416  0.4060  0.3272 -0.0689
 3009SOL    HW118824   0.860   9.526   0.320  1.1304  0.5945 -0.0427
 3009SOL    HW218825   0.952   9.532   0.455  0.0045  0.4237  0.7421
 3010SOL     OW18826   7.272   2.405   3.092  0.0350 -0.0821  0.1903
 3010SOL    HW118827   7.277   2.357   3.180 -0.0669  2.1750  1.4817
 3010SOL    HW218828   7.205   2.479   3.099  0.5469  0.5729 -1.5725
 3011SOL     OW18829   8.782   1.370   4.018  0.1025  0.0652 -0.3158
 3011SOL    HW118830   8.781   1.459   3.973 -2.0910 -0.7540 -1.9927
 3011SOL    HW218831   8.812   1.300   3.953 -1.4852 -0.8944 -0.0582
 3014SOL     OW18832   1.043   9.994   0.127  0.0349  0.4079  0.4192
 3014SOL    HW118833   1.086  10.008   0.037 -0.6473  0.9405  0.1642
 3014SOL    HW218834   1.079  10.061   0.192 -0.5674  1.0079  0.1449
 3015SOL     OW18835   3.616   1.285   7.003  0.0257  0.4185  0.2365
 3015SOL    HW118836   3.617   1.255   7.098 -1.9411 -1.4372 -0.2597
 3015SOL    HW218837   3.646   1.210   6.944 -1.5615  0.5513 -0.7915
 3016SOL     OW18838   9.823   8.533   6.937  0.7276  0.1007 -0.8162
 3016SOL    HW118839   9.794   8.511   6.844  0.4264  2.4297 -1.3048
 3016SOL    HW218840   9.742   8.539   6.996  0.7390  0.5930 -0.8480
 3017SOL     OW18841   2.494   6.294   7.891  0.0096  0.4113  0.0978
 3017SOL    HW118842   2.454   6.385   7.891  0.2356  0.5139  0.6553
 3017SOL    HW218843   2.451   6.238   7.963  0.8702  0.5348  0.7220
 3018SOL     OW18844   9.255   7.017   2.553  0.2943 -0.3153  0.2357
 3018SOL    HW118845   9.267   7.114   2.571  0.9787 -0.2240 -0.6872
 3018SOL    HW218846   9.182   6.981   2.612  0.2407  0.6836  0.7904
 3019SOL     OW18847   6.826   0.460   1.108 -0.3858  0.9197  0.1325
 3019SOL    HW118848   6.888   0.495   1.038 -0.7258 -0.5562 -0.9373
 3019SOL    HW218849   6.732   0.488   1.087 -0.1911  2.5888  1.3872
 3020SOL     OW18850   1.094   9.439   5.530 -0.1724  0.1168  0.1760
 3020SOL    HW118851   1.092   9.376   5.452 -0.9437  0.9903 -0.5336
 3020SOL    HW218852   1.112   9.388   5.614 -1.1991 -1.1065 -0.3281
 3021SOL     OW18853   5.911   7.091   4.190 -0.0044 -0.3009  0.2221
 3021SOL    HW118854   5.847   7.030   4.237  0.2615  0.9222  2.2017
 3021SOL    HW218855   6.005   7.060   4.205  0.0513 -0.2723 -0.0531
 3022SOL     OW18856   9.023   8.900   1.350 -0.3586 -0.3655 -0.3152
 3022SOL    HW118857   9.008   8.839   1.273 -0.8230  1.9303 -2.0829
 3022SOL    HW218858   9.112   8.945   1.341 -0.3687 -0.1514  0.5445
 3023SOL     OW18859   4.158   9.892   7.025 -0.5447  0.5825 -0.0330
 3023SOL    HW118860   4.249   9.861   6.998 -0.5380 -0.0204  0.6457
 3023SOL    HW218861   4.115   9.942   6.950  0.4414  1.0824 -0.2627
 3024SOL     OW18862   6.775   1.129   2.664 -0.3070  1.0296  0.4612
 3024SOL    HW118863   6.868   1.160   2.641  0.1155 -0.5057  0.0441
 3024SOL    HW218864   6.735   1.191   2.731  1.1428  1.5215  0.8873
 3025SOL     OW18865   9.317   2.025   1.065 -0.0712  0.0713 -0.0869
 3025SOL    HW118866   9.301   2.066   0.975  0.1189 -0.3378 -0.3048
 3025SOL    HW218867   9.353   1.933   1.054 -2.8253 -1.1048  0.3894
 3027SOL     OW18868   5.752   0.303   3.827  0.4800 -0.5242  0.1667
 3027SOL    HW118869   5.690   0.247   3.883  1.0133  1.3324  2.6822
 3027SOL    HW218870   5.841   0.258   3.820 -0.0388 -1.4715 -0.4622
 3028SOL     OW18871   0.564   5.672   6.678  0.2093 -0.3149 -0.2977
 3028SOL    HW118872   0.537   5.576   6.678 -0.1115 -0.2285 -1.0318
 3028SOL    HW218873   0.580   5.703   6.772 -0.5164 -0.8505  0.0031
 3029SOL     OW18874   9.628   9.593   6.649  0.3909  0.2466  0.2311
 3029SOL    HW118875   9.645   9.516   6.711  2.6929  0.5648  0.0250
 3029SOL    HW218876   9.657   9.678   6.692 -1.5322  0.9504  0.1878
 3030SOL     OW18877   6.534   1.601   6.318  0.5486 -0.0840 -0.1123
 3030SOL    HW118878   6.476   1.683   6.329  1.6828  0.4950  1.7071
 3030SOL    HW218879   6.574   1.601   6.226 -0.3309  0.8112 -0.5127
 3032SOL     OW18880   3.796   0.085   1.060  0.2620 -0.6376  0.0977
 3032SOL    HW118881   3.881   0.094   1.007 -0.1667 -1.0820 -0.6858
 3032SOL    HW218882   3.733   0.157   1.033  0.6800  0.1617  1.2459
 3033SOL     OW18883   8.538   2.729   6.598  0.3257  0.6774  0.4431
 3033SOL    HW118884   8.516   2.696   6.690 -2.5792 -0.5512 -0.6230
 3033SOL    HW218885   8.487   2.813   6.579  1.3176  1.2157  0.1374
 3034SOL     OW18886   4.781   2.630   5.825 -0.1366  0.2446  0.2307
 3034SOL    HW118887   4.838   2.639   5.907 -0.7415  3.1948  0.3630
 3034SOL    HW218888   4.832   2.660   5.745 -1.1056  1.9273  0.2151
 3035SOL     OW18889   7.603   7.483   6.481  0.0409  0.3217  0.3896
 3035SOL    HW118890   7.675   7.450   6.420 -1.2159 -1.3264 -0.2650
 3035SOL    HW218891   7.611   7.582   6.493  1.2558  0.4257 -1.1722
 3036SOL     OW18892   0.378   9.964   4.920  0.9064  0.3092  0.2188
 3036SOL    HW118893   0.319   9.894   4.881  0.0298 -0.0832  2.2158
 3036SOL    HW218894   0.358  10.052   4.878  0.7357 -0.2888 -0.9783
 3037SOL     OW18895   3.215   3.763   0.609  0.0865 -0.2616  0.1192
 3037SOL    HW118896   3.187   3.697   0.679  1.9483  0.4665  1.5953
 3037SOL    HW218897   3.315   3.769   0.607  0.0006  1.0174 -1.4139
 3039SOL     OW18898   7.312   8.157   7.320  0.3357 -0.7040  0.3689
 3039SOL    HW118899   7.324   8.211   7.236  1.4207 -2.9917 -0.9927
 3039SOL    HW218900   7.331   8.215   7.400  3.0762  0.5148 -1.0842
 3040SOL     OW18901   8.134   8.188   2.262 -0.0877 -0.0113 -0.7514
 3040SOL    HW118902   8.153   8.158   2.169 -0.1252 -1.1243 -0.4031
 3040SOL    HW218903   8.166   8.119   2.327 -3.9093 -1.2996 -0.0656
 3041SOL     OW18904   4.004   3.854   0.067 -0.1670  0.4510 -0.1034
 3041SOL    HW118905   3.945   3.890   0.138 -1.1183 -1.2164 -0.0151
 3041SOL    HW218906   4.038   3.929   0.010 -1.2084  1.5657  0.7241
 3042SOL     OW18907   2.711   4.964   2.612  0.0572 -0.2204  0.6775
 3042SOL    HW118908   2.648   5.009   2.676 -1.1244  2.2214 -2.1186
 3042SOL    HW218909   2.786   5.026   2.590  0.2727 -0.9261 -0.5798
 3044SOL     OW18910   1.557   6.012   1.354 -0.0044  0.1277  0.8390
 3044SOL    HW118911   1.562   5.985   1.450  1.9036 -1.5417  0.3099
 3044SOL    HW218912   1.484   5.961   1.309  1.7969 -2.2128  0.4852
 3045SOL     OW18913   2.351   1.562   7.099  0.0986  0.3582 -0.1515
 3045SOL    HW118914   2.307   1.606   7.020 -0.0676 -0.0598 -0.2912
 3045SOL    HW218915   2.448   1.585   7.101 -0.3396  2.2505  0.8095
 3048SOL     OW18916   0.049   6.385   5.280  0.4505  0.0092  0.2358
 3048SOL    HW118917   0.044   6.417   5.185  3.4466 -2.0232 -0.6915
 3048SOL    HW218918   0.090   6.294   5.283 -0.8761 -0.5622  3.4100
 3050SOL     OW18919   1.721   4.429   2.600  0.1842  0.7077  0.4786
 3050SOL    HW118920   1.762   4.496   2.662 -1.4136  1.6859  0.5090
 3050SOL    HW218921   1.690   4.350   2.652  0.3732  0.7790  0.6989
 3051SOL     OW18922   4.649   2.204   0.888 -0.5923  0.9963  0.0248
 3051SOL    HW118923   4.725   2.229   0.948  0.0258  0.4878 -0.5487
 3051SOL    HW218924   4.647   2.265   0.809 -1.4140  1.6708  0.5509
 3053SOL     OW18925   5.122   7.010   2.518 -0.8209 -0.3340 -0.2463
 3053SOL    HW118926   5.101   6.994   2.422 -0.5056  1.3133 -0.5948
 3053SOL    HW218927   5.069   7.088   2.551 -1.1810 -1.0909  1.0148
 3054SOL     OW18928   3.761   6.658   2.308 -0.4993  0.1570  0.3736
 3054SOL    HW118929   3.684   6.601   2.277 -1.6233  0.9873  1.6020
 3054SOL    HW218930   3.728   6.728   2.370  1.2592  0.5815  0.8642
 3055SOL     OW18931   3.529   6.535   2.232 -0.4711 -0.0794  0.0597
 3055SOL    HW118932   3.506   6.473   2.307  0.8266  0.3231  0.8050
 3055SOL    HW218933   3.477   6.509   2.151 -1.2166 -1.0809  0.8389
 3056SOL     OW18934   8.563   6.662   6.989 -0.4718  0.1422  0.0916
 3056SOL    HW118935   8.634   6.714   6.942  1.1287 -0.3189  1.9297
 3056SOL    HW218936   8.552   6.573   6.944 -0.2838  0.4482 -0.5582
 3057SOL     OW18937   6.301   0.804   2.559 -0.6245 -0.0482 -0.6070
 3057SOL    HW118938   6.239   0.780   2.484 -1.8939  1.7388 -0.1595
 3057SOL    HW218939   6.358   0.882   2.531 -1.4745  0.9726  0.4490
 3059SOL     OW18940   2.082   0.315   6.860 -0.2806  0.3088 -0.0437
 3059SOL    HW118941   2.102   0.269   6.774 -2.8903 -1.6807  0.3667
 3059SOL    HW218942   2.159   0.303   6.923  0.1938 -1.2026 -0.9011
 3060SOL     OW18943   3.258   8.130   2.179  0.4265 -0.3809  0.0953
 3060SOL    HW118944   3.339   8.090   2.222  0.2548 -1.2319 -0.3579
 3060SOL    HW218945   3.282   8.165   2.089  0.5681  0.5190  0.4763
 3061SOL     OW18946   6.546   9.571   6.949 -0.5781  0.5060 -0.1647
 3061SOL    HW118947   6.464   9.539   6.902  0.2689 -0.6330 -0.9001
 3061SOL    HW218948   6.612   9.607   6.882  0.4032 -0.5941  0.1907
 3064SOL     OW18949   2.475   8.985   3.578 -0.3024  0.0731  0.4516
 3064SOL    HW118950   2.442   9.080   3.578  1.5581  0.7409  0.2784
 3064SOL    HW218951   2.499   8.958   3.485  0.6674 -0.0139  0.7154
 3067SOL     OW18952   2.563   3.787   0.312 -0.2576 -0.2515 -0.8029
 3067SOL    HW118953   2.499   3.793   0.389  0.0489 -0.7306 -0.5069
 3067SOL    HW218954   2.556   3.870   0.257  0.6226  0.7917  0.6217
 3068SOL     OW18955   4.345   7.598   0.794 -0.3526 -0.1655  0.5702
 3068SOL    HW118956   4.376   7.689   0.821 -0.4197 -0.1452  0.5784
 3068SOL    HW218957   4.269   7.606   0.730 -0.3945 -0.2160  0.6127
 3070SOL     OW18958   5.570   9.378   4.706  0.1460 -0.3103  0.1554
 3070SOL    HW118959   5.501   9.438   4.748  0.5045 -0.2367  0.6475
 3070SOL    HW218960   5.620   9.429   4.636 -1.2126 -0.7610 -1.1564
 3071SOL     OW18961   6.955   8.376   4.101 -0.3445  0.8808  0.0727
 3071SOL    HW118962   6.914   8.411   4.185  2.8349  1.0171  1.6764
 3071SOL    HW218963   7.052   8.357   4.117 -0.0772 -0.8376 -3.0818
 3072SOL     OW18964   3.968   4.025   3.094  0.0656  0.2528  0.6727
 3072SOL    HW118965   3.884   4.052   3.047 -1.4221 -1.2269  2.4121
 3072SOL    HW218966   3.951   4.020   3.193  2.0443 -0.5887  0.9936
 3074SOL     OW18967   0.659   1.050   5.907 -0.1849  0.5604 -0.1832
 3074SOL    HW118968   0.600   1.102   5.969 -0.0435 -0.1132  0.5227
 3074SOL    HW218969   0.632   1.069   5.812 -1.7029  0.0703  0.1308
 3075SOL     OW18970   1.653   9.158   4.284 -0.0322  0.5139  0.5730
 3075SOL    HW118971   1.574   9.148   4.345 -0.3281  0.0260  0.1055
 3075SOL    HW218972   1.700   9.244   4.305  1.0400 -0.5662  2.8716
 3077SOL     OW18973   6.199   3.395   0.206  0.1201  0.1010 -0.5671
 3077SOL    HW118974   6.165   3.370   0.116  1.1015 -0.0432 -0.8992
 3077SOL    HW218975   6.258   3.323   0.242  0.5469  0.6007 -0.2454
 3078SOL     OW18976   3.683   1.094   7.473 -0.2165 -0.4615  0.4228
 3078SOL    HW118977   3.735   1.159   7.529  0.5722  0.4026 -1.2999
 3078SOL    HW218978   3.744   1.022   7.441 -0.4118 -0.3193 -0.2776
 3080SOL     OW18979   4.475   9.895   6.944  0.6265  0.5247 -0.1859
 3080SOL    HW118980   4.487   9.945   6.859  0.0354 -0.7765 -1.0487
 3080SOL    HW218981   4.528   9.810   6.941  0.4485  0.3778  0.6634
 3081SOL     OW18982   0.348   1.468   5.195 -0.3309 -0.4230  0.3563
 3081SOL    HW118983   0.445   1.490   5.203 -0.3613 -0.2857  0.3502
 3081SOL    HW218984   0.296   1.551   5.174 -0.6465 -0.1892  1.9571
 3082SOL     OW18985   3.656   3.637   6.372  0.0278 -0.2051  0.3492
 3082SOL    HW118986   3.637   3.582   6.290 -1.6920  1.9189 -0.7238
 3082SOL    HW218987   3.733   3.699   6.354  0.4775 -0.6298  0.7886
 3083SOL     OW18988   9.189   2.969   6.350 -0.0913 -0.0052 -0.4061
 3083SOL    HW118989   9.141   2.940   6.267 -1.2424 -1.1624  0.6516
 3083SOL    HW218990   9.196   3.069   6.350 -1.4744  0.1112 -1.1559
 3084SOL     OW18991   4.379   6.961   0.490 -0.2549  0.5024 -0.0976
 3084SOL    HW118992   4.358   6.873   0.447  0.2466  1.0277 -1.4588
 3084SOL    HW218993   4.295   7.004   0.521 -0.5739 -0.1267 -0.0879
 3085SOL     OW18994   9.652   1.475   4.444 -0.7095 -0.4312  0.0256
 3085SOL    HW118995   9.625   1.570   4.451 -1.9278 -0.8190  0.6858
 3085SOL    HW218996   9.630   1.427   4.530  0.5481 -1.1359 -0.0280
 3086SOL     OW18997   0.674   2.645   7.230  0.1630  0.1245 -0.1599
 3086SOL    HW118998   0.636   2.734   7.253 -0.9523 -0.4798  0.3620
 3086SOL    HW218999   0.609   2.573   7.256  0.1366 -0.7288 -2.4654
 3087SOL     OW19000   9.064   3.453   2.041 -0.3762  0.4703  0.4818
 3087SOL    HW119001   9.104   3.486   1.956  0.4108  0.6008  0.8993
 3087SOL    HW219002   9.122   3.479   2.118 -2.1251  2.1524  1.2814
 3088SOL     OW19003   6.695   0.259   7.609  0.5707  0.1534  0.2717
 3088SOL    HW119004   6.619   0.213   7.654  2.6179 -1.9847  1.6642
 3088SOL    HW219005   6.667   0.289   7.518 -1.9789 -0.3950  0.8375
 3089SOL     OW19006   7.880   3.946   7.140  0.2404 -0.2512 -0.0295
 3089SOL    HW119007   7.963   3.925   7.088  0.6001  0.7947  0.1189
 3089SOL    HW219008   7.889   3.911   7.233  1.1661  1.2148  0.4534
 3090SOL     OW19009   7.667   9.359   7.085  0.3510  0.3547  0.3852
 3090SOL    HW119010   7.626   9.341   7.174  0.8635  0.6306  0.6842
 3090SOL    HW219011   7.611   9.318   7.013 -1.1166  1.7850  0.6755
 3091SOL     OW19012   3.365   5.789   2.386  0.5416 -0.2692 -0.1164
 3091SOL    HW119013   3.375   5.859   2.315 -2.1778 -0.6318 -0.9345
 3091SOL    HW219014   3.429   5.714   2.369 -0.5663 -0.7125 -2.6947
 3092SOL     OW19015   9.268   9.025   7.194  0.0297  0.0708 -0.0436
 3092SOL    HW119016   9.187   9.052   7.142 -1.3315 -0.3352  1.8096
 3092SOL    HW219017   9.305   9.105   7.241  0.6688  0.2342 -0.8057
 3094SOL     OW19018   5.631   9.120   1.995  0.1987 -0.7501  0.0725
 3094SOL    HW119019   5.576   9.062   1.936  1.3461 -2.9491  1.0993
 3094SOL    HW219020   5.586   9.209   2.006 -1.0454 -1.0385 -2.3971
 3095SOL     OW19021   3.485   6.031   7.664  0.1523 -0.3855  0.2690
 3095SOL    HW119022   3.435   6.059   7.746  2.6020  0.8269  1.3743
 3095SOL    HW219023   3.477   6.101   7.593 -1.8482 -1.3719 -0.5280
 3096SOL     OW19024   5.284   0.228   5.190  0.1948  0.0295  0.0470
 3096SOL    HW119025   5.193   0.268   5.175  0.2369  0.0794 -0.0750
 3096SOL    HW219026   5.280   0.165   5.267  0.4663  1.4371  1.2396
 3097SOL     OW19027   8.202   7.440   4.547 -0.2109  0.7003  0.6109
 3097SOL    HW119028   8.167   7.453   4.454 -2.1027 -0.4659  1.1262
 3097SOL    HW219029   8.240   7.348   4.557  1.3301  1.3197  0.5971
 3098SOL     OW19030   1.651   5.342   7.409  0.2797 -0.1765 -0.3409
 3098SOL    HW119031   1.637   5.306   7.316 -0.9200  0.6815 -0.5122
 3098SOL    HW219032   1.700   5.274   7.464  0.8681 -0.7551 -1.5615
 3099SOL     OW19033   1.788   4.593   5.403  0.1817 -0.4943  0.9687
 3099SOL    HW119034   1.710   4.532   5.394  0.4761 -0.8831  1.0370
 3099SOL    HW219035   1.771   4.677   5.350 -0.6094 -0.2404  1.6222
 3100SOL     OW19036   0.755   8.355   0.566  0.2345  0.3285 -0.1114
 3100SOL    HW119037   0.774   8.338   0.663  2.1926 -1.8099 -0.8167
 3100SOL    HW219038   0.779   8.274   0.513 -0.2689  1.6795 -2.4689
 3101SOL     OW19039   0.468   2.398   0.679  0.1777  0.2807  0.3515
 3101SOL    HW119040   0.445   2.378   0.584 -0.7221 -0.9736  0.8226
 3101SOL    HW219041   0.419   2.480   0.708  0.6757  0.8343 -0.3381
 3102SOL     OW19042   1.727   6.774   4.561 -0.1288 -0.2034  0.2859
 3102SOL    HW119043   1.724   6.864   4.606 -0.6792 -0.7281  1.3149
 3102SOL    HW219044   1.633   6.741   4.548  0.1342 -1.4593  1.5834
 3103SOL     OW19045   7.462   0.263   3.893  0.0034 -0.1520 -0.3757
 3103SOL    HW119046   7.544   0.311   3.862 -1.1714  1.1302 -1.5755
 3103SOL    HW219047   7.387   0.328   3.900 -0.5943 -1.0591  2.0309
 3104SOL     OW19048   1.080   7.423   2.730  0.2368 -0.0335  0.4355
 3104SOL    HW119049   1.139   7.486   2.680  0.0576 -0.2443 -0.0510
 3104SOL    HW219050   1.074   7.337   2.679 -2.1435  0.6933 -0.5817
 3105SOL     OW19051   2.482   0.394   3.228  0.4388  0.0675  0.2310
 3105SOL    HW119052   2.442   0.448   3.302  0.3214 -1.4403  1.2804
 3105SOL    HW219053   2.473   0.444   3.141  0.1485  1.6261  1.1505
 3106SOL     OW19054   1.018   3.140   1.710  0.6588 -0.4261  0.4599
 3106SOL    HW119055   1.006   3.091   1.797 -0.1399 -2.8206 -0.9649
 3106SOL    HW219056   1.116   3.157   1.695  0.6374  2.8273  3.2853
 3107SOL     OW19057   3.779   3.143   1.449  0.3894  0.2017 -0.0626
 3107SOL    HW119058   3.683   3.166   1.458  0.4431  0.6732 -0.6601
 3107SOL    HW219059   3.808   3.088   1.527  0.0416  1.4190  0.9308
 3108SOL     OW19060   9.275   4.158   2.000 -0.5506 -0.1425 -0.1436
 3108SOL    HW119061   9.277   4.251   1.965 -2.0470 -0.1721 -0.3208
 3108SOL    HW219062   9.209   4.151   2.075 -1.9897 -1.5067 -1.4930
 3109SOL     OW19063   4.854   5.085   1.929 -0.1153  0.6801 -0.7985
 3109SOL    HW119064   4.859   4.990   1.898  1.5319  0.2022  0.8673
 3109SOL    HW219065   4.800   5.089   2.014  0.9240  1.0217 -0.1399
 3110SOL     OW19066   2.574   6.773   0.579 -0.2512  0.5296  0.0686
 3110SOL    HW119067   2.510   6.833   0.627 -1.7689 -0.2383 -0.9355
 3110SOL    HW219068   2.615   6.709   0.644 -1.8349 -0.1120  0.4730
 3111SOL     OW19069   9.521   9.545   6.404 -0.3278 -0.1224 -0.1636
 3111SOL    HW119070   9.549   9.579   6.494 -1.0955 -0.9350  0.4030
 3111SOL    HW219071   9.577   9.466   6.380  0.2302  0.4171 -0.6400
 3113SOL     OW19072   5.243   5.072   7.228  0.4370  0.1142  0.1103
 3113SOL    HW119073   5.294   5.136   7.286 -0.9433  0.9416  0.4428
 3113SOL    HW219074   5.218   5.119   7.143 -1.2005  0.2546  0.6594
 3115SOL     OW19075   2.823   9.933   6.823 -0.6353  0.4779 -0.2105
 3115SOL    HW119076   2.919   9.908   6.840 -0.6581  0.2511 -0.4186
 3115SOL    HW219077   2.777   9.945   6.911 -0.7300 -0.6321 -0.1049
 3117SOL     OW19078   0.865   9.514   7.488 -0.0847  0.1438  0.0299
 3117SOL    HW119079   0.913   9.509   7.576  1.9064  0.4428 -1.0324
 3117SOL    HW219080   0.925   9.553   7.419 -0.9994 -1.8453 -1.9344
 3118SOL     OW19081   1.702   5.546   3.806  0.5560  0.1684  0.2334
 3118SOL    HW119082   1.707   5.640   3.772  0.9657  0.0092 -0.1423
 3118SOL    HW219083   1.722   5.545   3.904 -0.8247  0.6565  0.5420
 3119SOL     OW19084   2.852   2.327   6.916  0.6227 -0.3337 -0.9098
 3119SOL    HW119085   2.788   2.357   6.988  0.0220  2.4613 -2.5437
 3119SOL    HW219086   2.931   2.388   6.914  0.1802  0.2184 -3.2243
 3120SOL     OW19087   0.597   6.472   6.130  0.1647  0.4911  0.2717
 3120SOL    HW119088   0.689   6.448   6.100  0.4612  0.0487  1.5214
 3120SOL    HW219089   0.534   6.466   6.052  0.9492 -0.4427 -0.3008
 3122SOL     OW19090   3.570   4.026   2.799  0.4427  0.0069  0.3414
 3122SOL    HW119091   3.492   4.024   2.862  0.0805 -0.9232 -0.1362
 3122SOL    HW219092   3.545   3.983   2.713  0.7408  1.8377 -0.6895
 3123SOL     OW19093   2.584   7.969   4.326  0.1091  0.2457 -0.0090
 3123SOL    HW119094   2.585   8.005   4.233  0.5267  1.3543  0.4107
 3123SOL    HW219095   2.503   8.001   4.374 -0.1335 -0.3667 -0.0088
 3125SOL     OW19096   0.866   0.462   4.565 -0.3291 -0.0070  0.0968
 3125SOL    HW119097   0.817   0.549   4.576  0.6585  0.5594  0.0204
 3125SOL    HW219098   0.826   0.412   4.488 -0.7605  0.4705  0.0031
 3127SOL     OW19099   8.515   7.383   3.054 -0.1639  0.3232 -0.5514
 3127SOL    HW119100   8.548   7.321   2.983  0.5119 -0.3877  0.3647
 3127SOL    HW219101   8.433   7.344   3.097  0.7967 -0.4112  0.6569
 3129SOL     OW19102   9.726   2.793   6.496 -0.5923  0.3663 -0.0815
 3129SOL    HW119103   9.634   2.832   6.490 -1.1920 -1.2407 -1.8821
 3129SOL    HW219104   9.791   2.865   6.520 -1.8826  2.1248 -1.7423
 3130SOL     OW19105   0.037   1.340   2.432  0.0379 -0.0655  0.0126
 3130SOL    HW119106   0.046   1.429   2.476  0.3353  0.3353 -0.8488
 3130SOL    HW219107   0.011   1.272   2.500  1.5382  0.3319  1.0198
 3131SOL     OW19108   8.154   7.551   3.061 -0.1028 -0.4694 -0.2236
 3131SOL    HW119109   8.157   7.460   3.102  1.0779  0.7766  2.5497
 3131SOL    HW219110   8.243   7.573   3.022  0.1317  0.1745  0.6614
 3132SOL     OW19111   7.036   5.013   0.920  0.1995 -0.5565 -0.8588
 3132SOL    HW119112   6.969   4.982   0.988  0.5241 -0.5169 -0.5213
 3132SOL    HW219113   6.989   5.065   0.849 -0.0566 -0.0747 -0.3451
 3133SOL     OW19114   8.613   7.784   3.268 -0.6915  0.2230  0.0998
 3133SOL    HW119115   8.600   7.752   3.361  1.8020 -0.7571  0.1395
 3133SOL    HW219116   8.701   7.831   3.260 -0.4515 -0.5036 -1.9535
 3134SOL     OW19117   1.382   9.491   5.060  0.2051 -0.1859  0.8077
 3134SOL    HW119118   1.420   9.459   5.147 -1.2377 -1.1850  1.0849
 3134SOL    HW219119   1.449   9.548   5.013  2.4947 -2.7723  0.7881
 3135SOL     OW19120   2.730   5.095   7.254 -0.0648  0.1946  0.2446
 3135SOL    HW119121   2.781   5.154   7.191  1.8215  0.8651  2.3580
 3135SOL    HW219122   2.657   5.148   7.298 -0.8392 -0.0602 -0.7085
 3136SOL     OW19123   2.879   4.685   2.159 -0.0948  0.0590  0.0617
 3136SOL    HW119124   2.857   4.746   2.083 -0.6421 -1.2457 -0.8389
 3136SOL    HW219125   2.909   4.739   2.237  1.9799  1.3393 -1.5746
 3139SOL     OW19126   0.716   5.812   4.581  0.5463  0.3840  0.0471
 3139SOL    HW119127   0.642   5.870   4.616  0.6578  1.5079 -1.4926
 3139SOL    HW219128   0.740   5.743   4.649  0.0377  1.8223  1.7152
 3141SOL     OW19129   1.568   8.639   1.990  1.0514 -0.1566  0.0083
 3141SOL    HW119130   1.539   8.558   2.041  1.8068 -0.9568 -0.8204
 3141SOL    HW219131   1.545   8.721   2.043 -0.2323 -0.8743  0.5958
 3142SOL     OW19132   8.617   3.559   7.426 -0.1716  0.0474  1.0634
 3142SOL    HW119133   8.642   3.616   7.505 -0.2294  0.6261  0.6700
 3142SOL    HW219134   8.664   3.593   7.345 -0.2187 -0.4664  0.8243
 3143SOL     OW19135   8.750   4.326   2.459  0.5292 -0.2389 -0.3699
 3143SOL    HW119136   8.756   4.227   2.447 -1.2324 -0.3482 -0.4613
 3143SOL    HW219137   8.713   4.346   2.549 -0.0633  0.3275 -0.7390
 3146SOL     OW19138   9.488   0.024   4.170 -1.0175 -0.3355 -0.2073
 3146SOL    HW119139   9.467   0.007   4.266 -0.4701 -0.5236 -0.1148
 3146SOL    HW219140   9.587   0.040   4.161 -0.7985 -2.0700 -0.9775
 3147SOL     OW19141   8.201   0.163   2.772  0.0248 -0.4668  0.5584
 3147SOL    HW119142   8.272   0.093   2.763 -0.4172 -0.5544 -2.7009
 3147SOL    HW219143   8.244   0.253   2.779  0.4910 -0.6406 -0.0372
 3148SOL     OW19144   9.718   1.816   1.067 -0.0586  0.6910 -0.0645
 3148SOL    HW119145   9.795   1.805   1.005 -1.0741  0.2467 -1.2585
 3148SOL    HW219146   9.752   1.837   1.159  1.5373 -1.0894 -0.2293
 3149SOL     OW19147   9.344   9.908   0.883  0.4456 -0.4012  0.6688
 3149SOL    HW119148   9.404   9.828   0.886  0.3316 -0.4733  1.1274
 3149SOL    HW219149   9.258   9.886   0.928  0.8498  0.3358  1.8282
 3150SOL     OW19150   9.026   9.969   2.256  0.0019 -0.1195 -0.0548
 3150SOL    HW119151   9.090   9.961   2.333  0.6258  1.4317 -0.3849
 3150SOL    HW219152   9.053   9.905   2.184  0.3807 -0.4444  0.3721
 3152SOL     OW19153   3.198   8.665   5.772  0.4877  0.7432  0.3498
 3152SOL    HW119154   3.250   8.737   5.725 -0.2344  0.7648 -0.4432
 3152SOL    HW219155   3.254   8.583   5.779  0.5033  0.6280 -0.8866
 3153SOL     OW19156   5.082   7.137   2.913  0.1675 -0.3473 -0.0002
 3153SOL    HW119157   5.132   7.220   2.889 -1.3006  0.7806  0.7369
 3153SOL    HW219158   5.147   7.064   2.934  1.4752  0.5234 -0.9434
 3154SOL     OW19159   9.143   7.029   4.072 -0.1862 -0.1639 -0.1097
 3154SOL    HW119160   9.110   7.068   3.987  0.9234  1.1457  0.0396
 3154SOL    HW219161   9.122   6.931   4.074 -2.0978  0.2036 -0.9329
 3156SOL     OW19162   7.231   7.417   4.197  0.1386 -0.2081 -0.0459
 3156SOL    HW119163   7.247   7.444   4.102 -1.1391  0.8613  0.0365
 3156SOL    HW219164   7.224   7.317   4.202 -0.0144 -0.2604 -1.0953
 3157SOL     OW19165   9.826   7.059   5.141  0.0334 -0.1562 -0.3470
 3157SOL    HW119166   9.871   7.120   5.076  0.5581 -1.5350 -1.2985
 3157SOL    HW219167   9.859   7.078   5.233  3.0221 -1.4753 -1.0747
 3158SOL     OW19168   8.233   2.830   2.152 -0.2747  0.0377 -0.1333
 3158SOL    HW119169   8.266   2.899   2.088 -1.4682  0.3147 -0.4599
 3158SOL    HW219170   8.144   2.858   2.188  0.2357 -0.2824  1.3951
 3160SOL     OW19171   5.428   1.519   0.478 -0.0034 -0.4266  0.1014
 3160SOL    HW119172   5.372   1.459   0.422 -0.4787 -0.2300  0.3641
 3160SOL    HW219173   5.519   1.479   0.489 -1.0488 -2.3017  2.3003
 3161SOL     OW19174   2.170   4.607   6.104  0.1667 -0.2817  0.1887
 3161SOL    HW119175   2.224   4.608   6.020 -0.8252  1.2287 -0.4617
 3161SOL    HW219176   2.108   4.529   6.103 -0.7276  0.4271 -1.0810
 3162SOL     OW19177   4.301   7.123   0.155  0.2917  0.1103  0.0771
 3162SOL    HW119178   4.375   7.171   0.203  1.3848  0.2168 -1.6515
 3162SOL    HW219179   4.308   7.142   0.057 -0.9595 -1.3236 -0.2994
 3163SOL     OW19180   2.008   8.170   0.527  0.3410 -0.1533 -0.0685
 3163SOL    HW119181   2.098   8.215   0.529  0.2228  0.1050 -0.6548
 3163SOL    HW219182   1.973   8.164   0.621  0.6828  0.3253  0.0953
 3164SOL     OW19183   3.488   8.001   5.742 -0.3314  0.2276 -0.2424
 3164SOL    HW119184   3.539   7.962   5.665  0.7841  3.7594 -1.4017
 3164SOL    HW219185   3.400   8.037   5.710 -1.1001 -0.7970  0.6840
 3167SOL     OW19186   7.373   1.029   6.338  0.4711 -0.0754 -0.5605
 3167SOL    HW119187   7.338   1.113   6.378 -1.0061 -1.5209  1.2863
 3167SOL    HW219188   7.469   1.041   6.312  0.7574  1.6352  1.2593
 3168SOL     OW19189   6.907   9.681   5.936  0.2784  0.5307 -0.1555
 3168SOL    HW119190   6.972   9.757   5.948 -0.8163  1.4661 -0.1211
 3168SOL    HW219191   6.871   9.681   5.843  1.6993 -1.1093 -0.7416
 3169SOL     OW19192   7.333   3.396   2.330  0.5575 -0.2321 -0.0042
 3169SOL    HW119193   7.243   3.373   2.294  0.9666 -0.2491 -1.0564
 3169SOL    HW219194   7.380   3.456   2.265  1.4384 -0.5086  0.3673
 3170SOL     OW19195   4.902   0.436   6.782 -0.1569  0.4409 -0.5233
 3170SOL    HW119196   4.948   0.438   6.693  0.2220  2.2118 -0.2960
 3170SOL    HW219197   4.808   0.404   6.770  0.1482 -0.1449 -1.4306
 3172SOL     OW19198   6.893   1.846   3.057  0.0744 -0.4875 -0.6325
 3172SOL    HW119199   6.842   1.930   3.072  2.8292  1.2863 -0.8700
 3172SOL    HW219200   6.926   1.843   2.962 -0.6867 -2.2425 -0.8675
 3173SOL     OW19201   1.992   7.820   0.678  0.1628 -0.1577 -0.1461
 3173SOL    HW119202   2.086   7.831   0.646 -0.7876  2.0836 -2.2646
 3173SOL    HW219203   1.931   7.882   0.629 -2.5060 -1.7492  0.9849
 3174SOL     OW19204   1.153   7.448   3.076  0.0844  0.3033  0.6665
 3174SOL    HW119205   1.074   7.412   3.027  0.3478 -1.1264  1.2784
 3174SOL    HW219206   1.135   7.543   3.102 -1.5489 -0.0892  1.0452
 3176SOL     OW19207   4.821   2.323   1.617  0.0688  0.2110  0.5382
 3176SOL    HW119208   4.913   2.319   1.657 -0.2677  0.4763  1.3532
 3176SOL    HW219209   4.782   2.231   1.616  0.0039  0.2313  1.0110
 3177SOL     OW19210   2.966   7.160   7.533  0.0663  0.0078 -0.4669
 3177SOL    HW119211   2.922   7.248   7.552  0.2259 -0.1723  0.7988
 3177SOL    HW219212   2.903   7.101   7.483  0.1436  1.0269 -1.7949
 3178SOL     OW19213   2.498   8.988   6.543 -0.0668 -0.2976  0.2449
 3178SOL    HW119214   2.549   9.066   6.580 -2.5896  2.1776 -1.2569
 3178SOL    HW219215   2.552   8.945   6.470  0.4432  1.4667 -0.4446
 3179SOL     OW19216   0.857   7.474   1.254  0.2122  0.3750 -0.6446
 3179SOL    HW119217   0.915   7.447   1.331  0.2179 -0.6966 -1.0173
 3179SOL    HW219218   0.914   7.520   1.185 -0.3572  4.4322  1.4389
 3181SOL     OW19219   2.705   5.893   4.874  0.6076  0.1681  0.0093
 3181SOL    HW119220   2.656   5.972   4.910  0.0335 -0.7381  1.2616
 3181SOL    HW219221   2.655   5.856   4.795 -0.1446 -0.0874  0.5986
 3182SOL     OW19222   5.603   9.618   1.806 -0.1647  0.0477 -0.3529
 3182SOL    HW119223   5.534   9.553   1.838 -0.2233 -0.1487 -0.8782
 3182SOL    HW219224   5.560   9.688   1.749 -0.1160  0.6027  0.2841
 3183SOL     OW19225   8.719   9.044   5.412  0.2348 -0.1727  0.0062
 3183SOL    HW119226   8.651   9.108   5.449  0.7802 -0.2700  1.2201
 3183SOL    HW219227   8.698   8.952   5.445  0.3017 -0.3866 -0.5418
 3184SOL     OW19228   3.378   2.595   2.003  0.1222  0.1132 -0.1990
 3184SOL    HW119229   3.283   2.570   2.017 -0.2481  0.3478 -2.1680
 3184SOL    HW219230   3.435   2.553   2.074 -1.0260 -2.7670 -0.9300
 3187SOL     OW19231   2.712   9.254   0.394  0.6577  0.1448  0.2535
 3187SOL    HW119232   2.753   9.272   0.305  1.6773 -0.3419  0.6118
 3187SOL    HW219233   2.669   9.164   0.393 -0.8979  0.8742 -0.2879
 3188SOL     OW19234   8.084   5.369   0.675  0.1427 -0.1087 -0.2710
 3188SOL    HW119235   8.115   5.305   0.605 -0.2665  0.6345 -1.1358
 3188SOL    HW219236   8.160   5.427   0.703  0.9269 -1.9480  1.6336
 3192SOL     OW19237   7.086   4.380   1.542 -0.4576 -0.0259 -0.0719
 3192SOL    HW119238   7.183   4.357   1.554 -0.0932  1.8225  0.6695
 3192SOL    HW219239   7.031   4.297   1.548  1.2265 -1.3534 -2.2891
 3193SOL     OW19240   4.512   9.085   5.641  0.0927  0.3357  0.1736
 3193SOL    HW119241   4.433   9.041   5.599  0.1011 -0.2966  0.8027
 3193SOL    HW219242   4.508   9.073   5.740  1.0177  0.2237  0.2071
 3194SOL     OW19243   1.013   3.316   0.590 -0.2854 -0.4271 -0.0417
 3194SOL    HW119244   1.010   3.284   0.685  2.2542  0.3554  0.3407
 3194SOL    HW219245   1.035   3.239   0.530  0.4446 -0.4791  0.2810
 3195SOL     OW19246   8.267   1.570   4.947  0.0735 -0.3265 -0.0714
 3195SOL    HW119247   8.339   1.591   4.881  1.5646 -0.2295  1.5421
 3195SOL    HW219248   8.219   1.487   4.918  1.2511 -0.7642 -0.8346
 3196SOL     OW19249   7.612   5.696   6.428  0.4032 -0.3366  0.1165
 3196SOL    HW119250   7.660   5.704   6.516  0.4170  0.7927  0.0261
 3196SOL    HW219251   7.675   5.662   6.358  0.7128 -0.1277  0.2912
 3197SOL     OW19252   8.855   4.301   4.211  0.1889 -0.3154 -0.5910
 3197SOL    HW119253   8.880   4.383   4.264  0.2874 -0.2607 -0.7224
 3197SOL    HW219254   8.756   4.296   4.203  0.1505 -0.5764  0.0033
 3198SOL     OW19255   9.323   6.314   4.908  0.5352  0.2141  0.0639
 3198SOL    HW119256   9.312   6.229   4.858  0.3169 -0.9520  2.0442
 3198SOL    HW219257   9.409   6.312   4.960 -0.6753  0.0972  2.1404
 3199SOL     OW19258   6.492   2.613   5.067  0.2421 -0.8121 -0.3362
 3199SOL    HW119259   6.588   2.641   5.066  0.2595 -0.8871 -1.0251
 3199SOL    HW219260   6.436   2.686   5.028  0.1714 -1.2993 -1.1626
 3200SOL     OW19261   6.960   3.495   2.906  0.4655  0.0692  0.8751
 3200SOL    HW119262   6.902   3.494   2.988 -2.0500 -1.4419 -0.8421
 3200SOL    HW219263   6.902   3.499   2.825  2.9423  2.1162 -0.8422
 3202SOL     OW19264   0.187   2.921   0.032  0.3086 -0.9653 -0.4709
 3202SOL    HW119265   0.207   3.019   0.018  1.4177 -1.0800  0.2257
 3202SOL    HW219266   0.100   2.899  -0.010 -0.8332  0.7262  0.9095
 3203SOL     OW19267   9.847   5.807   5.175 -0.1232  0.2788  0.1734
 3203SOL    HW119268   9.792   5.772   5.250 -1.4450  1.5414 -0.1912
 3203SOL    HW219269   9.905   5.734   5.139  0.0560 -0.4924  1.9972
 3204SOL     OW19270   3.869   3.846   7.163  0.6029 -0.6460 -0.2801
 3204SOL    HW119271   3.770   3.855   7.160  0.6296  0.4393  1.4521
 3204SOL    HW219272   3.900   3.790   7.085 -1.4362 -1.8827 -0.2397
 3205SOL     OW19273   2.238   2.256   5.377  0.1944 -0.3282 -0.3025
 3205SOL    HW119274   2.287   2.275   5.462 -0.3022  0.1941 -0.1290
 3205SOL    HW219275   2.204   2.341   5.338  1.4208 -0.4311 -1.6531
 3206SOL     OW19276   2.712   2.875   3.705  0.1363 -0.4562 -0.1839
 3206SOL    HW119277   2.652   2.953   3.691  0.6842  0.2171  1.1755
 3206SOL    HW219278   2.677   2.818   3.779  0.8442 -0.3653  0.2323
 3207SOL     OW19279   2.225   0.173   2.881 -0.3165  0.0990  0.4526
 3207SOL    HW119280   2.171   0.160   2.964  0.2953  1.3850  1.0601
 3207SOL    HW219281   2.224   0.088   2.828  0.1523 -1.1016  2.2821
 3208SOL     OW19282   8.792   1.402   1.232 -0.1270  0.2094  0.2941
 3208SOL    HW119283   8.828   1.407   1.326  0.7242  0.9911 -0.0601
 3208SOL    HW219284   8.712   1.343   1.230 -0.7969  1.0437  1.7186
 3209SOL     OW19285   4.583   6.135   0.322 -0.8515 -0.5394 -0.0215
 3209SOL    HW119286   4.607   6.042   0.349 -1.7208 -0.7946 -0.1077
 3209SOL    HW219287   4.484   6.142   0.312 -0.7641  0.3154 -0.3227
 3211SOL     OW19288   4.130   4.306   2.405 -0.2350 -0.2121 -0.4692
 3211SOL    HW119289   4.049   4.252   2.381 -0.8750  0.5214  0.0257
 3211SOL    HW219290   4.165   4.352   2.324 -0.2439 -0.6217 -0.7076
 3214SOL     OW19291   5.391   5.718   0.069 -0.3380  0.0751 -0.2795
 3214SOL    HW119292   5.443   5.787   0.019 -0.0134 -1.1451 -1.6921
 3214SOL    HW219293   5.304   5.757   0.099  0.1704  1.3126 -0.3898
 3215SOL     OW19294   1.619   2.417   2.871 -0.0978 -0.5152  0.1506
 3215SOL    HW119295   1.643   2.391   2.964 -0.5697  0.1970  0.4806
 3215SOL    HW219296   1.563   2.345   2.829  1.5818 -1.6259 -0.2013
 3216SOL     OW19297   9.656   3.123   6.359 -0.3893 -0.0343 -0.6563
 3216SOL    HW119298   9.737   3.083   6.316  1.0482  0.7516  1.2458
 3216SOL    HW219299   9.591   3.051   6.382  1.7527 -1.2561  1.8441
 3217SOL     OW19300   1.388   7.409   0.897  0.3918  0.1070 -0.4058
 3217SOL    HW119301   1.432   7.325   0.866  0.0168 -0.1646 -0.2054
 3217SOL    HW219302   1.403   7.481   0.830 -2.4700 -1.0907 -2.4715
 3218SOL     OW19303   3.012   4.300   4.507 -0.4801 -0.1583  0.2061
 3218SOL    HW119304   3.005   4.323   4.410  1.0380 -2.4092 -0.4864
 3218SOL    HW219305   2.926   4.258   4.537 -1.0814  0.8649 -0.0564
 3219SOL     OW19306   1.272   2.469   2.277  0.2182  0.0253 -0.6131
 3219SOL    HW119307   1.266   2.443   2.374 -0.7583  0.4292 -0.5494
 3219SOL    HW219308   1.361   2.511   2.259  0.8680 -1.1421 -0.1672
 3220SOL     OW19309   3.633   1.272   2.471 -0.3927  0.0212  0.1670
 3220SOL    HW119310   3.589   1.316   2.550  1.4151 -0.1733  1.3054
 3220SOL    HW219311   3.625   1.173   2.479 -1.3419  0.0294 -0.5753
 3221SOL     OW19312   7.015   1.125   6.613 -0.0657 -0.0321  0.0000
 3221SOL    HW119313   7.000   1.031   6.644  2.5437 -0.0601  1.2820
 3221SOL    HW219314   7.095   1.128   6.553 -0.7075  1.2388 -0.8191
 3222SOL     OW19315   8.074   9.998   6.582  0.3504  0.0414 -0.5750
 3222SOL    HW119316   8.118   9.985   6.671 -0.0995 -0.1602 -0.3783
 3222SOL    HW219317   8.085   9.915   6.527  0.6884  0.1915 -0.7368
 3223SOL     OW19318   0.526   4.687   2.244 -0.2839 -0.3032  0.1077
 3223SOL    HW119319   0.600   4.635   2.202 -0.7300  0.2306 -1.3875
 3223SOL    HW219320   0.490   4.638   2.323 -0.8294 -2.3541 -1.3846
 3224SOL     OW19321   6.294   9.548   4.331 -0.0181 -0.5254  0.1296
 3224SOL    HW119322   6.356   9.546   4.410  1.4961 -0.3939 -1.0422
 3224SOL    HW219323   6.300   9.462   4.281 -2.3296 -1.3083  1.1705
 3225SOL     OW19324   1.826   6.244   0.469  0.3228 -0.0088  0.1648
 3225SOL    HW119325   1.775   6.221   0.551  0.9327 -0.7903  0.3270
 3225SOL    HW219326   1.770   6.226   0.388  0.5722 -1.4738  0.3169
 3226SOL     OW19327   9.622   6.639   4.044 -0.2181 -0.0330  0.4388
 3226SOL    HW119328   9.650   6.733   4.066 -1.0608  0.1831  0.6200
 3226SOL    HW219329   9.685   6.600   3.977 -1.5875  1.7290 -1.9555
 3227SOL     OW19330   7.892   4.486   3.492 -0.2992 -0.0838 -0.0743
 3227SOL    HW119331   7.872   4.530   3.579 -2.6972  0.6278 -0.9475
 3227SOL    HW219332   7.990   4.465   3.487  1.0013  5.1447  0.4002
 3229SOL     OW19333   7.084   2.826   3.614 -0.4970  0.1653 -0.1432
 3229SOL    HW119334   7.170   2.866   3.645 -0.1340 -0.5222 -0.2550
 3229SOL    HW219335   7.073   2.844   3.516 -0.8049  0.8341  0.0138
 3230SOL     OW19336   1.058   0.191   6.434  0.0123 -0.5367  0.6653
 3230SOL    HW119337   1.155   0.199   6.408 -0.2219 -0.4389 -0.2008
 3230SOL    HW219338   1.016   0.281   6.432 -0.9297 -0.9752 -2.3290
 3231SOL     OW19339   2.400   4.756   2.610 -0.1319 -0.1492  0.1926
 3231SOL    HW119340   2.341   4.806   2.546  1.3273 -0.0105 -1.0683
 3231SOL    HW219341   2.493   4.752   2.574  0.0178 -2.8777  0.7748
 3232SOL     OW19342   3.883   3.916   4.396 -0.0295  0.1800 -0.1507
 3232SOL    HW119343   3.921   3.828   4.423 -1.1252 -0.2906 -0.1282
 3232SOL    HW219344   3.958   3.979   4.375  0.8222  0.1192  2.5327
 3233SOL     OW19345   0.571   5.015   5.217 -0.0123 -0.1677  0.0312
 3233SOL    HW119346   0.501   5.083   5.240  0.2323  0.4163 -0.9183
 3233SOL    HW219347   0.564   4.992   5.120  0.0736 -1.3155  0.2899
 3234SOL     OW19348   7.270   0.741   6.751  0.0680 -0.6415  0.1343
 3234SOL    HW119349   7.222   0.729   6.838  0.6924 -1.5337  0.3627
 3234SOL    HW219350   7.246   0.667   6.689 -1.7429  0.9258 -1.1147
 3235SOL     OW19351   1.735   4.374   5.957 -0.2062 -0.4288 -0.0041
 3235SOL    HW119352   1.650   4.367   6.008  0.8170  3.5951  2.4554
 3235SOL    HW219353   1.740   4.462   5.911  2.6062 -0.6011 -0.1507
 3236SOL     OW19354   5.404   9.441   5.018  0.2234 -0.0715 -1.3336
 3236SOL    HW119355   5.326   9.456   5.079  1.0559  0.1270 -0.3048
 3236SOL    HW219356   5.425   9.344   5.014  0.2414 -0.0729 -1.2089
 3237SOL     OW19357   5.079   0.593   5.690 -0.3917  0.1781 -0.8979
 3237SOL    HW119358   5.039   0.502   5.701  0.6575 -0.1747  0.0338
 3237SOL    HW219359   5.082   0.639   5.779 -0.9734  1.1544 -1.3710
 3238SOL     OW19360   2.693   8.148   7.574 -0.1664 -0.1053  0.0418
 3238SOL    HW119361   2.680   8.238   7.615  2.3587 -0.1156  0.9605
 3238SOL    HW219362   2.712   8.158   7.477 -1.4740  0.2266 -0.1929
 3239SOL     OW19363   9.312   0.735   6.643 -0.0271  0.2779 -0.0407
 3239SOL    HW119364   9.269   0.773   6.561 -1.3476 -1.2913 -0.0944
 3239SOL    HW219365   9.320   0.636   6.634  1.8419  0.3219  0.8122
 3240SOL     OW19366   9.353   3.166   0.460  0.3891  0.1313 -0.6137
 3240SOL    HW119367   9.396   3.229   0.525 -1.5019 -0.0571  0.8562
 3240SOL    HW219368   9.337   3.078   0.504  1.2249 -0.7761 -2.0736
 3241SOL     OW19369   0.326   2.433   3.150  0.2741  0.1399 -0.4548
 3241SOL    HW119370   0.249   2.371   3.139 -0.1196  0.6707 -0.7101
 3241SOL    HW219371   0.411   2.380   3.157 -0.1485 -0.4532  0.1761
 3243SOL     OW19372   4.719   0.942   0.484 -0.1465 -0.1509 -0.0123
 3243SOL    HW119373   4.797   0.972   0.430  0.6840 -0.3728  1.0278
 3243SOL    HW219374   4.693   0.849   0.457  1.0821 -0.7511  0.8386
 3244SOL     OW19375   5.570   2.339   1.687  0.0081  0.2357 -0.5049
 3244SOL    HW119376   5.659   2.365   1.650 -0.0159  1.0503 -0.0007
 3244SOL    HW219377   5.503   2.333   1.613  0.3601  0.1452 -0.8127
 3245SOL     OW19378   1.012   6.010   6.860 -0.1531  0.1528  0.2058
 3245SOL    HW119379   1.001   5.945   6.784 -1.4692  1.1086 -0.4379
 3245SOL    HW219380   1.108   6.035   6.869  0.4725 -2.3549  0.8621
 3248SOL     OW19381   0.029   5.321   3.403 -0.4847 -0.7576 -0.7836
 3248SOL    HW119382   0.093   5.263   3.353 -1.5860 -1.5147 -1.3265
 3248SOL    HW219383   0.067   5.413   3.410  1.4267 -1.5813  0.3594
 3250SOL     OW19384   5.153   3.804   6.624  0.0148 -0.1858 -0.3637
 3250SOL    HW119385   5.056   3.782   6.632  0.1218 -0.5533 -0.0513
 3250SOL    HW219386   5.183   3.788   6.530 -0.6892  1.8400 -0.9423
 3251SOL     OW19387   3.768   1.732   5.932 -0.2019 -0.1944  0.1752
 3251SOL    HW119388   3.688   1.780   5.967 -0.9737 -1.4614  0.1882
 3251SOL    HW219389   3.741   1.672   5.857  0.9036  0.0788 -0.4528
 3253SOL     OW19390   2.431   0.389   6.803  0.1476 -0.0282 -0.7290
 3253SOL    HW119391   2.353   0.379   6.866  0.0140 -1.2633 -1.0657
 3253SOL    HW219392   2.488   0.465   6.832 -0.1772 -0.2847  0.6173
 3255SOL     OW19393   2.803   4.841   1.945 -0.7028 -0.5141  0.0847
 3255SOL    HW119394   2.778   4.933   1.974  1.9890  0.0149  0.7960
 3255SOL    HW219395   2.819   4.840   1.846 -0.0952 -0.0760  0.1806
 3256SOL     OW19396   0.557   2.025   1.829 -0.1385  0.3475  0.3714
 3256SOL    HW119397   0.599   2.044   1.740 -0.9424 -2.2953 -0.6324
 3256SOL    HW219398   0.466   1.985   1.814 -0.4222  0.2142  2.3976
 3257SOL     OW19399   4.285   9.501   2.145 -0.2992 -0.2053  0.3008
 3257SOL    HW119400   4.279   9.548   2.057  0.7740  0.0222  0.3394
 3257SOL    HW219401   4.369   9.446   2.147  1.2693  2.1368  2.3067
 3258SOL     OW19402   3.328   0.378   3.452 -0.0847  0.1972 -0.1573
 3258SOL    HW119403   3.310   0.283   3.426  2.4064 -0.4266  0.3213
 3258SOL    HW219404   3.255   0.410   3.512  0.4440 -2.3432  1.9769
 3260SOL     OW19405   1.949   8.472   7.373 -0.1755 -0.2770  0.6987
 3260SOL    HW119406   1.877   8.421   7.421 -0.3139  1.5152  2.4419
 3260SOL    HW219407   2.030   8.477   7.430 -0.2689  1.7151  0.6801
 3261SOL     OW19408   2.127   5.371   0.005 -0.0449  0.5790  0.3524
 3261SOL    HW119409   2.224   5.370   0.031  0.0449  1.5334  0.0853
 3261SOL    HW219410   2.090   5.463   0.019 -1.3601 -0.1844  2.1058
 3262SOL     OW19411   4.454   3.907   0.916  0.3163  0.3563 -1.0069
 3262SOL    HW119412   4.543   3.949   0.933  0.2633  1.3757 -3.0684
 3262SOL    HW219413   4.435   3.908   0.818 -1.7028 -0.4010 -0.6483
 3263SOL     OW19414   4.306   4.426   0.362 -0.3536 -0.1239  0.2981
 3263SOL    HW119415   4.354   4.372   0.294 -0.3619 -0.7973  0.8208
 3263SOL    HW219416   4.287   4.517   0.325 -4.9987 -2.0728 -2.6199
 3264SOL     OW19417   3.855   4.914   4.689  0.1961  0.4632 -0.3353
 3264SOL    HW119418   3.833   4.827   4.734 -0.6291  0.9726  0.2572
 3264SOL    HW219419   3.943   4.906   4.642  0.4895 -0.4459  0.3632
 3265SOL     OW19420   9.928   5.154   1.419  0.0353  0.2664 -0.3067
 3265SOL    HW119421   9.956   5.246   1.446  1.8145 -0.9020  2.0587
 3265SOL    HW219422   9.830   5.142   1.434 -0.4256  2.0874 -1.6902
 3267SOL     OW19423   3.624   9.840   1.580  0.0738  0.1730 -0.0711
 3267SOL    HW119424   3.673   9.795   1.505  1.3184  0.1231  0.7501
 3267SOL    HW219425   3.632   9.784   1.663 -0.2115  0.8552  0.4220
 3268SOL     OW19426   9.776   9.170   1.257  0.0880  0.3394 -0.4217
 3268SOL    HW119427   9.743   9.101   1.321  1.2379 -0.4975 -0.7250
 3268SOL    HW219428   9.864   9.205   1.288  0.0843  0.7822 -0.9133
 3269SOL     OW19429   6.044   9.169   6.141 -0.3383 -0.6858  0.1453
 3269SOL    HW119430   6.094   9.113   6.208  0.7945 -0.5481 -0.5799
 3269SOL    HW219431   5.950   9.135   6.134 -0.0523 -1.6249  0.7239
 3270SOL     OW19432   2.869   2.857   3.314 -0.2411  0.3010  0.0704
 3270SOL    HW119433   2.892   2.878   3.410  0.8747  0.7808 -0.2911
 3270SOL    HW219434   2.882   2.939   3.259  2.3105 -0.7925 -1.0482
 3272SOL     OW19435   7.141   3.288   2.191  0.4264  0.7102 -0.1907
 3272SOL    HW119436   7.117   3.202   2.236 -2.2233  2.0829  1.1283
 3272SOL    HW219437   7.081   3.303   2.113 -0.5201  2.3453  0.8294
 3273SOL     OW19438   3.598   6.787   5.725  0.1847  0.5060  0.3473
 3273SOL    HW119439   3.653   6.725   5.781  0.8234  0.5829 -0.1848
 3273SOL    HW219440   3.650   6.871   5.708  0.4844  0.0095 -1.3313
 3274SOL     OW19441   9.599   3.759   0.957 -0.0640  0.3361  0.3336
 3274SOL    HW119442   9.682   3.811   0.938  0.1527  0.1123  0.6478
 3274SOL    HW219443   9.534   3.817   1.007  0.0361  0.4126  0.3754
 3277SOL     OW19444   1.431   9.536   1.800  0.2864  0.3865 -0.5054
 3277SOL    HW119445   1.380   9.513   1.883 -2.1411  1.2715 -1.6925
 3277SOL    HW219446   1.473   9.453   1.763 -0.0905 -0.3261  0.6295
 3278SOL     OW19447   0.992   2.237   7.405  0.7372  0.3134 -0.0014
 3278SOL    HW119448   1.082   2.215   7.442  0.5520  0.8936  0.7942
 3278SOL    HW219449   0.964   2.328   7.435  0.2341  0.4657 -0.9086
 3279SOL     OW19450   3.909   4.938   5.376  0.2063 -0.3505 -0.6601
 3279SOL    HW119451   3.861   4.864   5.330 -1.1119  0.8450 -1.2626
 3279SOL    HW219452   3.870   5.026   5.346  0.5873  0.5072  1.3208
 3280SOL     OW19453   8.890   8.391   5.495 -0.0756  0.6003 -0.2072
 3280SOL    HW119454   8.982   8.352   5.496 -0.5087 -0.4185  1.3957
 3280SOL    HW219455   8.861   8.413   5.588 -2.2391 -1.0255 -0.4385
 3281SOL     OW19456   7.409   8.898   3.929  0.1125 -0.3655  0.7839
 3281SOL    HW119457   7.356   8.825   3.886  0.1394 -1.1113  2.0009
 3281SOL    HW219458   7.490   8.859   3.973 -0.6250  0.1833  2.6893
 3282SOL     OW19459   2.869   9.388   3.885 -0.1454  0.0683  0.3098
 3282SOL    HW119460   2.919   9.468   3.917  0.1811 -0.0883  0.1920
 3282SOL    HW219461   2.932   9.324   3.841 -0.7065  0.6673 -1.4080
 3283SOL     OW19462   9.170   3.453   6.374 -0.2692  0.0871 -0.2895
 3283SOL    HW119463   9.237   3.497   6.314 -1.1944  0.4452 -1.0788
 3283SOL    HW219464   9.168   3.355   6.354 -2.1028  0.5039 -2.4048
 3284SOL     OW19465   3.322   1.754   0.421 -0.1121  0.0778 -0.3590
 3284SOL    HW119466   3.271   1.730   0.504 -1.6592  1.7226 -0.8106
 3284SOL    HW219467   3.262   1.744   0.342  1.1839 -0.8899 -1.2386
 3285SOL     OW19468   6.239   8.545   2.642  0.4372 -0.2679  0.0193
 3285SOL    HW119469   6.315   8.517   2.701 -1.0300 -1.3680  1.4381
 3285SOL    HW219470   6.254   8.510   2.549  0.9961 -1.6934  0.6284
 3287SOL     OW19471   5.126   9.191   5.277 -0.0454 -0.0483 -0.1628
 3287SOL    HW119472   5.038   9.167   5.236  0.3101 -0.4811 -0.6713
 3287SOL    HW219473   5.128   9.163   5.373 -1.6211  2.6889  0.7502
 3288SOL     OW19474   7.122   7.443   7.020  0.1489  0.2475  0.0508
 3288SOL    HW119475   7.121   7.540   7.045 -1.3478  0.3117 -0.2070
 3288SOL    HW219476   7.068   7.392   7.086 -1.0354 -0.0579 -1.1187
 3289SOL     OW19477   4.391   3.845   2.128  0.2226  0.2774  0.4176
 3289SOL    HW119478   4.456   3.884   2.064  0.1614 -0.1576  0.0828
 3289SOL    HW219479   4.304   3.894   2.122  0.1098  0.0127 -0.0801
 3291SOL     OW19480   9.775   1.035   3.993 -0.2263 -0.0943  0.4204
 3291SOL    HW119481   9.687   1.061   3.953  0.3106  1.5081  0.2401
 3291SOL    HW219482   9.796   0.940   3.969 -1.7242 -0.3747  0.1584
 3292SOL     OW19483   3.383   3.164   4.576 -0.5453  0.0378 -0.2268
 3292SOL    HW119484   3.464   3.105   4.570 -0.8905 -0.7742  2.4381
 3292SOL    HW219485   3.399   3.235   4.644 -0.4485  2.6526 -2.8427
 3293SOL     OW19486   3.642   2.132   7.256 -0.3603  0.0212 -0.1517
 3293SOL    HW119487   3.574   2.079   7.205  0.1780 -1.0573  0.2346
 3293SOL    HW219488   3.684   2.074   7.325  0.8252  0.7452 -0.2601
 3294SOL     OW19489   4.168   6.926   3.910 -0.1504  0.4172 -0.1366
 3294SOL    HW119490   4.110   6.991   3.959  0.6689  0.7192  0.4593
 3294SOL    HW219491   4.163   6.944   3.811 -0.8699  0.5986 -0.0644
 3295SOL     OW19492   5.975   4.368   1.913 -0.5219 -0.7392 -0.0013
 3295SOL    HW119493   5.949   4.345   2.006  0.3564  0.2737  0.5080
 3295SOL    HW219494   6.074   4.380   1.908 -0.5975 -0.4776 -0.9854
 3296SOL     OW19495   8.490   4.487   2.990 -0.0355  0.3680  0.1196
 3296SOL    HW119496   8.429   4.564   2.969 -0.4913  0.1186  0.5177
 3296SOL    HW219497   8.469   4.411   2.928  0.9013  0.8124 -0.7529
 3297SOL     OW19498   1.656   6.890   2.833 -0.5370  0.3826  0.7267
 3297SOL    HW119499   1.591   6.840   2.889  0.4135  0.9184  2.3344
 3297SOL    HW219500   1.613   6.973   2.798 -1.7036 -0.8637 -0.8646
 3298SOL     OW19501   2.494   5.773   1.245 -0.0174  0.0552  0.1487
 3298SOL    HW119502   2.452   5.740   1.330  0.3326 -2.2518 -0.5628
 3298SOL    HW219503   2.445   5.735   1.167  0.2945  1.3759 -0.6988
 3300SOL     OW19504   2.648   6.807   5.004 -0.4873  0.4524 -0.5024
 3300SOL    HW119505   2.716   6.818   4.931 -0.1157 -2.1873 -0.6162
 3300SOL    HW219506   2.695   6.779   5.088 -1.1078  1.7696  0.2929
 3302SOL     OW19507   9.489   2.705   0.866 -0.2072  0.4198  0.2277
 3302SOL    HW119508   9.569   2.748   0.909 -0.4963 -0.7544  1.9741
 3302SOL    HW219509   9.427   2.776   0.832  1.3775  1.3423 -0.8100
 3303SOL     OW19510   5.952   0.737   6.374  0.0497  0.2720 -1.0715
 3303SOL    HW119511   5.898   0.818   6.397 -0.3901 -0.5080  0.7084
 3303SOL    HW219512   6.047   0.752   6.401  0.3736  0.9217 -2.5092
 3304SOL     OW19513   9.324   9.352   3.477  0.2305  0.6198 -0.1743
 3304SOL    HW119514   9.234   9.311   3.494  0.4896  0.7039  1.4901
 3304SOL    HW219515   9.369   9.303   3.403 -0.5678 -0.3963 -0.0133
 3306SOL     OW19516   8.604   4.819   1.227  0.2339 -0.0107  0.0526
 3306SOL    HW119517   8.560   4.792   1.313  2.5342 -1.0391  0.9632
 3306SOL    HW219518   8.589   4.917   1.211  0.3975  0.3619  2.0333
 3307SOL     OW19519   6.899   8.058   2.868  0.1927  0.2344 -0.8673
 3307SOL    HW119520   6.917   7.969   2.909  0.2871 -0.0094 -1.4386
 3307SOL    HW219521   6.986   8.103   2.848  0.1489  0.7401  0.0268
 3308SOL     OW19522   5.836   6.228   0.985 -0.0058  0.2049 -0.1951
 3308SOL    HW119523   5.829   6.247   1.083  0.1157  0.5247 -0.2477
 3308SOL    HW219524   5.794   6.139   0.965 -0.4204  0.3385  0.0780
 3309SOL     OW19525   4.605   6.577   4.150 -0.3042 -0.1680  0.1339
 3309SOL    HW119526   4.605   6.492   4.097  0.6300  0.1081 -0.3274
 3309SOL    HW219527   4.556   6.562   4.236 -1.2317 -0.8123 -0.4936
 3310SOL     OW19528   7.079   0.217   6.133 -0.1884 -0.3158  0.1124
 3310SOL    HW119529   7.117   0.248   6.046  0.1185  2.2896  1.1527
 3310SOL    HW219530   7.069   0.117   6.130  0.8925 -0.4027 -2.4650
 3313SOL     OW19531   2.860   4.705   7.807 -0.1417  0.9869  0.3590
 3313SOL    HW119532   2.823   4.735   7.896  0.4218 -0.4420  1.0795
 3313SOL    HW219533   2.930   4.636   7.822 -1.3879 -0.6563 -1.2966
 3314SOL     OW19534   7.405   6.762   5.647  0.0914  0.1474 -0.0513
 3314SOL    HW119535   7.343   6.709   5.589 -0.8289  0.7379  0.3678
 3314SOL    HW219536   7.379   6.859   5.643  0.1057  0.2159  1.2231
 3315SOL     OW19537   4.785   7.924   4.065  1.0462  0.3436  0.3472
 3315SOL    HW119538   4.817   7.879   4.149  1.1619  0.5524  0.4158
 3315SOL    HW219539   4.703   7.878   4.031  0.7318  0.5415  0.8318
 3317SOL     OW19540   3.424   9.546   6.219  0.1166 -0.3193 -0.8203
 3317SOL    HW119541   3.367   9.538   6.301 -0.1494  0.6610 -0.9048
 3317SOL    HW219542   3.403   9.470   6.157 -0.2380 -0.6337 -0.3244
 3318SOL     OW19543   1.749   8.521   3.371  0.1287  0.0594  0.3090
 3318SOL    HW119544   1.779   8.607   3.330 -0.2506  0.4207  0.7825
 3318SOL    HW219545   1.774   8.445   3.312  0.9896  0.4514  0.1696
 3319SOL     OW19546   5.242   8.246   1.922  0.2826 -0.1545  0.0516
 3319SOL    HW119547   5.159   8.192   1.932 -1.1099  1.7831 -0.6212
 3319SOL    HW219548   5.267   8.285   2.010  0.5593 -0.8603  0.2845
 3320SOL     OW19549   7.409   3.583   1.914  0.1248  0.2238 -0.9126
 3320SOL    HW119550   7.482   3.538   1.862  0.2347  0.5663 -1.0551
 3320SOL    HW219551   7.333   3.603   1.852  0.4415  1.0450 -1.0381
 3321SOL     OW19552   7.305   7.046   3.528  0.0293 -0.1312 -0.2774
 3321SOL    HW119553   7.245   6.966   3.519 -0.8274  0.5745 -0.9623
 3321SOL    HW219554   7.383   7.036   3.466 -1.1535  0.5081 -1.9037
 3322SOL     OW19555   1.588   5.789   6.560  0.2030 -0.3533 -0.1869
 3322SOL    HW119556   1.672   5.814   6.511  1.0229 -1.9247  0.3714
 3322SOL    HW219557   1.606   5.709   6.617 -1.3833  0.0063  0.8423
 3323SOL     OW19558   9.024   5.049   6.188  0.0580 -0.7742 -0.1486
 3323SOL    HW119559   8.976   4.999   6.115  0.6784 -1.2280 -0.2528
 3323SOL    HW219560   8.985   5.025   6.276  0.2562 -1.3366 -0.2113
 3324SOL     OW19561   9.409   7.282   7.611 -0.7784 -0.6024 -0.5786
 3324SOL    HW119562   9.489   7.239   7.652  0.2480  1.0663 -0.7890
 3324SOL    HW219563   9.347   7.211   7.576  1.5564 -1.9060 -2.2174
 3325SOL     OW19564   6.810   5.490   1.096  0.0788 -0.4296 -0.4047
 3325SOL    HW119565   6.891   5.464   1.149 -0.1267 -1.7855 -0.7435
 3325SOL    HW219566   6.831   5.571   1.041  0.8118 -0.0270  0.4557
 3327SOL     OW19567   0.957   0.606   7.166  0.2819 -0.1579 -0.4782
 3327SOL    HW119568   0.970   0.606   7.265  0.3672 -0.1337 -0.4897
 3327SOL    HW219569   0.995   0.690   7.128  0.5183 -0.3053 -0.5674
 3328SOL     OW19570   3.769   8.727   2.099 -0.1196 -0.2477  0.1053
 3328SOL    HW119571   3.845   8.791   2.090  1.3165 -1.5501  2.3744
 3328SOL    HW219572   3.726   8.738   2.189 -0.2460 -2.0084  0.2851
 3329SOL     OW19573   0.154   5.817   3.258  0.2984  0.0897 -0.1686
 3329SOL    HW119574   0.109   5.900   3.292 -1.4749 -1.3287  1.0378
 3329SOL    HW219575   0.167   5.825   3.159  1.7070  2.5000  0.1690
 3330SOL     OW19576   4.244   3.189   0.459 -0.2420  0.1905 -0.2625
 3330SOL    HW119577   4.319   3.124   0.449 -1.2141 -1.1141  0.6660
 3330SOL    HW219578   4.160   3.148   0.423 -0.7155  1.2216 -0.3322
 3331SOL     OW19579   4.168   0.881   7.160  0.1664 -0.0554 -0.1334
 3331SOL    HW119580   4.208   0.872   7.251  1.0208  0.1822 -0.4805
 3331SOL    HW219581   4.219   0.949   7.108 -0.0410 -0.5145 -0.9491
 3332SOL     OW19582   2.044   5.464   7.862 -0.3500  0.1488  0.1848
 3332SOL    HW119583   2.085   5.532   7.924 -0.0359 -0.2057  0.3670
 3332SOL    HW219584   1.981   5.510   7.800 -0.6452  0.5113  0.7495
 3334SOL     OW19585   9.018   9.733   1.237  0.2494  0.6495 -0.0011
 3334SOL    HW119586   9.073   9.814   1.219 -0.0320  0.5698 -1.2847
 3334SOL    HW219587   8.976   9.701   1.152 -1.3407  0.3939  0.8536
 3335SOL     OW19588   3.680   5.296   6.875  0.5088  0.2616  0.0222
 3335SOL    HW119589   3.682   5.210   6.925  0.1689  0.8186  1.0073
 3335SOL    HW219590   3.588   5.316   6.843  0.8124 -0.3272 -1.2581
 3336SOL     OW19591   9.391   0.837   4.579  0.2932  0.2535 -0.5551
 3336SOL    HW119592   9.310   0.815   4.524  0.4060  0.0983 -0.6607
 3336SOL    HW219593   9.419   0.931   4.562 -0.8813  0.8568  0.7675
 3337SOL     OW19594   9.827   3.706   4.444 -0.3053  0.0013 -0.0688
 3337SOL    HW119595   9.767   3.717   4.365  0.1239  0.1949 -0.3706
 3337SOL    HW219596   9.896   3.778   4.443  1.2021 -1.4205 -0.8553
 3338SOL     OW19597   5.140   9.809   3.327 -0.1710 -0.4152  0.6171
 3338SOL    HW119598   5.074   9.845   3.260 -0.3232 -0.8703  0.5194
 3338SOL    HW219599   5.103   9.820   3.419 -0.8055 -1.5370  0.5038
 3339SOL     OW19600   8.665   0.339   4.272 -0.5503 -0.5242  0.2604
 3339SOL    HW119601   8.578   0.376   4.307 -0.9222 -1.8794  0.7810
 3339SOL    HW219602   8.647   0.275   4.198  0.0872  0.1222 -0.4608
 3340SOL     OW19603   7.009   9.895   5.725 -1.0624 -0.4679  0.3193
 3340SOL    HW119604   7.083   9.829   5.735 -0.3136  0.2376 -0.4170
 3340SOL    HW219605   6.924   9.847   5.701 -0.5809 -1.1877  0.0382
 3343SOL     OW19606   9.136   4.386   5.662  0.4350  0.5370 -0.3509
 3343SOL    HW119607   9.204   4.406   5.733 -1.5481  1.9473  1.2272
 3343SOL    HW219608   9.114   4.471   5.614  0.6683 -0.1398 -1.6557
 3344SOL     OW19609   8.742   6.059   7.215 -0.6587  0.7059 -0.1059
 3344SOL    HW119610   8.759   6.157   7.226  0.1022  0.5330  0.2879
 3344SOL    HW219611   8.693   6.024   7.295 -0.8111  0.7351 -0.1860
 3345SOL     OW19612   3.117   4.588   7.906 -0.8316 -0.1791  0.0723
 3345SOL    HW119613   3.188   4.575   7.975 -0.2389  0.3318 -0.4324
 3345SOL    HW219614   3.160   4.602   7.817 -1.5372  1.4156 -0.0225
 3348SOL     OW19615   8.308   1.743   3.474  0.1951  0.1030  0.0742
 3348SOL    HW119616   8.306   1.742   3.375  0.8401  2.7655 -0.0101
 3348SOL    HW219617   8.216   1.757   3.510  0.1316  0.3415 -0.1862
 3349SOL     OW19618   1.528   1.520   5.396  0.0524  0.1430 -0.5250
 3349SOL    HW119619   1.528   1.420   5.406  0.9703 -0.1146 -2.8060
 3349SOL    HW219620   1.621   1.554   5.400 -0.2343  0.8780 -0.0389
 3351SOL     OW19621   6.261   9.394   1.600  0.5813 -0.1639 -0.5444
 3351SOL    HW119622   6.316   9.464   1.553  0.4624  0.3178  0.0325
 3351SOL    HW219623   6.166   9.425   1.606  0.2202 -1.0226 -1.5943
 3352SOL     OW19624   3.284   2.005   3.248  0.1565  0.1268  0.6184
 3352SOL    HW119625   3.372   2.000   3.201  0.1573  2.1281  0.3831
 3352SOL    HW219626   3.296   2.043   3.339 -0.4403  0.2124  0.6634
 3353SOL     OW19627   1.715   8.143   5.276  0.1764  0.5004  0.1834
 3353SOL    HW119628   1.751   8.113   5.187  0.8803 -0.8112  0.8879
 3353SOL    HW219629   1.716   8.242   5.281  2.4690  0.5289 -0.3291
 3354SOL     OW19630   3.371   5.947   2.613 -0.6368 -0.2137 -0.6484
 3354SOL    HW119631   3.348   5.898   2.697  1.0212  0.9636  0.5314
 3354SOL    HW219632   3.376   5.883   2.537 -0.9126 -1.4926  0.4000
 3355SOL     OW19633   9.194   3.060   6.014  0.2462  0.5562  0.4552
 3355SOL    HW119634   9.138   3.139   5.989  0.3514  0.2547 -0.7340
 3355SOL    HW219635   9.136   2.987   6.049  0.0220  0.6814  0.3424
 3357SOL     OW19636   9.336   4.187   4.387 -0.1284  0.4258 -0.1712
 3357SOL    HW119637   9.410   4.134   4.427 -1.4911 -0.4492  1.2422
 3357SOL    HW219638   9.335   4.176   4.288  1.7934  0.6817 -0.2259
 3358SOL     OW19639   1.824   0.559   5.372 -0.0755 -0.2571  0.8849
 3358SOL    HW119640   1.808   0.655   5.349  3.3823  0.7686  2.3469
 3358SOL    HW219641   1.851   0.508   5.290  1.4778  0.8499  0.6929
 3359SOL     OW19642   4.608   9.995   7.847  0.3235 -0.4350 -0.4840
 3359SOL    HW119643   4.667  10.066   7.808  0.5079 -0.7593 -0.7988
 3359SOL    HW219644   4.608  10.003   7.947  0.7158 -0.2880 -0.4945
 3360SOL     OW19645   8.737   5.241   1.414  0.3052 -0.8120  0.9930
 3360SOL    HW119646   8.723   5.335   1.381  0.7301 -0.5538  1.5435
 3360SOL    HW219647   8.808   5.197   1.358  1.0143 -0.3791  1.5328
 3361SOL     OW19648   4.155   0.092   6.482 -0.8047  0.4977  0.2275
 3361SOL    HW119649   4.153   0.028   6.405  0.4661  1.2208 -0.4250
 3361SOL    HW219650   4.069   0.143   6.485 -0.9163  0.3731 -0.6483
 3362SOL     OW19651   7.771   1.917   5.818 -0.0614 -0.3517 -0.2542
 3362SOL    HW119652   7.847   1.856   5.838  0.2706  0.1616  0.0705
 3362SOL    HW219653   7.777   1.998   5.876 -1.4533 -0.7925  0.5242
 3363SOL     OW19654   9.199   9.225   0.570  0.3781 -0.0039 -0.0953
 3363SOL    HW119655   9.295   9.214   0.596 -0.1684 -3.5087  0.8130
 3363SOL    HW219656   9.185   9.187   0.478 -0.2272 -0.0377  0.0100
 3364SOL     OW19657   5.463   7.472   3.176  0.6211  0.6535  0.4689
 3364SOL    HW119658   5.375   7.507   3.144  0.5148  0.1811  0.2485
 3364SOL    HW219659   5.521   7.451   3.097 -0.0163 -1.4985  0.5531
 3365SOL     OW19660   8.603   4.250   4.057 -0.1896 -0.1255  0.0497
 3365SOL    HW119661   8.673   4.298   4.006  0.1374  0.8384  1.3746
 3365SOL    HW219662   8.621   4.151   4.053  0.4427  0.0167 -0.7684
 3366SOL     OW19663   4.559   9.284   2.668  0.0338 -0.1891  0.0694
 3366SOL    HW119664   4.547   9.383   2.675  3.3978  0.1972  1.0611
 3366SOL    HW219665   4.539   9.254   2.575 -4.4948  0.8158  0.5700
 3367SOL     OW19666   0.387   5.932   1.269 -0.3813  0.0273  0.1958
 3367SOL    HW119667   0.366   6.025   1.239 -1.2414 -0.2959 -0.2110
 3367SOL    HW219668   0.485   5.915   1.259 -0.1136  1.1050  0.8862
 3368SOL     OW19669   4.529   1.082   0.281  0.0156  0.3596  0.4481
 3368SOL    HW119670   4.611   1.121   0.239  0.7331 -0.2890  1.2484
 3368SOL    HW219671   4.554   1.005   0.339 -1.2993 -0.6693 -0.3306
 3370SOL     OW19672   8.542   5.374   0.443 -0.1114  0.1463  0.2398
 3370SOL    HW119673   8.567   5.467   0.468  1.6030 -0.1124 -0.4352
 3370SOL    HW219674   8.528   5.368   0.345 -0.2456 -0.2904  0.2841
 3371SOL     OW19675   0.409   5.566   4.029 -0.2356  0.5054  0.3844
 3371SOL    HW119676   0.491   5.515   4.004 -0.2931  0.9538 -0.7535
 3371SOL    HW219677   0.355   5.513   4.094  0.7704  0.0456  0.8540
 3372SOL     OW19678   2.196   9.265   2.180 -0.2505 -0.3190  0.4788
 3372SOL    HW119679   2.131   9.189   2.180 -1.3599  0.6117 -0.6749
 3372SOL    HW219680   2.252   9.262   2.097 -1.1541  0.8310 -0.1841
 3373SOL     OW19681   3.561  10.002   7.241 -0.0009  0.2838  0.2232
 3373SOL    HW119682   3.561   9.904   7.259  0.3111  0.1442 -0.4938
 3373SOL    HW219683   3.493  10.047   7.298 -0.2240 -0.3682  0.4715
 3374SOL     OW19684   7.659   8.660   7.162 -0.4949 -0.1811  0.2251
 3374SOL    HW119685   7.663   8.744   7.216  0.1988  0.7270 -1.1943
 3374SOL    HW219686   7.571   8.615   7.177 -1.2468  1.2783  0.3252
 3375SOL     OW19687   4.880   0.455   0.576 -0.2583  0.2658 -0.2977
 3375SOL    HW119688   4.930   0.541   0.580  1.0893 -0.4998 -0.4552
 3375SOL    HW219689   4.825   0.452   0.492 -0.2408  0.9300 -0.3349
 3376SOL     OW19690   6.557   0.937   4.470  0.3492  0.2985 -0.1081
 3376SOL    HW119691   6.630   0.869   4.476 -0.2694 -0.4541 -0.8436
 3376SOL    HW219692   6.474   0.892   4.436  0.0624  1.5317 -1.0524
 3377SOL     OW19693   7.390   9.613   1.524  0.2495  0.7748 -0.1699
 3377SOL    HW119694   7.354   9.631   1.432  1.6757  0.5711 -0.7817
 3377SOL    HW219695   7.319   9.630   1.592 -0.6019  1.6490 -1.2627
 3380SOL     OW19696   3.910   2.817   7.875 -0.2205  0.7797  0.1092
 3380SOL    HW119697   3.898   2.718   7.881  0.3020  0.7793  1.2206
 3380SOL    HW219698   3.985   2.837   7.812  1.7002  0.3362  2.2007
 3381SOL     OW19699   2.132   5.128   6.486 -0.2604  0.3283  0.1658
 3381SOL    HW119700   2.166   5.103   6.396  0.1662  0.4666  0.2866
 3381SOL    HW219701   2.196   5.191   6.530 -0.1216 -0.2617  0.8334
 3382SOL     OW19702   4.024   4.089   7.896  0.0576  0.0695  0.3553
 3382SOL    HW119703   3.958   4.162   7.882  0.2412  0.0027 -0.8787
 3382SOL    HW219704   3.975   4.002   7.904 -0.1067  0.2220  1.0109
 3384SOL     OW19705   2.817   0.852   0.741 -0.0837 -0.2379  0.0873
 3384SOL    HW119706   2.727   0.849   0.697 -0.4991  0.0165  0.9037
 3384SOL    HW219707   2.866   0.934   0.711 -0.5663  0.1983  0.4936
 3385SOL     OW19708   2.405   7.021   5.741  0.2079 -0.8845  0.0883
 3385SOL    HW119709   2.453   6.938   5.769  0.8332 -1.1842 -1.8091
 3385SOL    HW219710   2.338   6.999   5.670 -0.6026  0.0162  0.5590
 3386SOL     OW19711   1.128   2.425   3.457 -0.4037 -0.1026 -0.0125
 3386SOL    HW119712   1.219   2.451   3.488 -0.6511  0.8399 -0.0539
 3386SOL    HW219713   1.134   2.346   3.397  0.6326  1.3677 -1.8740
 3387SOL     OW19714   3.180   9.898   3.219  0.2438  0.6503  0.4502
 3387SOL    HW119715   3.197   9.859   3.129  0.3632  2.0441 -0.1549
 3387SOL    HW219716   3.082   9.900   3.237  0.2919 -0.7547  0.8727
 3388SOL     OW19717   5.709   1.530   5.671  0.2656  0.6258  0.0418
 3388SOL    HW119718   5.782   1.466   5.645 -0.0525  0.5241 -0.6031
 3388SOL    HW219719   5.681   1.512   5.765 -0.7737 -1.0951 -0.5808
 3389SOL     OW19720   7.312   5.851   5.430  0.0035 -0.0771 -0.0959
 3389SOL    HW119721   7.302   5.950   5.425 -1.9246 -0.1481  1.5699
 3389SOL    HW219722   7.327   5.823   5.525  1.2300 -1.3391 -0.6373
 3391SOL     OW19723   1.825   6.116   2.106  0.2171 -0.0616  0.3928
 3391SOL    HW119724   1.884   6.194   2.124  0.5872 -0.4219  0.7770
 3391SOL    HW219725   1.742   6.122   2.163 -0.1721  0.5044 -0.2357
 3392SOL     OW19726   5.023   7.217   1.986 -0.3372 -0.4037 -0.0493
 3392SOL    HW119727   5.001   7.235   1.890  0.5069 -1.8021 -0.5201
 3392SOL    HW219728   5.118   7.244   2.004 -0.4291 -0.3410  0.3440
 3393SOL     OW19729   0.679   0.554   0.766  0.3493  0.2371  0.4277
 3393SOL    HW119730   0.684   0.561   0.666 -1.9725 -2.2334  0.0682
 3393SOL    HW219731   0.704   0.461   0.794  4.0326  1.7447  2.4735
 3394SOL     OW19732   9.628   1.644   3.547 -0.1749  0.3945  0.0450
 3394SOL    HW119733   9.727   1.629   3.550 -0.0725  1.3503  2.4837
 3394SOL    HW219734   9.608   1.741   3.563 -1.5627 -0.0149  0.9007
 3396SOL     OW19735   2.353   9.224   2.694  0.0367 -0.7036  0.0128
 3396SOL    HW119736   2.344   9.216   2.595 -1.2647  0.8051 -0.0223
 3396SOL    HW219737   2.268   9.263   2.732  0.5222 -1.2391  1.7125
 3397SOL     OW19738   0.583   2.592   5.981  1.0278 -0.4542 -0.3177
 3397SOL    HW119739   0.592   2.497   6.010  3.4483 -0.2284 -0.2178
 3397SOL    HW219740   0.590   2.598   5.882  0.0717 -0.4508 -0.3903
 3398SOL     OW19741   8.251   0.374   5.613 -0.1678 -0.1896 -0.1370
 3398SOL    HW119742   8.223   0.433   5.537 -1.0228 -0.1199  0.2200
 3398SOL    HW219743   8.284   0.287   5.578  1.5935  0.6797 -0.6983
 3400SOL     OW19744   1.095   9.085   5.662 -0.0073 -0.3442 -0.4863
 3400SOL    HW119745   1.110   9.081   5.761 -1.5454  0.1385 -0.2210
 3400SOL    HW219746   1.049   9.000   5.633 -0.5474 -0.0169 -0.5981
 3401SOL     OW19747   0.743   9.562   4.530 -0.3727  0.0065 -0.4737
 3401SOL    HW119748   0.757   9.659   4.511 -1.5925 -0.0400 -1.6692
 3401SOL    HW219749   0.763   9.509   4.448  1.4860 -0.8893  0.5206
 3402SOL     OW19750   7.921   9.368   2.476  0.1957 -0.0207  0.2844
 3402SOL    HW119751   7.912   9.358   2.377  0.1826 -1.5341  0.4336
 3402SOL    HW219752   8.016   9.388   2.500  0.2035  0.3201 -0.0352
 3403SOL     OW19753   9.151   3.168   7.909 -0.4990 -0.4199 -0.2336
 3403SOL    HW119754   9.097   3.251   7.921  0.2056  0.0850 -0.5223
 3403SOL    HW219755   9.186   3.138   7.998  0.2561  0.2844 -0.2841
 3404SOL     OW19756   0.036   9.461   4.429 -0.0770  0.2584  0.6301
 3404SOL    HW119757   0.052   9.546   4.478 -0.1009 -0.2496  1.5359
 3404SOL    HW219758  -0.021   9.400   4.486 -2.1207  0.5876 -0.9880
 3407SOL     OW19759   7.071   1.398   7.842  0.0976 -0.1464 -0.5004
 3407SOL    HW119760   7.118   1.390   7.755  0.1976 -0.8742 -0.3901
 3407SOL    HW219761   7.138   1.405   7.916  0.0158  0.3466 -0.4731
 3408SOL     OW19762   2.903   9.372   3.227 -0.2281 -0.5619 -0.4792
 3408SOL    HW119763   2.874   9.453   3.279  1.4663 -1.0698  1.3120
 3408SOL    HW219764   2.922   9.399   3.133  0.3725  1.1698  0.1097
 3409SOL     OW19765   9.442   3.647   3.920 -0.1972  0.3031 -0.8657
 3409SOL    HW119766   9.526   3.595   3.937  0.0496  0.8000 -0.5718
 3409SOL    HW219767   9.405   3.621   3.831 -0.0428 -0.3366 -0.7485
 3410SOL     OW19768   4.065   8.948   3.287 -0.6276 -0.6285  0.3277
 3410SOL    HW119769   4.143   8.973   3.344  1.8693 -0.9020 -2.8444
 3410SOL    HW219770   4.030   8.859   3.317  1.3740 -1.3120  0.7162
 3411SOL     OW19771   2.041   1.158   7.305  0.1979  0.0299 -0.5489
 3411SOL    HW119772   2.113   1.211   7.260  0.8690  0.2125  0.7177
 3411SOL    HW219773   2.067   1.061   7.303 -0.5918 -0.1745 -2.0457
 3412SOL     OW19774   4.365   5.057   1.210 -0.0438 -0.4663  0.1040
 3412SOL    HW119775   4.420   5.009   1.142  0.5440  0.4009 -0.0365
 3412SOL    HW219776   4.424   5.096   1.280 -0.5397 -0.2066  0.3862
 3413SOL     OW19777   4.368   5.442   4.429  0.0085 -0.3578 -0.5392
 3413SOL    HW119778   4.453   5.426   4.379 -0.8071 -2.2390 -1.3911
 3413SOL    HW219779   4.372   5.394   4.517 -0.3879 -0.9575 -0.8409
 3415SOL     OW19780   4.338   3.785   7.071  0.7500 -0.5405  0.1963
 3415SOL    HW119781   4.421   3.739   7.101  0.9969 -0.0491  0.2564
 3415SOL    HW219782   4.352   3.884   7.070 -0.2881 -0.3486  1.6403
 3416SOL     OW19783   5.582   9.817   3.368  0.6217 -0.5720 -0.6875
 3416SOL    HW119784   5.559   9.875   3.291  0.4018 -2.1238 -1.8167
 3416SOL    HW219785   5.552   9.861   3.453  1.5999  1.5242 -1.3915
 3417SOL     OW19786   8.198   5.503   7.481  0.2136 -0.5735  0.1524
 3417SOL    HW119787   8.193   5.506   7.381 -0.3441 -4.8365 -0.0335
 3417SOL    HW219788   8.280   5.552   7.512  0.4034  0.7836 -2.3434
 3418SOL     OW19789   8.643   7.617   3.030  0.0552  0.0108  0.2052
 3418SOL    HW119790   8.648   7.658   3.120 -0.3484 -0.8836  0.6404
 3418SOL    HW219791   8.573   7.545   3.029  0.9162 -0.8459 -0.4546
 3419SOL     OW19792   0.728   1.083   6.668 -0.3237 -0.0461  0.3130
 3419SOL    HW119793   0.722   1.177   6.636  1.3504  0.8140  2.4113
 3419SOL    HW219794   0.658   1.068   6.739  0.0272 -0.0927  0.6498
 3421SOL     OW19795   5.393   2.560   7.885  0.0930  0.3262 -0.3695
 3421SOL    HW119796   5.451   2.488   7.847 -0.7278 -0.2571 -0.5401
 3421SOL    HW219797   5.362   2.620   7.811 -1.0461 -0.4769 -0.5578
 3422SOL     OW19798   8.980   7.301   3.974  0.3126  0.3562  0.2664
 3422SOL    HW119799   9.017   7.233   3.911  0.9535  1.2248 -0.3043
 3422SOL    HW219800   9.032   7.298   4.060 -1.0173 -1.3193  1.0515
 3424SOL     OW19801   1.721   9.654   3.991 -0.2289 -0.0015 -0.5675
 3424SOL    HW119802   1.783   9.583   4.024 -0.7654  1.1781  3.2509
 3424SOL    HW219803   1.632   9.612   3.968 -0.4668 -0.6606  1.4214
 3425SOL     OW19804   1.234   0.463   4.963  0.5448 -0.1670 -0.0209
 3425SOL    HW119805   1.153   0.407   4.943  0.7663  0.1022 -1.7847
 3425SOL    HW219806   1.307   0.440   4.899  1.9008 -0.4633  1.6261
 3426SOL     OW19807   2.478   8.839   5.821 -0.5527 -0.0936  0.1381
 3426SOL    HW119808   2.516   8.864   5.732 -2.1105  0.6415 -0.3334
 3426SOL    HW219809   2.485   8.917   5.883 -3.0603  0.7479 -0.5581
 3427SOL     OW19810   6.047   9.364   4.436  0.1307  0.3102  0.3137
 3427SOL    HW119811   6.130   9.401   4.396  1.5093 -1.4797  1.4604
 3427SOL    HW219812   6.045   9.384   4.534 -0.6570  0.0819  0.3501
 3428SOL     OW19813   0.636   4.954   2.722 -0.6321 -0.3556  0.0562
 3428SOL    HW119814   0.658   5.048   2.696 -1.1829 -0.1684  0.2593
 3428SOL    HW219815   0.703   4.922   2.790 -1.2137  0.3544  0.9799
 3429SOL     OW19816   6.781   0.787   4.452 -0.1877  0.2854 -0.4169
 3429SOL    HW119817   6.770   0.706   4.396  0.3476  0.1047 -0.2553
 3429SOL    HW219818   6.863   0.837   4.424 -0.0305  0.2997  0.0710
 3430SOL     OW19819   7.598   1.640   4.639 -0.5688 -0.4041  0.4719
 3430SOL    HW119820   7.509   1.679   4.664  0.0762  0.2620  1.7888
 3430SOL    HW219821   7.586   1.543   4.617 -1.6248 -0.3149  0.5933
 3431SOL     OW19822   5.374   9.835   6.775  0.2554 -0.1620 -0.6519
 3431SOL    HW119823   5.296   9.783   6.809  0.3776 -0.9409 -1.5378
 3431SOL    HW219824   5.431   9.864   6.852 -1.1187  0.7782  0.0312
 3433SOL     OW19825   5.470   0.972   7.526  0.3272 -0.3159  0.4588
 3433SOL    HW119826   5.519   0.920   7.456 -0.2838 -0.6516  0.2721
 3433SOL    HW219827   5.375   0.984   7.497  0.5159  1.1052  0.3966
 3434SOL     OW19828   4.500   9.704   6.242  0.1311 -0.2066  0.1753
 3434SOL    HW119829   4.599   9.698   6.237  0.0604 -0.1238 -1.3077
 3434SOL    HW219830   4.474   9.746   6.330  1.3790 -0.5299  0.7054
 3435SOL     OW19831   7.995   1.072   1.346  0.0134 -0.3400 -0.1093
 3435SOL    HW119832   8.013   1.113   1.256 -0.3845  0.1252  0.0158
 3435SOL    HW219833   8.016   0.975   1.343  0.9926 -0.1213 -0.4070
 3436SOL     OW19834   3.100   2.460   2.097  0.5922 -0.0182 -0.1385
 3436SOL    HW119835   3.074   2.556   2.087 -1.7809 -0.3676  2.1002
 3436SOL    HW219836   3.066   2.426   2.185  1.0773 -3.0223 -1.0747
 3437SOL     OW19837   1.337   2.404   7.541  0.4146 -0.3933  0.1265
 3437SOL    HW119838   1.309   2.310   7.556  3.5810 -1.1791  1.6363
 3437SOL    HW219839   1.417   2.406   7.481  0.2087  1.3327 -0.1249
 3438SOL     OW19840   8.100   0.678   2.885  0.3023  0.5932 -0.5078
 3438SOL    HW119841   8.146   0.748   2.831 -0.4895  1.7643  0.3354
 3438SOL    HW219842   8.026   0.638   2.831  0.6519  0.5071 -0.9305
 3439SOL     OW19843   7.904   8.605   6.175  0.0859  0.1256 -0.0785
 3439SOL    HW119844   7.939   8.526   6.126  1.8855  1.1991 -0.5709
 3439SOL    HW219845   7.980   8.666   6.199 -1.2835  1.8323  0.0359
 3440SOL     OW19846   1.233   3.673   7.262  0.9219  0.0731  0.1333
 3440SOL    HW119847   1.302   3.602   7.272  0.4700 -0.7492 -2.2226
 3440SOL    HW219848   1.273   3.752   7.216 -0.6402 -2.1488 -5.5571
 3441SOL     OW19849   3.416   2.464   6.369  0.0522  0.0913  0.8387
 3441SOL    HW119850   3.488   2.513   6.417  0.0407 -1.1608  2.1763
 3441SOL    HW219851   3.356   2.419   6.436 -1.1561 -0.0063 -0.2938
 3442SOL     OW19852   4.454   9.157   4.913  0.1821  0.0995 -0.3441
 3442SOL    HW119853   4.513   9.077   4.919 -1.4091 -1.1218 -0.4990
 3442SOL    HW219854   4.371   9.133   4.862 -1.1744  1.3018  1.2347
 3443SOL     OW19855   2.606   5.029   3.980 -0.1046  0.4430 -0.0997
 3443SOL    HW119856   2.554   5.044   3.896  1.5706 -0.0314 -1.2308
 3443SOL    HW219857   2.690   5.084   3.978 -0.3100  0.8512  1.5132
 3444SOL     OW19858   0.473   7.879   0.043  0.4238 -0.1574  0.0796
 3444SOL    HW119859   0.571   7.875   0.062  0.6166  0.3529 -0.8117
 3444SOL    HW219860   0.456   7.862  -0.054 -0.5551 -2.4769  0.6116
 3445SOL     OW19861   0.010   6.417   7.731 -0.1459  0.0917  0.0656
 3445SOL    HW119862   0.013   6.330   7.781 -1.5177  0.6497  1.1521
 3445SOL    HW219863   0.103   6.452   7.720  0.3849 -1.2743  0.0147
 3446SOL     OW19864   2.729   0.791   3.128 -0.4274  0.0910 -0.2557
 3446SOL    HW119865   2.660   0.831   3.189 -0.2097 -0.8361  0.6134
 3446SOL    HW219866   2.786   0.864   3.091  1.7869  0.4602  3.5536
 3448SOL     OW19867   9.790   5.374   1.493  0.2090  0.0138  0.2593
 3448SOL    HW119868   9.784   5.410   1.400  1.6803 -0.6274 -0.0959
 3448SOL    HW219869   9.733   5.292   1.501  1.5450 -1.0155 -0.6109
 3449SOL     OW19870   6.024   9.810   4.646 -0.0756  0.1943 -0.0699
 3449SOL    HW119871   5.949   9.768   4.698 -0.1982  0.8341  0.2744
 3449SOL    HW219872   5.989   9.840   4.558 -0.2806  0.7053  0.1839
 3450SOL     OW19873   3.368   9.350   1.029  0.1987  0.2938  0.7975
 3450SOL    HW119874   3.378   9.395   1.118 -0.5124  1.2999  0.3860
 3450SOL    HW219875   3.415   9.404   0.959 -2.2023  1.4176 -0.0021
 3451SOL     OW19876   2.871   8.096   4.269  0.6065 -0.4267 -0.1434
 3451SOL    HW119877   2.800   8.026   4.262  0.9996 -0.9423  0.9533
 3451SOL    HW219878   2.849   8.171   4.207 -1.4556 -0.1078  0.9089
 3452SOL     OW19879   1.356   5.286   6.622  0.4590 -0.2045  0.1908
 3452SOL    HW119880   1.371   5.301   6.525 -0.2278 -1.2923 -0.0945
 3452SOL    HW219881   1.258   5.292   6.643  0.6087  0.1226  0.8298
 3454SOL     OW19882   2.173   5.902   0.653 -0.6756  0.1602 -0.4397
 3454SOL    HW119883   2.137   5.903   0.747  1.8112  0.6885  0.5460
 3454SOL    HW219884   2.132   5.826   0.603 -0.7612 -1.2123  1.6178
 3455SOL     OW19885   2.225   3.297   1.753  0.9637 -0.0398 -0.0887
 3455SOL    HW119886   2.215   3.215   1.697  0.3301  1.2279 -1.8452
 3455SOL    HW219887   2.151   3.300   1.821 -0.4313  0.2793 -1.5829
 3456SOL     OW19888   0.398   5.151   2.480 -0.8513  0.2326  0.1848
 3456SOL    HW119889   0.412   5.184   2.573 -1.9921 -2.3831  1.3308
 3456SOL    HW219890   0.481   5.104   2.449 -0.3604  1.3732 -0.2535
 3457SOL     OW19891   8.346   9.801   0.996  0.2688 -0.2774 -0.1856
 3457SOL    HW119892   8.346   9.874   1.064 -3.1949 -0.2778 -0.0793
 3457SOL    HW219893   8.406   9.826   0.920 -0.9952  2.7950 -0.2471
 3458SOL     OW19894   3.512   5.736   6.653 -0.3312  0.0507  0.2466
 3458SOL    HW119895   3.502   5.663   6.586 -3.1115  1.6623 -1.1713
 3458SOL    HW219896   3.436   5.733   6.718  0.3215  0.8082  1.0594
 3459SOL     OW19897   1.230   5.484   3.912 -0.6698  0.1956 -0.2544
 3459SOL    HW119898   1.308   5.428   3.886  0.0122  1.6446 -1.4536
 3459SOL    HW219899   1.146   5.433   3.899 -0.0806 -0.4745 -1.5843
 3460SOL     OW19900   4.361   0.584   3.975  0.2489 -0.5185 -1.1441
 3460SOL    HW119901   4.336   0.497   4.019 -0.8377 -0.6598 -2.0285
 3460SOL    HW219902   4.319   0.659   4.025  1.7943 -0.4291  0.0663
 3461SOL     OW19903   9.834   6.278   6.869 -0.0745 -0.3393 -1.2699
 3461SOL    HW119904   9.752   6.336   6.862 -0.5299 -0.9386 -0.9539
 3461SOL    HW219905   9.916   6.334   6.860 -0.4889  0.5317  0.2901
 3462SOL     OW19906   4.035   8.882   1.047  0.5335  0.7473  0.1153
 3462SOL    HW119907   4.100   8.951   1.014  2.9376 -1.0706  0.8261
 3462SOL    HW219908   4.012   8.901   1.143  1.1029  0.6482  0.2759
 3463SOL     OW19909   4.026   3.557   6.145 -0.5739 -0.7872 -0.5750
 3463SOL    HW119910   4.124   3.552   6.163 -0.8948 -0.5706  1.3613
 3463SOL    HW219911   4.010   3.592   6.052  1.1476  1.1190 -0.1683
 3464SOL     OW19912   3.622   2.045   6.396 -0.2182  0.2486  0.2025
 3464SOL    HW119913   3.604   2.015   6.489 -1.7664  0.3002 -0.0733
 3464SOL    HW219914   3.559   1.999   6.333 -0.3032  1.4654 -0.6184
 3465SOL     OW19915   9.469   0.738   2.918 -0.0276 -0.5265  0.3118
 3465SOL    HW119916   9.530   0.806   2.878  0.0340 -0.6033  0.2720
 3465SOL    HW219917   9.375   0.771   2.915  0.0280 -0.3533  0.4891
 3466SOL     OW19918   3.363   0.985   7.484 -0.5702 -0.0204  0.4345
 3466SOL    HW119919   3.332   0.989   7.579 -0.1675 -3.4172  0.7845
 3466SOL    HW219920   3.459   0.956   7.481  0.0098  1.9374 -0.9615
 3467SOL     OW19921   3.218   4.213   0.601  0.3449 -0.0828 -0.3462
 3467SOL    HW119922   3.127   4.251   0.619 -0.0797 -1.4378  0.4715
 3467SOL    HW219923   3.220   4.173   0.509 -0.2468 -1.0435  0.0489
 3468SOL     OW19924   0.226   9.421   3.484  0.0034  0.5584 -0.3482
 3468SOL    HW119925   0.151   9.480   3.513 -0.3210  0.0659 -0.1757
 3468SOL    HW219926   0.295   9.417   3.556 -1.0808 -1.1407  0.6422
 3469SOL     OW19927   2.013   9.690   7.928  0.4314  0.2452  0.3140
 3469SOL    HW119928   2.030   9.713   8.024  1.8522 -0.5806  0.2595
 3469SOL    HW219929   2.069   9.748   7.870  0.0252  0.3205 -0.0035
 3470SOL     OW19930   0.320   9.947   7.308 -0.3507  0.0813  0.0018
 3470SOL    HW119931   0.403   9.952   7.364 -1.3532  2.2557  1.3526
 3470SOL    HW219932   0.344   9.920   7.215  1.6209 -1.3096  0.8795
 3471SOL     OW19933   0.321   2.837   5.726 -0.1485 -0.6903  0.3540
 3471SOL    HW119934   0.386   2.764   5.750 -0.1771 -0.9373 -0.3067
 3471SOL    HW219935   0.371   2.922   5.710 -0.0387 -0.7477  0.3911
 3473SOL     OW19936   3.647   3.062   2.562 -0.1454  0.4480 -0.7560
 3473SOL    HW119937   3.734   3.109   2.548 -0.6031  2.0412  1.6520
 3473SOL    HW219938   3.599   3.055   2.474  1.1097  2.1347 -1.6039
 3474SOL     OW19939   9.912   2.616   7.007 -0.3014 -0.1717 -0.0573
 3474SOL    HW119940   9.843   2.684   6.983 -0.2338  0.2230  0.8694
 3474SOL    HW219941   9.904   2.591   7.103 -0.5547 -1.7431 -0.4648
 3475SOL     OW19942   6.257   7.403   4.162 -0.1425 -0.0608 -0.3006
 3475SOL    HW119943   6.350   7.410   4.125  0.0413 -1.3634 -0.1052
 3475SOL    HW219944   6.219   7.494   4.173  1.2365  0.5049 -0.0813
 3477SOL     OW19945   6.802   8.470   5.618 -0.3975 -0.0091  0.2326
 3477SOL    HW119946   6.733   8.542   5.608 -0.6693 -0.1342  1.2136
 3477SOL    HW219947   6.758   8.384   5.643 -0.1668 -0.7311 -1.7144
 3478SOL     OW19948   6.039   9.950   6.816  0.3670 -0.1367  0.8501
 3478SOL    HW119949   5.939   9.953   6.812  0.4263  0.2751 -0.2989
 3478SOL    HW219950   6.076   9.924   6.727  1.2734 -0.9021  1.4256
 3480SOL     OW19951   1.493   6.580   3.165 -0.2924  0.0492 -0.2973
 3480SOL    HW119952   1.480   6.490   3.123  0.0193 -0.0586 -0.1629
 3480SOL    HW219953   1.501   6.569   3.264  1.6869  0.0179 -0.4447
 3481SOL     OW19954   0.697   3.758   7.523  0.1555 -0.1804  0.4513
 3481SOL    HW119955   0.660   3.805   7.604  2.3672 -0.8369  1.8849
 3481SOL    HW219956   0.702   3.660   7.541 -1.3466 -0.6007 -1.3113
 3483SOL     OW19957   0.228   6.564   3.523  0.3542 -0.2695  0.1299
 3483SOL    HW119958   0.240   6.521   3.433  0.5772  1.8557 -0.8892
 3483SOL    HW219959   0.314   6.563   3.572  0.2511 -1.3723  0.3018
 3484SOL     OW19960   7.726   9.725   3.354 -0.2603  0.3947  0.3781
 3484SOL    HW119961   7.709   9.808   3.301  0.6458  1.1959  1.3083
 3484SOL    HW219962   7.668   9.652   3.321  0.9732  0.5861 -2.3723
 3485SOL     OW19963   2.462   2.220   4.242 -0.1476  0.4223  0.0054
 3485SOL    HW119964   2.460   2.155   4.167 -3.0852  2.3433 -1.6850
 3485SOL    HW219965   2.537   2.285   4.228  1.3421 -1.1468  0.5028
 3487SOL     OW19966   9.496   7.793   3.019 -0.2210  0.0660 -0.2192
 3487SOL    HW119967   9.503   7.817   2.922 -1.6515 -2.6549 -1.0471
 3487SOL    HW219968   9.580   7.746   3.047  0.1338  0.7275 -0.1500
 3490SOL     OW19969   3.573   5.494   4.379 -0.0955  0.3102  0.0647
 3490SOL    HW119970   3.566   5.408   4.429 -1.0390  0.0974 -0.4299
 3490SOL    HW219971   3.603   5.566   4.441 -0.7159 -0.0697  0.8047
 3491SOL     OW19972   8.115   2.589   2.404  0.7809  0.3203 -0.3977
 3491SOL    HW119973   8.120   2.527   2.325 -0.7398  0.2641 -0.4521
 3491SOL    HW219974   8.199   2.580   2.458  1.0207 -1.0284 -0.9629
 3492SOL     OW19975   7.339   9.553   5.545 -0.1924 -0.1494 -0.2967
 3492SOL    HW119976   7.413   9.618   5.562 -0.1586 -0.6683  1.7154
 3492SOL    HW219977   7.257   9.602   5.517 -1.4273  1.3266  5.1645
 3493SOL     OW19978   4.240   5.254   1.627 -0.8140  0.3499 -0.0217
 3493SOL    HW119979   4.333   5.219   1.614 -0.4706  1.8896 -1.9362
 3493SOL    HW219980   4.176   5.195   1.577 -0.8023 -0.3539  0.7845
 3494SOL     OW19981   0.130   3.820   6.185 -0.2933  0.1887 -0.2472
 3494SOL    HW119982   0.178   3.747   6.234 -0.9768  0.1139  0.3257
 3494SOL    HW219983   0.166   3.828   6.093  1.0446  0.3619  0.2837
 3497SOL     OW19984   0.785   8.833   2.961 -0.2544  1.0679  0.2349
 3497SOL    HW119985   0.699   8.783   2.958 -0.1207  0.7139  1.6920
 3497SOL    HW219986   0.807   8.869   2.870 -1.4021  0.2675 -0.3630
 3498SOL     OW19987   2.821   0.900   0.266  0.1040  0.1335  0.1408
 3498SOL    HW119988   2.812   0.946   0.177  0.3842  1.3031  0.7024
 3498SOL    HW219989   2.846   0.805   0.252 -0.6829  0.0928 -1.0621
 3499SOL     OW19990   7.188   8.008   1.987 -0.4378  0.1580 -0.2752
 3499SOL    HW119991   7.253   7.999   1.912 -0.8625 -1.1998 -0.4878
 3499SOL    HW219992   7.113   7.944   1.974 -0.9481  0.5030  0.8783
 3500SOL     OW19993   9.707   4.177   0.822 -0.1310 -0.4081 -0.6683
 3500SOL    HW119994   9.721   4.269   0.786  0.8833  0.2467  1.3047
 3500SOL    HW219995   9.662   4.182   0.912 -0.2059 -1.8323 -0.6095
 3501SOL     OW19996   4.677   2.857   7.838 -0.8202 -0.1362 -0.5991
 3501SOL    HW119997   4.582   2.883   7.855 -0.8579  0.2164 -1.3652
 3501SOL    HW219998   4.680   2.780   7.775 -0.6148 -0.4903 -0.1617
 3502SOL     OW19999   3.582   6.099   6.168  0.1908  0.1308  0.0232
 3502SOL    HW120000   3.572   6.004   6.197 -0.8010  0.0632 -0.5272
 3502SOL    HW220001   3.604   6.156   6.246 -1.6543 -0.1684  0.7835
 3503SOL     OW20002   3.423   9.745   1.215  0.4506  0.0172  0.5536
 3503SOL    HW120003   3.328   9.730   1.244  1.3240 -0.3553  3.4330
 3503SOL    HW220004   3.426   9.813   1.142 -2.0173  0.1661  0.5505
 3504SOL     OW20005   4.309   9.123   6.860  0.4928 -0.1023  0.1075
 3504SOL    HW120006   4.368   9.199   6.831  0.9712 -0.2673  0.6341
 3504SOL    HW220007   4.321   9.108   6.958  0.1737 -0.6659  0.0609
 3505SOL     OW20008   1.881   7.041   0.124 -0.0282 -0.7027  0.0262
 3505SOL    HW120009   1.811   7.110   0.109  1.3498  1.3084  2.4370
 3505SOL    HW220010   1.940   7.034   0.043 -1.1941 -0.2840 -0.8614
 3506SOL     OW20011   0.358   9.465   1.683 -0.9105 -0.5066 -0.1314
 3506SOL    HW120012   0.269   9.477   1.726 -1.7504 -1.2812 -1.5911
 3506SOL    HW220013   0.345   9.450   1.585  1.0131  2.9833 -1.0057
 3507SOL     OW20014   2.326   8.282   1.202  0.3464 -0.2481 -0.3795
 3507SOL    HW120015   2.349   8.379   1.203  1.3345 -0.4789 -0.5201
 3507SOL    HW220016   2.257   8.265   1.131 -1.7104  0.7535  1.3274
 3509SOL     OW20017   1.267   2.420   0.624 -0.3850  0.3854 -0.7561
 3509SOL    HW120018   1.204   2.497   0.624  0.0374  0.7407  0.4233
 3509SOL    HW220019   1.309   2.411   0.714 -0.1613 -1.0101 -0.9882
 3510SOL     OW20020   6.744   3.807   2.306  0.4588  0.3236 -0.1994
 3510SOL    HW120021   6.703   3.862   2.233  1.0459  0.9721 -0.0503
 3510SOL    HW220022   6.827   3.762   2.271 -1.5468 -2.7956 -1.1655
 3511SOL     OW20023   4.320   3.839   1.128 -0.3041  1.0008 -0.0854
 3511SOL    HW120024   4.376   3.853   1.046 -0.2960 -0.2260 -0.3048
 3511SOL    HW220025   4.231   3.881   1.116 -0.8928 -0.5636 -1.3929
 3512SOL     OW20026   9.326   1.047   3.184  0.2942  0.3866 -0.0237
 3512SOL    HW120027   9.400   1.073   3.122 -0.0746 -0.5812 -0.8723
 3512SOL    HW220028   9.335   1.099   3.269  2.2074 -0.0213  0.0538
 3514SOL     OW20029   1.448   2.686   0.659 -0.2852  0.2060  0.2377
 3514SOL    HW120030   1.494   2.601   0.686  0.7076  0.0739 -1.7976
 3514SOL    HW220031   1.498   2.764   0.698  0.0132 -0.0574  0.3878
 3515SOL     OW20032   4.174   2.339   3.902  0.2314  0.2030  0.4843
 3515SOL    HW120033   4.087   2.318   3.858  0.7810  0.7368 -0.8606
 3515SOL    HW220034   4.209   2.256   3.946 -0.3143 -0.3351 -0.0848
 3517SOL     OW20035   2.381   8.481   2.411 -0.2291  0.0792 -0.0412
 3517SOL    HW120036   2.287   8.486   2.444 -0.3691  0.7979 -0.5282
 3517SOL    HW220037   2.419   8.391   2.430 -1.9715 -1.1963 -2.3042
 3522SOL     OW20038   2.016   4.304   1.050 -0.1392 -0.5360 -0.3532
 3522SOL    HW120039   1.956   4.299   1.130  0.5708 -1.4555  0.1400
 3522SOL    HW220040   2.110   4.322   1.081  0.1016 -0.6692 -0.9982
 3523SOL     OW20041   7.066   6.349   6.226  0.3290  0.1235  0.0762
 3523SOL    HW120042   7.089   6.435   6.180  1.0917 -0.2665 -0.2945
 3523SOL    HW220043   7.131   6.333   6.300  0.8377 -0.6492 -0.5292
 3525SOL     OW20044   9.228   2.783   7.625 -0.5523  0.1834 -0.4882
 3525SOL    HW120045   9.228   2.711   7.556 -0.8631 -2.2862  1.9871
 3525SOL    HW220046   9.139   2.785   7.671 -0.2094  1.5124  0.1580
 3526SOL     OW20047   8.842   8.316   3.213  0.0779  0.2295 -0.1645
 3526SOL    HW120048   8.861   8.274   3.124 -2.1931  1.7839 -1.4304
 3526SOL    HW220049   8.883   8.407   3.217 -0.7543  0.6096 -0.0809
 3527SOL     OW20050   4.670   9.317   1.407  0.3337 -0.1727  0.1511
 3527SOL    HW120051   4.594   9.354   1.461 -0.4616 -0.0095 -1.0578
 3527SOL    HW220052   4.634   9.277   1.323  1.6495  0.4838 -0.7371
 3528SOL     OW20053   9.033   3.801   0.040 -0.3139 -1.0264 -0.0337
 3528SOL    HW120054   8.945   3.838   0.070  1.1404  1.8095  0.9756
 3528SOL    HW220055   9.053   3.835  -0.052  1.9663  2.6166  1.6802
 3529SOL     OW20056   3.268   0.833   3.759  0.1780  0.3099  0.0903
 3529SOL    HW120057   3.276   0.895   3.680  2.0541  1.8149  1.4064
 3529SOL    HW220058   3.334   0.759   3.750  1.7091  1.5105  1.1021
 3530SOL     OW20059   0.472   8.974   4.251 -0.0145 -0.1098  0.8605
 3530SOL    HW120060   0.549   9.037   4.239 -1.2482  1.1620 -0.4669
 3530SOL    HW220061   0.430   8.955   4.163 -1.9248  0.0963  1.7036
 3531SOL     OW20062   1.408   7.734   6.201 -0.1505 -0.0853  0.1693
 3531SOL    HW120063   1.353   7.677   6.264 -1.2322  1.4118  0.6267
 3531SOL    HW220064   1.483   7.680   6.164 -2.4480 -2.4718 -1.1487
 3532SOL     OW20065   3.561   6.487   6.360 -0.1632 -0.2753 -0.1974
 3532SOL    HW120066   3.568   6.491   6.460 -3.7620  0.5296  0.1076
 3532SOL    HW220067   3.562   6.392   6.330 -0.7405 -0.5865  0.7599
 3533SOL     OW20068   8.728   1.355   6.525 -0.0510  0.0306 -0.3894
 3533SOL    HW120069   8.690   1.360   6.433 -2.6162  0.4901  0.6549
 3533SOL    HW220070   8.787   1.434   6.541  0.9817 -0.4174 -1.8554
 3534SOL     OW20071   2.943   6.261   4.396  0.4401 -0.2957  0.8435
 3534SOL    HW120072   2.884   6.216   4.328 -0.2563  1.1522  0.4858
 3534SOL    HW220073   3.038   6.253   4.366 -0.0045  2.0241 -1.3347
 3535SOL     OW20074   8.240   8.844   3.803 -0.0570  0.2793 -0.2425
 3535SOL    HW120075   8.261   8.919   3.865  0.4469  0.8349 -1.0768
 3535SOL    HW220076   8.298   8.766   3.824  1.4795  1.1191 -1.2375
 3537SOL     OW20077   2.627   1.225   0.006  0.2138 -0.0016  0.0319
 3537SOL    HW120078   2.658   1.130   0.002 -0.3552 -0.1928  0.0541
 3537SOL    HW220079   2.550   1.237  -0.057 -0.0323  0.3254  0.3971
 3538SOL     OW20080   0.076   0.006   1.030  0.0661 -0.3151 -0.2478
 3538SOL    HW120081   0.124  -0.016   1.115  1.7138  2.3787 -0.4121
 3538SOL    HW220082   0.034   0.096   1.038 -3.0218 -1.6316 -0.9877
 3541SOL     OW20083   1.427   0.783   4.967  0.5456 -0.4861  0.4164
 3541SOL    HW120084   1.345   0.726   4.969  1.4681 -1.9398 -1.7529
 3541SOL    HW220085   1.467   0.786   5.059 -0.2333 -2.2881  0.8344
 3543SOL     OW20086   9.554   6.343   1.372  0.5472 -0.4966  0.1541
 3543SOL    HW120087   9.516   6.404   1.443 -0.2098 -1.5075  0.6284
 3543SOL    HW220088   9.573   6.253   1.411 -1.4628 -1.5945 -1.2844
 3544SOL     OW20089   0.080   6.743   6.465 -0.1219  0.5600  0.1142
 3544SOL    HW120090   0.165   6.751   6.413 -1.0256  1.6613 -1.2213
 3544SOL    HW220091   0.005   6.720   6.403 -0.7717 -0.6947  1.3222
 3545SOL     OW20092   8.548   3.592   0.437  0.6255 -0.3167  0.4980
 3545SOL    HW120093   8.513   3.499   0.438  0.9509 -0.4402  0.2022
 3545SOL    HW220094   8.615   3.603   0.364 -1.3632  0.8590 -1.2246
 3546SOL     OW20095   8.098   1.388   0.630  0.5200  0.5093 -0.3602
 3546SOL    HW120096   8.073   1.482   0.605 -1.6521  0.0461 -0.1019
 3546SOL    HW220097   8.161   1.390   0.708  1.5423  1.7688 -1.2012
 3549SOL     OW20098   4.695   9.661   1.889  0.1231  0.4387 -0.3645
 3549SOL    HW120099   4.617   9.613   1.850  0.3968 -0.5746  0.2911
 3549SOL    HW220100   4.756   9.692   1.816 -0.4460  0.4539 -0.8312
 3550SOL     OW20101   2.267   7.440   1.645 -0.6751  0.1601 -0.3176
 3550SOL    HW120102   2.196   7.419   1.713 -0.3672  2.1936  0.6628
 3550SOL    HW220103   2.351   7.466   1.692  0.1948 -0.5045 -1.4921
 3551SOL     OW20104   6.467   7.448   5.802 -0.7554 -0.1343  0.0440
 3551SOL    HW120105   6.503   7.530   5.846 -0.4295 -0.6801  0.8264
 3551SOL    HW220106   6.533   7.412   5.737 -1.0336  0.4010 -0.5437
 3552SOL     OW20107   1.241   0.748   1.372 -0.0867  0.1791 -0.1433
 3552SOL    HW120108   1.303   0.688   1.423 -2.1897 -0.5686  1.6289
 3552SOL    HW220109   1.159   0.697   1.348 -0.5562  1.4947 -1.3948
 3553SOL     OW20110   0.160   7.584   4.634 -0.2186 -0.3372 -0.4070
 3553SOL    HW120111   0.234   7.608   4.697 -0.8656  1.5802 -0.3410
 3553SOL    HW220112   0.080   7.556   4.687 -0.8878  1.6475 -0.3443
 3554SOL     OW20113   6.869   8.262   3.864  0.7202 -0.1738 -0.0109
 3554SOL    HW120114   6.884   8.340   3.803 -1.0405 -0.0030 -0.2452
 3554SOL    HW220115   6.879   8.292   3.959 -2.4543  0.9717  0.0211
 3557SOL     OW20116   6.052   7.525   5.334 -0.3909 -0.2184 -0.1224
 3557SOL    HW120117   6.039   7.473   5.249 -1.5439 -0.8846  0.4512
 3557SOL    HW220118   5.963   7.544   5.375  0.1863 -0.4426  1.2652
 3559SOL     OW20119   1.964   8.299   0.800  0.2430  0.5547  0.0213
 3559SOL    HW120120   1.927   8.215   0.839  0.6422  0.3438 -0.0617
 3559SOL    HW220121   2.056   8.283   0.766  1.5934  1.8424  2.9377
 3560SOL     OW20122   8.944   7.072   5.974  0.6645 -0.2363 -0.3575
 3560SOL    HW120123   8.874   7.064   6.045 -0.3875  0.1472 -1.3442
 3560SOL    HW220124   8.906   7.118   5.894  1.2218 -2.4567 -1.9650
 3561SOL     OW20125   0.878   9.234   7.512 -0.2911  0.5197  0.3827
 3561SOL    HW120126   0.789   9.213   7.553 -1.2779  3.3077 -0.2195
 3561SOL    HW220127   0.872   9.321   7.463  2.6823  0.5669  0.0333
 3562SOL     OW20128   3.280   9.121   4.517 -0.4492 -0.1937  0.0594
 3562SOL    HW120129   3.345   9.049   4.489 -0.8573 -0.5721  0.0792
 3562SOL    HW220130   3.307   9.208   4.476 -1.6441 -0.9446 -2.4197
 3563SOL     OW20131   5.774   0.995   5.458  0.2999 -0.0163  0.0497
 3563SOL    HW120132   5.870   1.016   5.473  0.2398  0.3191 -0.0223
 3563SOL    HW220133   5.722   1.011   5.542  0.4159 -0.8474  0.2763
 3564SOL     OW20134   9.763   6.022   4.672  0.4058  0.2525  0.8955
 3564SOL    HW120135   9.755   5.948   4.738 -0.4227  0.2095  0.7434
 3564SOL    HW220136   9.707   6.099   4.701  0.7118  0.5555  0.6858
 3565SOL     OW20137   5.269   2.328   0.828 -0.2189  0.5901  0.0105
 3565SOL    HW120138   5.304   2.382   0.905  1.4656  0.3326 -0.5380
 3565SOL    HW220139   5.189   2.276   0.857  1.2491 -0.6243  2.0189
 3566SOL     OW20140   4.932   9.852   7.466 -0.0427 -0.1820  0.0813
 3566SOL    HW120141   5.029   9.844   7.491  0.4219  1.2153 -1.2083
 3566SOL    HW220142   4.884   9.768   7.491  1.6804 -1.2291 -0.0570
 3567SOL     OW20143   1.819   2.932   6.271  0.2996  0.5701  0.7047
 3567SOL    HW120144   1.805   2.857   6.336 -0.6887 -0.2344 -0.4017
 3567SOL    HW220145   1.801   3.019   6.317  0.3086  0.0621  1.6962
 3568SOL     OW20146   7.141   7.696   6.153 -0.2356  0.2197  0.0345
 3568SOL    HW120147   7.067   7.703   6.220 -0.6345  0.3040 -0.4126
 3568SOL    HW220148   7.124   7.618   6.093  0.4489 -0.2378  0.4231
 3569SOL     OW20149   0.415   9.564   5.215 -0.0816 -0.0378  0.5064
 3569SOL    HW120150   0.451   9.567   5.122  1.9264 -0.2621  1.2475
 3569SOL    HW220151   0.485   9.597   5.279  0.1651 -3.8379  2.3702
 3570SOL     OW20152   6.733   2.752   0.700 -0.1583  0.1078  0.1468
 3570SOL    HW120153   6.763   2.830   0.647 -1.0264  0.7167  0.5377
 3570SOL    HW220154   6.761   2.763   0.796 -0.3784 -0.0020  0.2261
 3571SOL     OW20155   2.817   3.186   5.356  0.0138 -0.3642  0.6901
 3571SOL    HW120156   2.811   3.105   5.298 -1.3136 -0.3569  0.7983
 3571SOL    HW220157   2.736   3.243   5.342  2.4512  2.6388 -1.8385
 3572SOL     OW20158   9.827   2.058   0.391 -0.0232  0.0509 -0.7230
 3572SOL    HW120159   9.787   1.967   0.381  0.5498 -0.6478  2.5701
 3572SOL    HW220160   9.770   2.126   0.346 -2.1864 -1.5585 -0.4653
 3573SOL     OW20161   6.395   0.778   4.870 -0.1900  0.5102  1.3160
 3573SOL    HW120162   6.454   0.853   4.902 -1.7374  2.1905  0.3083
 3573SOL    HW220163   6.328   0.814   4.805 -0.4342 -1.9222  0.1838
 3574SOL     OW20164   8.512   1.203   3.723 -0.1370 -0.5526  0.4849
 3574SOL    HW120165   8.481   1.162   3.809 -0.7751  1.0215  1.0254
 3574SOL    HW220166   8.558   1.289   3.742  1.9341 -1.3880 -0.5718
 3575SOL     OW20167   4.660   0.618   2.415  0.2449  0.2401 -0.2247
 3575SOL    HW120168   4.651   0.687   2.343  0.7085  0.9667  0.4098
 3575SOL    HW220169   4.589   0.633   2.484  1.2185  0.9403  0.6249
 3576SOL     OW20170   2.495   1.740   2.020 -0.0320 -0.2770  0.4520
 3576SOL    HW120171   2.555   1.735   2.100 -0.7108  1.5358  1.0799
 3576SOL    HW220172   2.474   1.835   1.999  0.4229 -0.6865 -2.1165
 3577SOL     OW20173   3.562   7.195   0.498  0.0163 -0.7141  0.1876
 3577SOL    HW120174   3.473   7.190   0.453 -0.1397  2.8229 -0.0579
 3577SOL    HW220175   3.557   7.258   0.575  2.7476  1.0083 -0.9639
 3579SOL     OW20176   9.430   6.571   0.376 -0.1672  0.3115 -0.2967
 3579SOL    HW120177   9.438   6.551   0.474  1.7908 -1.9293 -0.8777
 3579SOL    HW220178   9.434   6.670   0.362  2.5043  0.5236  1.6484
 3580SOL     OW20179   9.015   3.894   0.449  0.8603  0.6837 -0.3780
 3580SOL    HW120180   9.066   3.980   0.455 -0.7150  1.6592 -0.5450
 3580SOL    HW220181   8.924   3.912   0.411  0.0666 -0.8798  0.7221
 3581SOL     OW20182   0.522   9.734   2.859 -0.0683 -0.2576 -0.7162
 3581SOL    HW120183   0.590   9.776   2.799  1.1966 -2.2778 -0.7234
 3581SOL    HW220184   0.535   9.635   2.861  0.0661 -0.2284  3.0829
 3582SOL     OW20185   9.008   5.389   4.707  0.0287  0.9532 -0.7414
 3582SOL    HW120186   9.008   5.370   4.609 -0.1742  0.8645 -0.7252
 3582SOL    HW220187   8.914   5.386   4.741  0.2417 -0.5145 -0.2596
 3584SOL     OW20188   4.518   1.415   6.098 -0.7227 -0.1375 -0.5034
 3584SOL    HW120189   4.528   1.470   6.015 -1.7434 -0.0706 -0.5888
 3584SOL    HW220190   4.437   1.445   6.149  1.0686  1.2547  1.6355
 3585SOL     OW20191   7.878   6.634   6.119 -0.2974  0.1594 -0.0834
 3585SOL    HW120192   7.860   6.576   6.198 -0.5971  0.1731 -0.1414
 3585SOL    HW220193   7.833   6.722   6.131 -0.0522  0.2892 -0.1112
 3588SOL     OW20194   8.684   8.070   2.151 -0.4214  0.6041 -0.2312
 3588SOL    HW120195   8.726   7.989   2.111 -4.0342 -1.0283 -0.9338
 3588SOL    HW220196   8.674   8.141   2.081  0.8500  0.8926 -0.1289
 3590SOL     OW20197   0.764   5.615   4.086 -0.5774  0.0899 -0.1628
 3590SOL    HW120198   0.857   5.604   4.052 -0.7464  0.1571 -0.6450
 3590SOL    HW220199   0.701   5.566   4.026 -0.8923  0.3302 -0.0274
 3592SOL     OW20200   3.479   5.542   6.445  0.2201 -0.1937  0.2458
 3592SOL    HW120201   3.526   5.455   6.458  0.4892 -0.3191 -1.4671
 3592SOL    HW220202   3.392   5.527   6.398 -0.1974  0.3598  0.8299
 3594SOL     OW20203   8.768   9.952   0.523 -0.4659 -0.1660 -0.0288
 3594SOL    HW120204   8.824   9.999   0.455  0.9609 -0.3826  0.9802
 3594SOL    HW220205   8.673   9.982   0.514 -0.0282  0.9386 -1.1214
 3595SOL     OW20206   2.147   8.762   0.328  0.6496  0.1053  0.3818
 3595SOL    HW120207   2.109   8.723   0.412 -0.4001  0.1946 -0.0359
 3595SOL    HW220208   2.140   8.862   0.332 -0.0703  0.0798 -0.1075
 3596SOL     OW20209   0.439   6.793   5.540 -0.2078  0.2547  0.1086
 3596SOL    HW120210   0.388   6.829   5.618 -0.8702  0.9875 -0.6451
 3596SOL    HW220211   0.375   6.761   5.471  0.3790 -0.9005  0.0977
 3597SOL     OW20212   7.011   9.963   1.260  0.5831 -0.6409 -0.0335
 3597SOL    HW120213   7.106   9.930   1.262  0.6316 -0.4707  0.5478
 3597SOL    HW220214   7.004  10.039   1.195  0.7248 -1.0269 -0.5007
 3598SOL     OW20215   1.752   7.463   3.907  0.2604  0.5728 -0.0618
 3598SOL    HW120216   1.789   7.507   3.825 -0.1950  0.8527 -0.1193
 3598SOL    HW220217   1.824   7.451   3.974  1.0158 -1.1773 -1.1461
 3599SOL     OW20218   7.246   3.085   4.018 -0.3340 -0.0409 -0.0487
 3599SOL    HW120219   7.161   3.127   4.051  0.8690  1.9966  0.5807
 3599SOL    HW220220   7.277   3.134   3.936  1.1221  0.3692  0.7232
 3600SOL     OW20221   3.506   1.583   7.445  0.8896  0.1411  0.5314
 3600SOL    HW120222   3.426   1.543   7.491  1.6228  0.0564  1.7420
 3600SOL    HW220223   3.507   1.682   7.462  1.2661  0.0809  0.8559
 3601SOL     OW20224   4.167   6.857   0.185  0.0772  0.3531 -0.1443
 3601SOL    HW120225   4.221   6.795   0.128  1.0169 -0.1069  1.2181
 3601SOL    HW220226   4.220   6.940   0.202 -1.8198  2.3032 -3.3424
 3602SOL     OW20227   3.087   9.801   7.250  0.3044  0.1116  0.5620
 3602SOL    HW120228   3.167   9.849   7.214  1.2816 -2.2378 -0.4778
 3602SOL    HW220229   3.114   9.747   7.330 -0.6634  0.8344  1.3876
 3604SOL     OW20230   2.077   8.101   7.216 -0.0170  0.0903 -0.0900
 3604SOL    HW120231   2.008   8.036   7.185  0.1014  0.4933 -1.2177
 3604SOL    HW220232   2.046   8.194   7.196 -0.0891  0.3829  1.3124
 3605SOL     OW20233   5.135   0.792   6.259  0.2264 -0.1147 -0.5258
 3605SOL    HW120234   5.087   0.797   6.347 -0.2581 -1.8448 -0.6832
 3605SOL    HW220235   5.182   0.879   6.242 -0.2140  0.4659  1.1298
 3606SOL     OW20236   9.928   4.226   6.813 -0.1605  0.3605  0.2417
 3606SOL    HW120237   9.930   4.237   6.912 -2.0477  1.1597  0.2060
 3606SOL    HW220238   9.914   4.129   6.791 -0.9875  0.3518  0.7807
 3607SOL     OW20239   6.167   5.993   0.648 -0.1107 -0.1346 -0.3771
 3607SOL    HW120240   6.082   6.046   0.651  0.8257  1.4398 -1.0713
 3607SOL    HW220241   6.214   6.010   0.561  0.7562 -1.2786 -0.1527
 3608SOL     OW20242   3.566   5.306   4.191 -0.4057  0.1979 -0.0193
 3608SOL    HW120243   3.654   5.306   4.142  0.3922 -0.9907  1.3678
 3608SOL    HW220244   3.563   5.382   4.256  0.9848 -1.6525  2.2878
 3609SOL     OW20245   6.806   8.948   3.990  0.0114 -1.0209  0.2841
 3609SOL    HW120246   6.865   8.931   4.068 -0.2974 -2.3408  0.2492
 3609SOL    HW220247   6.725   9.000   4.019  1.6899  1.7900  0.1226
 3612SOL     OW20248   4.053   4.465   7.035 -0.4589  0.6332 -0.0939
 3612SOL    HW120249   4.026   4.380   7.079 -1.3258 -0.1740 -2.1198
 3612SOL    HW220250   4.086   4.446   6.943 -2.1733  2.6164 -1.1729
 3613SOL     OW20251   2.915   4.708   5.299  0.2665 -0.5057  0.4936
 3613SOL    HW120252   2.889   4.688   5.393  0.2254 -1.8655  0.2070
 3613SOL    HW220253   3.014   4.719   5.293  0.1331  1.0128  0.9414
 3614SOL     OW20254   0.572   1.145   3.841 -0.0948 -0.4278  0.1721
 3614SOL    HW120255   0.546   1.050   3.822  2.7921 -1.0758 -0.8403
 3614SOL    HW220256   0.656   1.146   3.895 -1.4184  1.5778  2.2957
 3615SOL     OW20257   4.119   8.268   5.525  0.2907  0.3299  0.9098
 3615SOL    HW120258   4.023   8.244   5.514  0.4745 -0.1946  0.4570
 3615SOL    HW220259   4.172   8.232   5.449  0.8867  0.4125  1.2793
 3616SOL     OW20260   8.587   3.391   4.835 -0.3217  1.0000 -0.0853
 3616SOL    HW120261   8.518   3.427   4.898  0.3972 -0.3225  1.4715
 3616SOL    HW220262   8.633   3.467   4.790 -2.0615  1.9208 -0.3460
 3617SOL     OW20263   7.332   8.884   5.515  0.2239 -0.0929 -0.2061
 3617SOL    HW120264   7.309   8.864   5.610  0.6608  0.7553  0.0868
 3617SOL    HW220265   7.261   8.942   5.475  0.2937 -0.0340 -0.2454
 3619SOL     OW20266   2.731   5.453   7.182 -0.3742 -0.9069 -0.4756
 3619SOL    HW120267   2.806   5.447   7.249 -0.6806 -0.2502 -0.0692
 3619SOL    HW220268   2.646   5.473   7.230 -0.3944  0.7648 -1.1736
 3621SOL     OW20269   6.635   1.644   1.862 -0.2696  0.0060  0.1102
 3621SOL    HW120270   6.573   1.645   1.941  0.3577 -0.6193  0.6219
 3621SOL    HW220271   6.582   1.641   1.778 -0.9490 -2.7288  0.5979
 3622SOL     OW20272   8.030   0.906   3.203  0.1475 -0.1518 -0.2130
 3622SOL    HW120273   7.937   0.872   3.189 -0.0105  0.1764  0.0439
 3622SOL    HW220274   8.033   0.965   3.284  0.7020 -0.6475  0.1395
 3623SOL     OW20275   3.876   9.361   6.674 -1.1287 -0.1470  0.2241
 3623SOL    HW120276   3.952   9.297   6.683 -0.6109  0.3087 -0.7925
 3623SOL    HW220277   3.791   9.318   6.704 -0.2711 -0.2374  2.6348
 3624SOL     OW20278   1.128   5.022   3.860  0.1245  0.1397  0.2610
 3624SOL    HW120279   1.208   4.988   3.810 -1.4665 -1.9162 -0.9735
 3624SOL    HW220280   1.142   5.007   3.958  0.6340 -1.6455 -0.0550
 3626SOL     OW20281   0.131   0.934   1.372 -0.1661 -0.0588 -0.3708
 3626SOL    HW120282   0.061   0.997   1.339  1.1168  0.2647 -2.6029
 3626SOL    HW220283   0.135   0.853   1.313  0.4776 -0.6572  0.4742
 3627SOL     OW20284   6.352   4.903   2.614 -0.2703  0.1014  0.3848
 3627SOL    HW120285   6.386   4.809   2.618  0.2680  0.3410  1.7113
 3627SOL    HW220286   6.429   4.966   2.603 -0.7062  0.3369 -1.4449
 3628SOL     OW20287   3.117   0.643   6.595  0.8371  0.4557  0.5243
 3628SOL    HW120288   3.019   0.641   6.574  0.4542 -1.9159  2.3582
 3628SOL    HW220289   3.169   0.615   6.514 -0.0215  1.2285 -0.3063
 3629SOL     OW20290   2.165   7.469   4.743 -0.2341 -0.3284  0.3780
 3629SOL    HW120291   2.142   7.373   4.729  0.9620 -0.7657  1.3076
 3629SOL    HW220292   2.231   7.498   4.673 -2.1464  0.4187 -1.1731
 3630SOL     OW20293   1.412   8.626   1.245  0.5824  0.0080 -0.0687
 3630SOL    HW120294   1.414   8.618   1.146 -1.6302  2.8548 -0.4074
 3630SOL    HW220295   1.504   8.617   1.281  1.6329  0.4906 -2.5404
 3631SOL     OW20296   9.931   8.648   5.029  0.2622 -0.0435 -0.0573
 3631SOL    HW120297   9.978   8.568   5.065 -1.1987 -0.4214  1.0528
 3631SOL    HW220298   9.855   8.619   4.971 -1.2259  0.4651  1.5658
 3633SOL     OW20299   3.769   8.501   0.502 -0.8354  0.1055  0.0621
 3633SOL    HW120300   3.748   8.492   0.405  0.4356  0.6252 -0.2669
 3633SOL    HW220301   3.855   8.456   0.522 -1.3958 -0.5392  1.0774
 3634SOL     OW20302   4.501   3.011   0.430 -0.0795 -0.2747  0.6129
 3634SOL    HW120303   4.510   2.969   0.520 -0.5309 -0.9926  0.3259
 3634SOL    HW220304   4.592   3.031   0.393  0.1144 -0.3152  1.0692
 3635SOL     OW20305   1.915   1.721   7.203 -0.2845  0.0310 -0.4689
 3635SOL    HW120306   2.014   1.714   7.188 -0.2305 -1.6433  0.5530
 3635SOL    HW220307   1.867   1.716   7.116  0.5513  1.4663 -1.0336
 3636SOL     OW20308   8.754   1.058   7.306  0.6679 -0.5843 -0.3580
 3636SOL    HW120309   8.697   0.988   7.262 -1.1728  0.8776 -0.3585
 3636SOL    HW220310   8.752   1.045   7.405 -0.6992  0.2071 -0.2707
 3637SOL     OW20311   9.600   0.728   5.355 -0.0135  0.8777  0.5415
 3637SOL    HW120312   9.620   0.814   5.308  1.1778  0.4281  0.2351
 3637SOL    HW220313   9.684   0.690   5.393 -0.5250 -0.2271  0.5698
 3639SOL     OW20314   8.870   3.597   1.262 -0.6102  0.3930  0.4222
 3639SOL    HW120315   8.773   3.573   1.270 -0.9176  1.6724  0.7449
 3639SOL    HW220316   8.910   3.602   1.354  0.0747 -1.3488  0.2231
 3640SOL     OW20317   5.155   2.031   6.080 -0.0803 -0.3862 -0.7752
 3640SOL    HW120318   5.199   2.121   6.078 -0.3923 -0.1911  0.4685
 3640SOL    HW220319   5.180   1.979   5.998  0.8304  0.4867 -1.0538
 3642SOL     OW20320   8.125   6.416   7.479 -0.8604  0.2518 -0.0761
 3642SOL    HW120321   8.046   6.477   7.480 -0.8530  0.2455  0.8653
 3642SOL    HW220322   8.165   6.410   7.570  0.8596  1.0659 -0.7520
 3643SOL     OW20323   9.720   3.178   2.617 -0.5943 -0.2291  0.8462
 3643SOL    HW120324   9.721   3.078   2.624 -0.2148 -0.1349  2.1475
 3643SOL    HW220325   9.798   3.216   2.666  0.0717  0.6414 -0.8647
 3645SOL     OW20326   8.263   6.727   1.171 -0.3772  0.1290 -0.4744
 3645SOL    HW120327   8.284   6.665   1.096  1.7708  1.5480 -1.0938
 3645SOL    HW220328   8.307   6.694   1.255 -1.9328 -0.9101 -0.0521
 3646SOL     OW20329   0.883   7.016   7.322 -0.7259 -0.3695  0.0006
 3646SOL    HW120330   0.810   6.970   7.272  0.2294  0.6770 -2.4652
 3646SOL    HW220331   0.928   6.952   7.384 -0.7808 -2.2179 -1.8155
 3650SOL     OW20332   4.288   1.501   6.248  0.2112 -0.0460  0.6074
 3650SOL    HW120333   4.282   1.513   6.347  0.4248  2.3573  0.3512
 3650SOL    HW220334   4.203   1.461   6.214  0.0569 -0.6813  1.7084
 3651SOL     OW20335   3.920   0.138   4.239 -0.5798 -0.5286 -0.1590
 3651SOL    HW120336   4.001   0.105   4.189  0.1485  0.8167  0.0822
 3651SOL    HW220337   3.847   0.158   4.173  0.4794  1.5247 -0.7528
 3652SOL     OW20338   1.835   4.932   2.245  0.5597  0.1929 -0.1593
 3652SOL    HW120339   1.835   4.881   2.331  1.4168 -1.0396 -0.8778
 3652SOL    HW220340   1.756   4.993   2.243 -1.1501 -1.9609  0.2081
 3653SOL     OW20341   2.095   4.747   2.323  0.0040 -0.0279  0.0206
 3653SOL    HW120342   2.145   4.660   2.332  1.1505  0.7881  1.7540
 3653SOL    HW220343   1.997   4.729   2.325  0.2238 -1.3527 -0.3687
 3654SOL     OW20344   6.110   2.945   0.725  0.5650  0.0813  0.0479
 3654SOL    HW120345   6.093   3.010   0.799  2.5974 -0.6783  1.2392
 3654SOL    HW220346   6.094   2.990   0.637  0.9560  1.8878  0.8726
 3655SOL     OW20347   4.285   9.175   3.663  0.6656  0.9881  0.2394
 3655SOL    HW120348   4.190   9.191   3.689  0.6079  0.7791  0.1538
 3655SOL    HW220349   4.344   9.238   3.714  0.6581 -0.2682  1.8308
 3656SOL     OW20350   8.607   2.662   1.369  0.7208 -0.0979  0.5628
 3656SOL    HW120351   8.590   2.748   1.416  1.8492 -0.1473  1.0986
 3656SOL    HW220352   8.524   2.632   1.322  0.6599  1.9026 -0.6720
 3657SOL     OW20353   1.027   5.616   4.254  0.3300 -0.1830  0.4425
 3657SOL    HW120354   1.023   5.636   4.156 -2.2060  0.1736  0.5690
 3657SOL    HW220355   0.999   5.697   4.306  2.4380 -0.1214  1.5129
 3658SOL     OW20356   7.815   0.692   0.346  0.6883  0.0182  0.9247
 3658SOL    HW120357   7.887   0.710   0.413  1.0432  0.2121  0.4906
 3658SOL    HW220358   7.764   0.611   0.373  1.8200 -0.8092  0.6114
 3659SOL     OW20359   3.045   1.385   4.377 -0.1975  0.4798 -1.2547
 3659SOL    HW120360   3.061   1.477   4.413 -1.8568 -0.8369  3.1560
 3659SOL    HW220361   2.949   1.375   4.351  0.2810  0.3844 -3.0620
 3660SOL     OW20362   7.872   1.263   0.486 -0.7888 -0.3988 -0.0522
 3660SOL    HW120363   7.913   1.219   0.407 -0.2601 -0.1665  0.0902
 3660SOL    HW220364   7.944   1.305   0.542 -1.2682  0.4941 -0.1018
 3662SOL     OW20365   2.915   0.458   1.228  0.5236 -0.3242 -0.1670
 3662SOL    HW120366   2.951   0.536   1.178 -0.3715 -0.4626 -1.0197
 3662SOL    HW220367   2.924   0.475   1.327 -0.9146  1.4419 -0.3196
 3663SOL     OW20368   7.200   0.483   2.607  0.2080 -0.3874 -0.2330
 3663SOL    HW120369   7.296   0.494   2.580  0.0230  0.3909 -0.6044
 3663SOL    HW220370   7.194   0.461   2.704  0.8647 -2.7165 -0.6845
 3667SOL     OW20371   4.074   6.935   2.018 -0.5508  0.4414  1.1330
 3667SOL    HW120372   3.998   6.904   1.960  1.3936 -1.0090 -0.6945
 3667SOL    HW220373   4.121   7.011   1.972  0.3334  0.0115  1.3322
 3668SOL     OW20374   9.162   9.357   5.825  0.2758 -0.3693 -0.7179
 3668SOL    HW120375   9.181   9.275   5.771  1.5401 -0.2711 -0.4295
 3668SOL    HW220376   9.110   9.332   5.907  0.5838 -0.8812 -0.6734
 3669SOL     OW20377   3.277   9.690   4.332  0.5630 -0.4345  0.1798
 3669SOL    HW120378   3.212   9.625   4.292 -0.3039  0.1238  0.6533
 3669SOL    HW220379   3.318   9.650   4.414  1.6134 -1.2008 -0.7099
 3670SOL     OW20380   3.397   9.554   2.837 -0.5894 -0.0014  0.3982
 3670SOL    HW120381   3.411   9.466   2.883 -2.4509  0.0228  1.0447
 3670SOL    HW220382   3.316   9.549   2.779 -0.2790  1.0703 -0.1391
 3672SOL     OW20383   8.437   6.911   5.172 -0.8565  0.2437 -0.0593
 3672SOL    HW120384   8.455   6.863   5.258 -0.7914 -0.8603 -0.6701
 3672SOL    HW220385   8.356   6.968   5.182  0.2935  1.6965  1.3348
 3674SOL     OW20386   0.034   5.235   1.898  0.0819 -0.3487 -0.0437
 3674SOL    HW120387   0.090   5.314   1.924  0.3269 -0.1374 -1.1893
 3674SOL    HW220388   0.091   5.153   1.894  0.4593 -0.0025 -1.9024
 3675SOL     OW20389   0.343   0.561   5.101  0.4642 -0.3307 -0.1646
 3675SOL    HW120390   0.309   0.541   5.193 -0.8596 -2.0213 -1.0057
 3675SOL    HW220391   0.268   0.598   5.046  1.0206 -0.2072 -0.8373
 3676SOL     OW20392   9.784   7.318   3.248 -0.2992  0.0965  0.6320
 3676SOL    HW120393   9.813   7.290   3.156 -1.2927  0.3049  0.2509
 3676SOL    HW220394   9.686   7.339   3.247 -0.6199 -1.1970  2.0403
 3677SOL     OW20395   8.059   7.197   0.873  0.0621  0.4782  0.3452
 3677SOL    HW120396   8.017   7.223   0.960 -0.8637  2.8925 -0.7726
 3677SOL    HW220397   8.158   7.187   0.886  0.0553  1.7351  1.4897
 3679SOL     OW20398   6.788   2.510   5.303  0.2030 -0.3026 -0.2063
 3679SOL    HW120399   6.747   2.418   5.301 -1.4642  0.3455  2.0614
 3679SOL    HW220400   6.719   2.577   5.277  1.0260  0.4598 -0.4445
 3680SOL     OW20401   8.306   8.069   3.705 -0.0202 -0.0014  0.0699
 3680SOL    HW120402   8.368   8.044   3.630 -0.8188 -1.2910 -0.1758
 3680SOL    HW220403   8.224   8.112   3.667  1.1171  2.6215  0.4572
 3681SOL     OW20404   3.687   3.571   2.057 -0.2894  0.3671 -0.2727
 3681SOL    HW120405   3.746   3.495   2.031 -1.3223 -0.0679 -1.4163
 3681SOL    HW220406   3.672   3.570   2.156 -1.3349 -1.7126 -0.4224
 3683SOL     OW20407   3.699   7.648   5.815 -0.4352  0.2042  0.1203
 3683SOL    HW120408   3.741   7.565   5.780  0.2617  0.7995 -0.4643
 3683SOL    HW220409   3.688   7.641   5.914 -1.2633 -0.9698 -0.0375
 3684SOL     OW20410   4.021   3.052   0.345  0.0881 -0.2287 -0.0007
 3684SOL    HW120411   4.020   3.036   0.247  0.5754 -0.4631  0.0298
 3684SOL    HW220412   3.940   3.104   0.372 -0.2176 -0.4644 -0.4730
 3686SOL     OW20413   9.579   6.335   2.305  0.2302 -0.4764 -0.2640
 3686SOL    HW120414   9.605   6.240   2.285  0.0430 -0.2374 -1.7416
 3686SOL    HW220415   9.661   6.391   2.311  0.3048 -0.6033 -0.1038
 3687SOL     OW20416   9.721   6.302   2.709  0.0323  0.6155 -0.0813
 3687SOL    HW120417   9.692   6.208   2.725 -1.4309  1.2030  0.9033
 3687SOL    HW220418   9.642   6.357   2.682  0.6277  1.8131  0.5406
 3688SOL     OW20419   2.249   5.743   2.434 -0.1200  0.2525 -0.0085
 3688SOL    HW120420   2.342   5.745   2.470 -0.7202 -0.0676  1.5901
 3688SOL    HW220421   2.197   5.670   2.479 -1.2914  0.7355 -0.5533
 3689SOL     OW20422   8.604   7.775   1.136 -0.1356 -0.0667  0.1251
 3689SOL    HW120423   8.568   7.868   1.125  1.6222  0.8427  1.6336
 3689SOL    HW220424   8.533   7.709   1.116 -1.9038  1.6305  0.6300
 3690SOL     OW20425   1.356   2.587   3.729 -0.1059  0.2586 -0.5635
 3690SOL    HW120426   1.290   2.662   3.739  0.8926  1.2041 -1.0028
 3690SOL    HW220427   1.417   2.585   3.808 -0.4905 -0.4623 -0.2774
 3691SOL     OW20428   9.716   9.665   6.241 -0.2192  0.2646 -0.6400
 3691SOL    HW120429   9.632   9.636   6.286  0.8573 -1.5341  0.2617
 3691SOL    HW220430   9.753   9.588   6.188  0.8426  1.0490 -1.0404
 3692SOL     OW20431   9.651   7.893   5.275 -0.2772  0.5103 -0.2029
 3692SOL    HW120432   9.595   7.811   5.265  1.9641 -0.9624 -1.0474
 3692SOL    HW220433   9.727   7.875   5.337  0.2796  1.9225 -0.4460
 3693SOL     OW20434   4.087   8.279   3.340 -0.1941  0.1507 -0.1324
 3693SOL    HW120435   4.125   8.280   3.248  1.3675 -0.7748  0.4812
 3693SOL    HW220436   4.014   8.211   3.346 -1.1454  1.0788 -0.9975
 3694SOL     OW20437   2.255   7.993   6.955 -1.1444  0.3730  0.1600
 3694SOL    HW120438   2.220   8.003   7.048 -0.7651 -0.1529  0.3604
 3694SOL    HW220439   2.354   7.985   6.957 -1.1639  0.0023 -0.2626
 3697SOL     OW20440   4.018   1.517   7.495  0.5149 -0.7451  0.3413
 3697SOL    HW120441   4.054   1.425   7.508 -1.9916 -1.9312 -0.8715
 3697SOL    HW220442   4.067   1.563   7.421  1.0938 -1.4755  0.2785
 3701SOL     OW20443   7.451   5.867   6.234  0.4811 -0.1623 -0.4913
 3701SOL    HW120444   7.411   5.939   6.291  0.8849 -0.2802 -0.0519
 3701SOL    HW220445   7.496   5.799   6.293 -0.3602 -1.0562 -0.8826
 3702SOL     OW20446   3.580   4.311   4.696  0.0067 -0.7655  0.5161
 3702SOL    HW120447   3.677   4.321   4.674 -0.4493  1.5631 -0.5073
 3702SOL    HW220448   3.545   4.228   4.652  1.1375 -0.7413 -0.4782
 3703SOL     OW20449   0.906   5.972   7.280 -0.2490  0.1799 -0.3637
 3703SOL    HW120450   0.966   6.025   7.339  0.9133  0.3366 -1.6519
 3703SOL    HW220451   0.923   5.997   7.185 -0.4854 -1.6707 -0.9072
 3704SOL     OW20452   4.022   7.371   4.184 -0.3566 -0.0351  0.2777
 3704SOL    HW120453   4.114   7.361   4.146 -1.2713 -3.3655 -1.2389
 3704SOL    HW220454   4.020   7.339   4.279 -0.1498 -0.9764 -0.0286
 3705SOL     OW20455   6.478   0.495   4.176  0.1417 -0.0956 -0.4826
 3705SOL    HW120456   6.379   0.489   4.184  0.3221 -0.1419  2.0224
 3705SOL    HW220457   6.505   0.588   4.152 -0.4490  0.1663 -0.1179
 3706SOL     OW20458   0.932   4.068   2.999  0.1452 -0.3680 -0.1110
 3706SOL    HW120459   1.007   4.074   3.065  0.0626 -0.5773  0.0030
 3706SOL    HW220460   0.856   4.127   3.028  0.5576  0.4207 -0.6143
 3707SOL     OW20461   2.352   8.358   4.879  0.3504 -0.1504  0.2639
 3707SOL    HW120462   2.443   8.379   4.914  0.1976 -0.4332  0.8380
 3707SOL    HW220463   2.360   8.301   4.798  0.6690 -0.5827  0.6006
 3708SOL     OW20464   8.999   2.385   7.494 -0.0259 -0.3885  0.5439
 3708SOL    HW120465   9.093   2.366   7.523  0.1533 -0.7116 -0.2446
 3708SOL    HW220466   8.937   2.372   7.572  0.4943 -0.9230  0.8703
 3710SOL     OW20467   0.056   1.582   2.574  0.6950  0.3635  0.2685
 3710SOL    HW120468   0.068   1.674   2.537 -2.7160  0.4099 -0.9114
 3710SOL    HW220469   0.002   1.586   2.658  0.0221 -0.5987 -0.1042
 3711SOL     OW20470   6.908   0.337   3.718 -0.0926  0.1163 -0.1363
 3711SOL    HW120471   6.903   0.431   3.750 -4.1408 -0.3186  0.8789
 3711SOL    HW220472   6.885   0.334   3.621 -0.9549  0.1213  0.0580
 3712SOL     OW20473   1.372   0.189   3.499  0.3401  0.1159  0.0288
 3712SOL    HW120474   1.372   0.253   3.423 -1.5470  1.7798  1.3673
 3712SOL    HW220475   1.394   0.238   3.584  1.4241 -1.5047  0.7008
 3713SOL     OW20476   1.735   9.436   3.310 -0.1520 -0.3041  0.2289
 3713SOL    HW120477   1.656   9.401   3.360 -0.7706  0.6157 -0.1078
 3713SOL    HW220478   1.805   9.466   3.376 -1.5847  2.3498  0.6171
 3714SOL     OW20479   6.682   1.745   4.547  0.2781 -0.2475  0.1378
 3714SOL    HW120480   6.773   1.787   4.549 -0.4964  1.5892 -1.4243
 3714SOL    HW220481   6.683   1.664   4.489  0.7043  0.3527 -0.7058
 3715SOL     OW20482   9.823   2.392   2.954 -0.2294  0.1547  0.1689
 3715SOL    HW120483   9.732   2.434   2.947 -0.2318  0.0415 -0.4677
 3715SOL    HW220484   9.845   2.378   3.051 -0.8034  0.3720  0.3354
 3716SOL     OW20485   8.443   7.372   0.715  0.3710 -0.0659 -0.0970
 3716SOL    HW120486   8.402   7.310   0.782  0.6861  0.0418  0.1989
 3716SOL    HW220487   8.542   7.373   0.727  0.6800 -1.7813 -2.0316
 3717SOL     OW20488   3.121   4.296   1.005 -0.5535 -0.1616  0.2632
 3717SOL    HW120489   3.203   4.241   1.020  0.2355  1.6016  2.9630
 3717SOL    HW220490   3.041   4.237   0.999  0.2667 -1.6480  2.9906
 3718SOL     OW20491   1.660   8.120   7.345 -0.3262 -0.1100  0.0063
 3718SOL    HW120492   1.574   8.163   7.371  0.1645  0.7489  0.2632
 3718SOL    HW220493   1.678   8.139   7.248  1.0611  2.3804  0.6963
 3719SOL     OW20494   1.801   6.548   1.562 -0.3860 -0.4694  0.0477
 3719SOL    HW120495   1.764   6.629   1.607 -1.3803 -0.7989 -0.1609
 3719SOL    HW220496   1.777   6.550   1.465  0.7967 -0.3142 -0.2436
 3720SOL     OW20497   3.336   7.433   0.234  0.3112 -0.2546 -0.3422
 3720SOL    HW120498   3.429   7.456   0.203  0.0412 -0.3324 -1.2292
 3720SOL    HW220499   3.332   7.336   0.256  0.7603 -0.0056  0.8794
 3721SOL     OW20500   2.562   8.119   5.184  0.2195  0.1257  0.8427
 3721SOL    HW120501   2.520   8.038   5.225  0.0088  0.6248  1.6254
 3721SOL    HW220502   2.504   8.199   5.201 -0.2954  0.2140 -1.1533
 3722SOL     OW20503   2.494   7.765   3.952  0.6362 -0.1528 -0.2657
 3722SOL    HW120504   2.570   7.774   3.887 -0.0515 -1.7080 -1.3149
 3722SOL    HW220505   2.415   7.816   3.918 -0.2337 -2.2717 -1.4698
 3723SOL     OW20506   4.689   9.709   7.806  0.5381 -0.3539  0.2062
 3723SOL    HW120507   4.603   9.661   7.827  0.5919 -1.2310 -1.4741
 3723SOL    HW220508   4.677   9.807   7.821 -1.4697 -0.1836 -2.0945
 3724SOL     OW20509   9.277   5.326   6.836 -0.1289  0.0857  0.3076
 3724SOL    HW120510   9.320   5.394   6.778  0.9675 -0.1230  0.8702
 3724SOL    HW220511   9.259   5.243   6.783 -0.8498  0.5706 -0.2041
 3725SOL     OW20512   9.292   6.109   3.255  0.3883  0.3724  0.4389
 3725SOL    HW120513   9.370   6.049   3.239  1.5120  1.6727  0.9677
 3725SOL    HW220514   9.319   6.204   3.238 -0.3636  1.0820  3.0689
 3727SOL     OW20515   3.324   5.211   1.896  0.1696 -0.5020 -0.7655
 3727SOL    HW120516   3.324   5.210   1.796  0.3493  2.0188 -0.8209
 3727SOL    HW220517   3.267   5.286   1.929  1.1381 -0.5138  1.0011
 3729SOL     OW20518   1.782   4.414   3.278  0.1165 -0.3183 -1.0176
 3729SOL    HW120519   1.763   4.366   3.364  0.1403 -0.7942 -1.2730
 3729SOL    HW220520   1.706   4.399   3.215 -0.3432  0.8279 -0.7432
 3730SOL     OW20521   7.217   1.962   0.177 -0.2140  0.0930 -0.2264
 3730SOL    HW120522   7.283   1.971   0.103  0.0265 -0.8967 -0.1422
 3730SOL    HW220523   7.199   1.865   0.193 -1.4857  0.3453 -0.0755
 3731SOL     OW20524   5.596   9.697   5.824 -0.1106  0.3425 -0.7661
 3731SOL    HW120525   5.530   9.746   5.881  0.2756  0.8298 -0.7380
 3731SOL    HW220526   5.624   9.755   5.748 -1.8758 -0.9021 -2.3988
 3732SOL     OW20527   8.553   9.023   7.112 -0.1175  0.1940 -0.3854
 3732SOL    HW120528   8.480   8.955   7.109 -0.6523  0.8327 -2.0122
 3732SOL    HW220529   8.558   9.062   7.204 -1.0215 -0.7168  0.0543
 3734SOL     OW20530   0.114   7.379   5.131 -0.6714  0.4575  0.0586
 3734SOL    HW120531   0.202   7.370   5.084 -0.2654  1.2563  0.6614
 3734SOL    HW220532   0.113   7.463   5.184 -2.5595  1.5081 -1.5715
 3735SOL     OW20533   3.823   4.941   1.247 -0.8708  0.0521 -0.2806
 3735SOL    HW120534   3.843   5.030   1.287  0.2922 -0.3335  0.0087
 3735SOL    HW220535   3.880   4.926   1.167  0.5758 -1.3730  0.9917
 3736SOL     OW20536   0.022   9.266   1.092 -0.0291 -0.0788 -0.4431
 3736SOL    HW120537  -0.029   9.322   1.026  0.1665  0.9210  0.2469
 3736SOL    HW220538   0.011   9.169   1.068 -0.4015  0.2396 -1.6260
 3737SOL     OW20539   9.027   6.779   4.158 -0.5692 -0.0469  0.4420
 3737SOL    HW120540   9.059   6.813   4.246  0.7392 -1.3069  0.4745
 3737SOL    HW220541   9.077   6.695   4.134 -4.8136 -2.8901  1.1263
 3738SOL     OW20542   0.288   4.304   3.203  0.2740  0.0397  0.1956
 3738SOL    HW120543   0.365   4.252   3.240  0.1652  0.0735  0.4725
 3738SOL    HW220544   0.303   4.401   3.221 -0.7626 -0.1054  2.0009
 3739SOL     OW20545   6.512   1.580   0.883 -0.0386  0.7856 -0.2255
 3739SOL    HW120546   6.571   1.637   0.941  0.6548  1.7933 -1.8887
 3739SOL    HW220547   6.512   1.615   0.790 -2.0754 -0.1295 -0.6073
 3740SOL     OW20548   0.571   9.747   0.437 -0.3510  1.0735 -0.1516
 3740SOL    HW120549   0.518   9.786   0.512 -0.1862  1.1038 -0.0507
 3740SOL    HW220550   0.659   9.794   0.429  0.3288 -0.0262  0.7050
 3741SOL     OW20551   1.275   6.578   7.246 -0.0794  0.2028  0.1199
 3741SOL    HW120552   1.358   6.623   7.213 -0.1101  1.8753  2.2042
 3741SOL    HW220553   1.198   6.641   7.239 -0.8039 -0.7017 -0.0949
 3742SOL     OW20554   7.286   9.110   2.349  0.4117 -0.0626  0.1732
 3742SOL    HW120555   7.315   9.196   2.308  0.5526 -0.0822  0.2316
 3742SOL    HW220556   7.294   9.116   2.449  0.3793 -0.1274  0.1801
 3744SOL     OW20557   1.478   2.432   4.236 -0.5005 -0.4232 -0.0804
 3744SOL    HW120558   1.464   2.418   4.334  1.4293 -3.7486 -0.1956
 3744SOL    HW220559   1.544   2.506   4.222 -1.7522  0.9350  1.0722
 3745SOL     OW20560   0.362   0.599   7.656 -0.1527  0.1345  0.1298
 3745SOL    HW120561   0.397   0.508   7.682  0.0521 -0.3957 -1.9001
 3745SOL    HW220562   0.264   0.603   7.675  0.1000  0.0185  1.5746
 3746SOL     OW20563   5.465   8.517   2.468  0.6530 -0.1150 -0.0431
 3746SOL    HW120564   5.447   8.469   2.554  0.3351 -0.4776 -0.3079
 3746SOL    HW220565   5.549   8.482   2.427  0.8285  0.0903  0.1413
 3747SOL     OW20566   5.506   0.989   4.211  0.1019  0.1993 -0.1170
 3747SOL    HW120567   5.463   0.902   4.188  1.1492 -0.0372 -1.2437
 3747SOL    HW220568   5.463   1.063   4.159  0.7700  0.0198 -0.9341
 3749SOL     OW20569   3.755   3.402   6.699  0.1561 -0.0129 -0.7088
 3749SOL    HW120570   3.734   3.499   6.690  1.9300  0.5427  0.7665
 3749SOL    HW220571   3.699   3.349   6.635  0.6341  2.1543 -2.9933
 3751SOL     OW20572   5.684   4.300   0.342  0.1182  0.1449 -0.4537
 3751SOL    HW120573   5.670   4.210   0.384  0.5433  0.3630  0.1668
 3751SOL    HW220574   5.681   4.371   0.413 -1.9187  0.7957 -1.1714
 3752SOL     OW20575   2.051   5.355   4.920 -0.1722 -0.3913  0.1512
 3752SOL    HW120576   1.996   5.292   4.865  0.7381 -2.1183  1.1848
 3752SOL    HW220577   2.001   5.440   4.933 -1.1423 -0.6411 -1.8426
 3753SOL     OW20578   3.094   9.219   0.676 -0.2704 -0.4532 -0.5283
 3753SOL    HW120579   3.183   9.235   0.634  0.3138 -2.8378 -0.2173
 3753SOL    HW220580   3.106   9.194   0.772 -1.3856  0.7514 -0.0467
 3754SOL     OW20581   9.913   0.987   0.928 -0.8683  0.3253 -0.1805
 3754SOL    HW120582   9.946   1.074   0.965 -3.2410  0.1059  2.5706
 3754SOL    HW220583   9.817   0.996   0.901 -0.9631 -1.2728 -0.4405
 3755SOL     OW20584   9.571   2.250   0.983  0.3754  1.1770 -0.4524
 3755SOL    HW120585   9.670   2.257   0.971  0.3892  2.7471  0.4034
 3755SOL    HW220586   9.547   2.271   1.078 -0.6615 -0.5693 -0.3039
 3756SOL     OW20587   3.596   8.207   2.493  0.1032 -0.3695 -0.9844
 3756SOL    HW120588   3.693   8.186   2.507  0.1873  0.1394 -0.7978
 3756SOL    HW220589   3.547   8.198   2.580 -0.2932 -2.0588 -1.3618
 3757SOL     OW20590   5.316   0.366   3.569  0.1582 -0.2002  0.1833
 3757SOL    HW120591   5.328   0.273   3.533  0.2090 -0.0910 -0.0778
 3757SOL    HW220592   5.221   0.379   3.597  0.1304 -0.2997  0.1361
 3758SOL     OW20593   2.050   9.341   0.182 -0.1608 -0.5295 -0.5947
 3758SOL    HW120594   2.146   9.357   0.156 -0.1185 -0.1819 -0.2435
 3758SOL    HW220595   2.038   9.245   0.206  0.5363 -0.2321  1.0876
 3759SOL     OW20596   0.799   8.200   3.267  0.0486 -0.1602  0.0064
 3759SOL    HW120597   0.802   8.102   3.251  0.0271 -0.1545 -0.0298
 3759SOL    HW220598   0.871   8.226   3.331  0.6759 -0.0538 -0.7392
 3760SOL     OW20599   0.575   2.570   0.148 -0.6102 -0.1754  0.2788
 3760SOL    HW120600   0.656   2.524   0.111 -1.1054 -0.9349  0.1112
 3760SOL    HW220601   0.542   2.638   0.082 -0.0826  0.1685  0.3691
 3761SOL     OW20602   0.738   2.177   6.162 -0.4858  0.1167 -0.0905
 3761SOL    HW120603   0.699   2.235   6.091 -0.4347 -1.5798 -1.5390
 3761SOL    HW220604   0.837   2.173   6.151 -0.3860  0.5217  0.6085
 3762SOL     OW20605   2.884   4.834   1.396 -0.5357  0.2916  0.2797
 3762SOL    HW120606   2.963   4.796   1.348 -1.4811 -0.4540 -0.7052
 3762SOL    HW220607   2.814   4.861   1.330 -0.1694  3.1879  0.9844
 3763SOL     OW20608   4.797   9.743   5.149 -0.3864 -0.0323  0.5547
 3763SOL    HW120609   4.724   9.805   5.179  0.3884  0.7938  0.7602
 3763SOL    HW220610   4.834   9.774   5.062  1.5314  1.1251  1.7337
 3764SOL     OW20611   0.200   8.023   7.137  0.3128  0.0599 -0.1097
 3764SOL    HW120612   0.155   8.048   7.223  0.6020 -1.4361  0.4945
 3764SOL    HW220613   0.293   8.057   7.136  1.0580 -1.8629  1.1722
 3765SOL     OW20614   7.353   6.663   6.646  0.1496  0.3005 -0.0780
 3765SOL    HW120615   7.394   6.684   6.557  1.5431  0.5009  0.5992
 3765SOL    HW220616   7.261   6.702   6.650  1.8219  4.4682  0.3102
 3766SOL     OW20617   0.624   8.254   3.063  0.4498  0.1810 -0.5320
 3766SOL    HW120618   0.692   8.227   3.131 -1.3775 -0.5698  1.0487
 3766SOL    HW220619   0.592   8.347   3.081  1.4191  0.7330 -1.5911
 3767SOL     OW20620   5.536   4.944   0.494 -0.6746 -0.2420 -0.0144
 3767SOL    HW120621   5.595   4.869   0.526  0.7112  0.5006 -0.7737
 3767SOL    HW220622   5.488   4.914   0.412  0.1875 -0.1747 -0.5530
 3768SOL     OW20623   9.365   8.061   2.943  0.0178 -0.0930 -0.2221
 3768SOL    HW120624   9.417   8.050   3.028  0.9195  0.9743 -0.6144
 3768SOL    HW220625   9.305   8.140   2.952  1.3003  1.0188 -1.1287
 3770SOL     OW20626   9.748   3.667   5.575 -0.3095 -0.4422 -0.2947
 3770SOL    HW120627   9.693   3.614   5.511 -0.3354  0.1928 -0.8047
 3770SOL    HW220628   9.841   3.676   5.540  0.0279 -1.2282  0.4055
 3774SOL     OW20629   0.443   9.145   1.532 -0.9122 -0.4583 -0.4281
 3774SOL    HW120630   0.506   9.136   1.455 -0.6964  2.1227 -0.6047
 3774SOL    HW220631   0.376   9.216   1.512 -0.2664  0.9240  2.1389
 3775SOL     OW20632   9.632   2.854   4.200 -0.0321  1.0948 -0.2511
 3775SOL    HW120633   9.591   2.904   4.277 -0.6844  1.5076 -0.8588
 3775SOL    HW220634   9.617   2.756   4.212  0.4697  1.1051  0.4956
 3776SOL     OW20635   7.768   1.254   3.863  1.0184  0.5242 -0.4665
 3776SOL    HW120636   7.724   1.210   3.785 -0.1703 -0.3985  0.6836
 3776SOL    HW220637   7.841   1.196   3.899 -1.8744 -1.5926  2.3048
 3778SOL     OW20638   2.313   9.233   1.923 -0.0516  0.6083 -0.0163
 3778SOL    HW120639   2.257   9.296   1.870 -2.2526 -1.8187 -0.6690
 3778SOL    HW220640   2.332   9.150   1.869 -0.2996 -0.8702  2.0923
 3779SOL     OW20641   4.104   9.754   1.953 -0.4854 -0.2612  0.3886
 3779SOL    HW120642   4.086   9.660   1.924 -1.7693 -0.3472  1.4140
 3779SOL    HW220643   4.068   9.768   2.045 -0.1398  1.1891  0.3166
 3781SOL     OW20644   7.959   8.403   7.667  0.1282 -0.0930  0.0236
 3781SOL    HW120645   8.058   8.413   7.657  0.2806  1.3693  2.6339
 3781SOL    HW220646   7.939   8.314   7.708  0.3846 -0.2025 -0.0837
 3782SOL     OW20647   6.824   3.962   2.518  0.2707 -0.5036  0.1541
 3782SOL    HW120648   6.820   4.058   2.489 -0.3863 -0.1470  1.3850
 3782SOL    HW220649   6.796   3.904   2.442  0.1609  0.3130 -0.4460
 3783SOL     OW20650   5.471   2.093   7.267  0.3974  0.1707 -0.0250
 3783SOL    HW120651   5.556   2.049   7.238  2.1453  2.3069  1.6409
 3783SOL    HW220652   5.456   2.076   7.364 -0.0912  1.3088  0.1106
 3784SOL     OW20653   4.407   8.089   1.281 -0.2128  0.2090 -0.2549
 3784SOL    HW120654   4.443   8.177   1.250  0.4745 -0.4286 -1.2729
 3784SOL    HW220655   4.456   8.061   1.364 -0.1414  0.5829 -0.1691
 3786SOL     OW20656   5.150   5.605   1.430 -0.5646 -0.4911  0.2286
 3786SOL    HW120657   5.171   5.631   1.335 -0.5413 -1.3341 -0.0007
 3786SOL    HW220658   5.202   5.664   1.492  0.2558 -0.6402 -0.3009
 3787SOL     OW20659   2.001   9.671   1.770 -0.2354  0.8790  0.4648
 3787SOL    HW120660   2.029   9.628   1.856  0.4474  0.5082  0.0589
 3787SOL    HW220661   1.902   9.680   1.768 -0.1622  2.1517  1.8925
 3788SOL     OW20662   7.725   7.489   7.065  0.3368 -0.2195 -0.0271
 3788SOL    HW120663   7.691   7.430   7.139  2.1202  1.2493  2.0620
 3788SOL    HW220664   7.742   7.581   7.102  1.7148  0.4138 -2.1863
 3789SOL     OW20665   9.335   7.493   1.620  0.5661  0.3563 -0.0349
 3789SOL    HW120666   9.355   7.483   1.522 -1.5347  2.1974 -0.6949
 3789SOL    HW220667   9.387   7.570   1.657  0.3454  0.4840  0.0056
 3790SOL     OW20668   8.296   1.341   2.515  0.1052 -0.2939  0.6377
 3790SOL    HW120669   8.282   1.348   2.416 -0.4582 -0.0012  0.7366
 3790SOL    HW220670   8.371   1.277   2.533 -0.2293 -0.8658  0.0499
 3791SOL     OW20671   6.964   1.688   0.395 -0.2694  0.4755 -0.3334
 3791SOL    HW120672   6.873   1.679   0.353 -0.7498 -1.0715  0.9763
 3791SOL    HW220673   6.955   1.726   0.487  0.2986 -0.6046  0.1787
 3792SOL     OW20674   3.073   0.388   3.252 -0.3204  0.6701  0.7200
 3792SOL    HW120675   3.147   0.414   3.189  0.3806 -2.6159  0.0874
 3792SOL    HW220676   3.103   0.310   3.308 -3.4468 -1.1124  0.0543
 3793SOL     OW20677   9.785   7.029   4.379 -0.5867  0.0510  0.1041
 3793SOL    HW120678   9.866   6.981   4.345 -0.6325  0.3434 -0.4360
 3793SOL    HW220679   9.811   7.090   4.453  0.1265  1.9161 -1.6189
 3794SOL     OW20680   6.420   0.257   5.231 -0.0367  0.0557 -0.5792
 3794SOL    HW120681   6.400   0.252   5.329 -1.4609  1.1468 -0.7838
 3794SOL    HW220682   6.335   0.242   5.179  0.5452  0.3040 -1.6193
 3795SOL     OW20683   4.268   7.053   2.752  0.1483 -0.2557 -0.0302
 3795SOL    HW120684   4.287   7.123   2.683  1.3189  1.0029  1.5425
 3795SOL    HW220685   4.351   6.998   2.768 -0.3473 -1.0618 -0.1939
 3796SOL     OW20686   2.576   7.920   6.535 -0.4168 -0.3908  0.2659
 3796SOL    HW120687   2.526   7.875   6.461  0.1718  0.8279 -0.8848
 3796SOL    HW220688   2.578   7.860   6.615 -1.0689 -1.7126 -0.6929
 3798SOL     OW20689   6.045   9.394   5.559 -0.2073 -0.1469  0.2491
 3798SOL    HW120690   5.977   9.361   5.624  0.1315 -0.7325  0.3084
 3798SOL    HW220691   6.025   9.489   5.536  0.0936  0.2966  1.7687
 3799SOL     OW20692   1.892   8.484   4.616 -0.6871 -0.1457 -0.7899
 3799SOL    HW120693   1.805   8.524   4.644  0.0814  1.8825 -1.2170
 3799SOL    HW220694   1.967   8.542   4.649  0.4778 -1.5856 -0.8781
 3800SOL     OW20695   3.233   3.903   6.178 -0.2623  0.1196 -0.3836
 3800SOL    HW120696   3.214   3.822   6.122 -0.4218  0.6831 -1.1697
 3800SOL    HW220697   3.329   3.905   6.205 -0.1504 -0.0853 -0.7703
 3801SOL     OW20698   2.781   2.290   0.943  0.2886 -0.1948 -0.0145
 3801SOL    HW120699   2.745   2.265   0.854  0.7921 -0.3625 -0.1715
 3801SOL    HW220700   2.706   2.297   1.009 -0.0700 -0.1597 -0.4263
 3802SOL     OW20701   5.334   7.452   6.135 -0.3561  0.4008 -0.8327
 3802SOL    HW120702   5.246   7.487   6.103 -0.9104 -1.7973 -1.7723
 3802SOL    HW220703   5.405   7.473   6.068 -0.3884  1.1034 -0.6488
 3803SOL     OW20704   0.196   2.289   6.304 -0.0367 -0.5612 -0.1978
 3803SOL    HW120705   0.214   2.190   6.308  0.8245 -0.4043 -0.0153
 3803SOL    HW220706   0.100   2.306   6.326 -0.3667 -1.4111 -0.9209
 3804SOL     OW20707   6.780   1.109   0.311 -0.1715  0.3639 -0.4322
 3804SOL    HW120708   6.713   1.096   0.238 -1.5917 -1.4651  1.1506
 3804SOL    HW220709   6.867   1.137   0.272 -1.0134 -0.1958 -2.7803
 3805SOL     OW20710   3.521   8.795   2.865  0.3739  0.0808 -0.1557
 3805SOL    HW120711   3.596   8.731   2.843  0.9608  0.2939  1.1576
 3805SOL    HW220712   3.485   8.773   2.955 -1.2619 -0.1043 -0.8489
 3806SOL     OW20713   2.667   9.097   0.836  0.2335  0.1655  0.2683
 3806SOL    HW120714   2.735   9.160   0.876  0.1662  0.1194  0.4577
 3806SOL    HW220715   2.596   9.150   0.789  0.0716  0.2444  0.5939
 3807SOL     OW20716   3.627   9.395   0.669 -0.3543  0.1345 -0.1539
 3807SOL    HW120717   3.718   9.437   0.663 -0.6468  0.7530 -0.2816
 3807SOL    HW220718   3.637   9.298   0.691  0.2363  0.7683  2.5631
 3808SOL     OW20719   7.164   5.189   7.857  0.4033 -0.5475 -0.0418
 3808SOL    HW120720   7.253   5.152   7.833  0.9249  0.3391  0.4782
 3808SOL    HW220721   7.170   5.289   7.865 -0.5651 -0.5019  0.2670
 3809SOL     OW20722   1.353   2.997   3.248 -0.3975  0.0729 -0.0927
 3809SOL    HW120723   1.335   2.901   3.226  1.6310 -0.1340 -0.8930
 3809SOL    HW220724   1.358   3.050   3.164  1.7393  0.2862  0.1449
 3810SOL     OW20725   0.595   2.858   2.365  0.1499 -0.2903  0.2520
 3810SOL    HW120726   0.577   2.853   2.267  0.1981  0.8681  0.1720
 3810SOL    HW220727   0.556   2.943   2.402  0.7247 -0.3861  1.1008
 3812SOL     OW20728   2.948   5.968   2.205  0.1458  0.3308 -0.5563
 3812SOL    HW120729   2.998   5.900   2.258  0.4779  0.7245 -0.3539
 3812SOL    HW220730   2.872   6.003   2.259  0.1276  0.3006 -0.5628
 3814SOL     OW20731   7.572   1.040   4.285  0.2363 -0.0203 -0.2352
 3814SOL    HW120732   7.671   1.030   4.278  0.1425 -1.3790  0.2183
 3814SOL    HW220733   7.547   1.056   4.380 -0.1067 -1.3734 -0.0864
 3815SOL     OW20734   1.155   6.453   1.862 -0.2795 -0.4089  0.3792
 3815SOL    HW120735   1.093   6.376   1.878 -0.5815  0.0413  1.4264
 3815SOL    HW220736   1.227   6.425   1.799 -1.1588 -1.1451 -0.3148
 3816SOL     OW20737   7.281   1.459   5.798  0.2912  0.6331  0.8250
 3816SOL    HW120738   7.305   1.381   5.855  1.7361 -0.0950 -0.7562
 3816SOL    HW220739   7.362   1.492   5.750 -1.3365 -0.3667 -2.7611
 3817SOL     OW20740   8.809   9.346   5.357 -0.1815  0.2092  0.1754
 3817SOL    HW120741   8.799   9.316   5.262 -0.6895  0.5030  0.1305
 3817SOL    HW220742   8.822   9.266   5.416  1.2544  0.1108 -0.2694
 3818SOL     OW20743   2.077   4.846   5.961 -0.3451 -0.3133 -0.2722
 3818SOL    HW120744   2.033   4.856   6.050  1.4981 -0.1556  0.6536
 3818SOL    HW220745   2.126   4.759   5.958  0.9558  0.4059 -0.4979
 3819SOL     OW20746   4.612   9.448   7.558 -0.3077  0.2471  0.0680
 3819SOL    HW120747   4.564   9.534   7.543 -0.3642  0.1974 -0.0408
 3819SOL    HW220748   4.595   9.415   7.651 -1.9040 -0.6575 -0.5363
 3821SOL     OW20749   1.461   6.665   4.611  0.1571  0.3854  0.1830
 3821SOL    HW120750   1.472   6.715   4.697  0.5043  0.5182  0.0595
 3821SOL    HW220751   1.463   6.566   4.630  1.2143  0.4087  0.2059
 3822SOL     OW20752   0.937   7.860   3.967  0.2981  0.8285  0.6764
 3822SOL    HW120753   0.882   7.864   4.050  0.7360 -0.8492  1.0424
 3822SOL    HW220754   1.033   7.847   3.990  0.2473 -1.0643 -0.1228
 3823SOL     OW20755   2.081   9.674   7.067 -0.3226 -0.4174 -0.6548
 3823SOL    HW120756   2.152   9.742   7.048 -0.9543  0.2286 -0.7486
 3823SOL    HW220757   2.123   9.587   7.093  0.4946  0.0045 -0.5631
 3824SOL     OW20758   7.908   6.625   1.496 -0.5135 -0.3566 -0.3418
 3824SOL    HW120759   7.810   6.605   1.498 -0.2315 -1.7286  0.5162
 3824SOL    HW220760   7.923   6.722   1.516 -1.5337 -0.7482  2.5409
 3826SOL     OW20761   2.634   3.179   4.092 -0.3119 -0.1423 -0.0189
 3826SOL    HW120762   2.668   3.086   4.096  2.3860  0.8316  0.4669
 3826SOL    HW220763   2.709   3.242   4.070 -2.2145  1.8394 -1.0919
 3828SOL     OW20764   2.402   0.589   4.222  0.5002 -0.6222 -0.2903
 3828SOL    HW120765   2.497   0.604   4.196  0.5885 -1.7534 -0.6404
 3828SOL    HW220766   2.342   0.619   4.148  0.5404  0.8347  0.2500
 3829SOL     OW20767   4.860   7.497   1.261 -0.5213  0.7135  0.4901
 3829SOL    HW120768   4.771   7.487   1.306 -0.2232  0.7189  1.0762
 3829SOL    HW220769   4.897   7.407   1.240 -1.7133  0.7117 -1.8361
 3831SOL     OW20770   8.340   9.255   1.564  0.2268  0.5084  0.1989
 3831SOL    HW120771   8.400   9.308   1.505  0.0181  0.8150  0.2590
 3831SOL    HW220772   8.286   9.191   1.510 -0.2521  1.0666  0.0109
 3832SOL     OW20773   9.585   0.358   0.144 -0.5453  0.2067  0.0519
 3832SOL    HW120774   9.518   0.418   0.098 -1.0729  0.7417  1.4861
 3832SOL    HW220775   9.667   0.411   0.166 -0.4714  0.0674  0.1123
 3833SOL     OW20776   3.086   9.228   7.307 -0.1931 -0.2372  0.6645
 3833SOL    HW120777   3.165   9.270   7.354  1.0587 -0.1595 -1.4528
 3833SOL    HW220778   3.061   9.285   7.228 -1.5409 -0.9668  0.5684
 3835SOL     OW20779   1.035   0.645   2.165  0.6301 -0.2891  0.3804
 3835SOL    HW120780   0.965   0.715   2.149  1.0497  0.9349  3.3904
 3835SOL    HW220781   1.101   0.645   2.090 -1.7668 -0.4507 -1.7769
 3836SOL     OW20782   2.502   5.131   4.518  0.1229  0.2436  0.1335
 3836SOL    HW120783   2.564   5.120   4.596 -0.3628 -0.2231  0.4641
 3836SOL    HW220784   2.517   5.056   4.453  1.5700  1.4639 -0.9605
 3837SOL     OW20785   2.187   8.489   7.561 -0.1435  0.0422 -0.1638
 3837SOL    HW120786   2.215   8.537   7.644 -0.9859 -2.8210  1.8320
 3837SOL    HW220787   2.261   8.430   7.529 -0.9565 -1.3226  0.4369
 3839SOL     OW20788   2.491   6.982   5.185 -0.5349  0.0299 -0.0852
 3839SOL    HW120789   2.392   6.992   5.170 -0.2590  1.1962 -1.1949
 3839SOL    HW220790   2.532   6.937   5.106  0.1540  1.5534 -0.6033
 3840SOL     OW20791   8.996   6.402   2.087 -0.1188 -0.6063 -0.0970
 3840SOL    HW120792   9.027   6.379   2.179 -0.0374 -1.7547 -0.3947
 3840SOL    HW220793   9.028   6.493   2.062  0.3208 -0.5112  0.8026
 3841SOL     OW20794   2.657   2.618   3.566 -0.1830  0.5477 -0.3698
 3841SOL    HW120795   2.653   2.718   3.569 -2.2263  0.5067 -0.5741
 3841SOL    HW220796   2.734   2.588   3.510  2.3984  1.9694  2.3023
 3842SOL     OW20797   9.149   0.723   4.927  0.4998 -0.1184 -0.1315
 3842SOL    HW120798   9.205   0.805   4.938  1.5205 -0.6719 -1.0814
 3842SOL    HW220799   9.207   0.642   4.936 -0.5655 -0.7473  1.1810
 3843SOL     OW20800   7.181   6.767   6.370 -0.0056 -0.1574 -0.0225
 3843SOL    HW120801   7.152   6.744   6.463  0.3544 -0.0135  0.1243
 3843SOL    HW220802   7.279   6.785   6.368 -0.1703  0.7801 -0.2502
 3844SOL     OW20803   1.531   3.210   5.316  0.5053 -0.0145 -0.0872
 3844SOL    HW120804   1.588   3.143   5.268 -0.5565 -0.3180 -0.9264
 3844SOL    HW220805   1.503   3.172   5.404  0.0170 -0.6189 -0.5027
 3845SOL     OW20806   0.692   7.307   2.283 -0.2049  0.2832  0.1793
 3845SOL    HW120807   0.772   7.361   2.311  0.9123  0.3354 -2.8751
 3845SOL    HW220808   0.619   7.369   2.254 -0.5586  0.1875  0.8429
 3847SOL     OW20809   9.988   0.017   6.165 -0.1870 -0.6288 -0.1413
 3847SOL    HW120810   9.969  -0.017   6.073 -0.2096  0.6540 -0.6194
 3847SOL    HW220811   9.967  -0.054   6.232 -1.0789 -1.2453 -1.0594
 3849SOL     OW20812   4.589   1.120   5.514  0.5427 -0.5345  0.5865
 3849SOL    HW120813   4.555   1.052   5.578  0.3945 -1.0395 -0.0219
 3849SOL    HW220814   4.512   1.162   5.466  0.6868 -0.5749  0.3188
 3851SOL     OW20815   7.755   1.148   1.560 -0.6373 -0.5791 -0.5505
 3851SOL    HW120816   7.822   1.119   1.492 -0.6103 -1.5762 -0.1031
 3851SOL    HW220817   7.802   1.192   1.637 -0.6675  0.5342 -1.1524
 3852SOL     OW20818   0.366   5.341   2.258 -0.4584  0.3499  0.2958
 3852SOL    HW120819   0.405   5.260   2.302 -0.8142  0.7057  1.2752
 3852SOL    HW220820   0.367   5.328   2.159  0.5240 -0.3755  0.3930
 3853SOL     OW20821   8.644   6.927   1.122  0.4983 -0.2377 -0.0351
 3853SOL    HW120822   8.605   6.888   1.039  0.9392  0.0492 -0.3809
 3853SOL    HW220823   8.629   6.865   1.199  0.3594 -0.6405 -0.3890
 3854SOL     OW20824   4.056   4.098   4.986 -0.3103 -0.1360  0.0007
 3854SOL    HW120825   4.045   4.017   4.929 -1.2575 -1.1533  1.5767
 3854SOL    HW220826   4.027   4.077   5.079  1.0991  1.5155  0.8444
 3855SOL     OW20827   1.033   6.331   2.555  0.0088 -0.6134  0.2748
 3855SOL    HW120828   1.023   6.238   2.521 -0.5121 -0.6401  0.4954
 3855SOL    HW220829   0.974   6.393   2.502 -0.9061 -0.6782  1.2023
 3856SOL     OW20830   6.875   9.551   5.391 -0.0062  0.5613  0.0568
 3856SOL    HW120831   6.902   9.456   5.406  1.2089  0.9753  0.5744
 3856SOL    HW220832   6.837   9.561   5.300 -1.3464 -0.6879  0.4669
 3857SOL     OW20833   7.413   1.176   4.080  0.1145  0.5272  0.1880
 3857SOL    HW120834   7.437   1.115   4.156 -0.4572  0.0748  0.0127
 3857SOL    HW220835   7.469   1.258   4.084 -0.6479  1.0063  1.7337
 3858SOL     OW20836   3.607   5.212   1.934  0.5066 -0.4942 -0.3854
 3858SOL    HW120837   3.641   5.304   1.914  0.6215 -0.7570 -1.4369
 3858SOL    HW220838   3.514   5.203   1.896  1.5232 -1.6848 -2.7046
 3859SOL     OW20839   5.167   8.786   3.076 -0.2896  0.3633  0.6102
 3859SOL    HW120840   5.142   8.869   3.126  1.1978  1.4386 -0.4199
 3859SOL    HW220841   5.127   8.789   2.985  0.1342  0.1395  0.4185
 3860SOL     OW20842   4.017   1.193   1.064  1.0232 -0.1789  0.6253
 3860SOL    HW120843   3.989   1.118   1.004  1.4443  1.1729 -1.3356
 3860SOL    HW220844   3.936   1.237   1.103  0.6745 -0.2027 -0.0617
 3861SOL     OW20845   2.834   8.542   6.992 -0.0311 -0.9596  0.1375
 3861SOL    HW120846   2.786   8.622   7.028 -0.6649 -0.3285 -2.0709
 3861SOL    HW220847   2.858   8.481   7.068 -1.1640  0.4330  1.6451
 3862SOL     OW20848   3.208   3.066   6.158 -0.3530  0.4784  0.1080
 3862SOL    HW120849   3.224   3.085   6.255 -0.3056  1.9652 -0.1753
 3862SOL    HW220850   3.259   2.985   6.131 -0.2665  0.1228  1.2987
 3863SOL     OW20851   3.364   1.101   0.811 -0.1710 -0.0514 -0.2622
 3863SOL    HW120852   3.461   1.085   0.792 -0.0715  0.1977  0.0447
 3863SOL    HW220853   3.311   1.085   0.728  0.0967 -0.5119 -0.3495
 3865SOL     OW20854   3.916   2.726   4.994  0.1949 -0.3631  0.8904
 3865SOL    HW120855   3.923   2.688   4.901 -0.1971 -1.1056  1.1617
 3865SOL    HW220856   3.897   2.824   4.987 -1.0830 -0.6396  0.1640
 3866SOL     OW20857   8.850   9.426   0.779  0.2057  0.4787  0.0608
 3866SOL    HW120858   8.758   9.461   0.796 -0.2613 -0.7276  0.0718
 3866SOL    HW220859   8.904   9.495   0.730  0.4595  2.6396  3.2228
 3868SOL     OW20860   9.423   5.130   2.596 -0.0237  0.0314 -0.2392
 3868SOL    HW120861   9.522   5.115   2.590 -0.2638 -2.4120  1.1827
 3868SOL    HW220862   9.377   5.075   2.527 -0.5594 -1.1141  1.0140
 3869SOL     OW20863   0.212   4.790   5.124  0.1969  0.1016 -0.0143
 3869SOL    HW120864   0.288   4.726   5.119  0.4923  0.3874  0.6630
 3869SOL    HW220865   0.170   4.785   5.215 -1.2975 -0.8483 -0.7358
 3870SOL     OW20866   8.075   2.083   7.797 -0.5059  0.0265  0.0108
 3870SOL    HW120867   8.135   2.159   7.822  0.1499 -0.3733 -0.3462
 3870SOL    HW220868   8.044   2.035   7.879 -0.4506  0.3163  0.1999
 3871SOL     OW20869   7.300   6.649   2.840  0.3845 -0.3565  0.4275
 3871SOL    HW120870   7.348   6.592   2.906 -1.2340 -1.6812  0.4891
 3871SOL    HW220871   7.339   6.741   2.841  1.5311 -0.8375  1.9425
 3872SOL     OW20872   1.243   7.934   7.471  0.1642  0.4710 -0.1377
 3872SOL    HW120873   1.305   7.919   7.549 -1.6154 -1.2906  1.0015
 3872SOL    HW220874   1.149   7.944   7.505 -0.6641 -0.4584 -2.0674
 3874SOL     OW20875   6.371   0.514   2.617 -0.0524 -0.0427  0.8291
 3874SOL    HW120876   6.322   0.586   2.568  1.7432  0.5973 -0.0626
 3874SOL    HW220877   6.354   0.524   2.715 -1.8701  0.0282  0.5207
 3875SOL     OW20878   8.220   7.991   4.842 -0.3308  0.2542  0.0385
 3875SOL    HW120879   8.122   7.978   4.862 -0.3534  2.2376  1.4062
 3875SOL    HW220880   8.230   8.034   4.752 -0.8273  1.5054  0.5604
 3876SOL     OW20881   4.020   0.909   1.946  0.3831 -0.1272 -0.4616
 3876SOL    HW120882   4.096   0.883   1.886 -0.0788  0.0647 -1.1297
 3876SOL    HW220883   4.054   0.971   2.017  0.6763  0.6725 -1.2932
 3877SOL     OW20884   8.725   6.796   2.737 -0.1398  0.1965 -0.2986
 3877SOL    HW120885   8.663   6.783   2.814 -0.4014  0.2400 -0.4984
 3877SOL    HW220886   8.819   6.799   2.769 -0.2322 -0.0074 -0.0066
 3878SOL     OW20887   1.817   4.023   2.177  0.5702  0.0220  0.2673
 3878SOL    HW120888   1.770   4.111   2.179  2.6258  1.1401  0.4841
 3878SOL    HW220889   1.750   3.949   2.180 -1.3481  1.5525 -2.9962
 3879SOL     OW20890   0.982   1.656   6.596 -0.2308  0.9266  0.3058
 3879SOL    HW120891   0.957   1.567   6.633  0.0490 -0.1980 -2.1203
 3879SOL    HW220892   1.079   1.673   6.615 -0.6935  1.4787  2.2356
 3883SOL     OW20893   4.686   9.893   3.883  0.2036 -0.4223 -0.0760
 3883SOL    HW120894   4.724   9.985   3.881  1.3129 -0.8986 -3.0077
 3883SOL    HW220895   4.588   9.896   3.863  0.2496  0.1156 -0.2032
 3884SOL     OW20896   1.236   5.006   1.419  0.0114  0.0433 -0.4003
 3884SOL    HW120897   1.278   5.029   1.507 -0.3196 -0.9766  0.0328
 3884SOL    HW220898   1.286   4.931   1.377 -0.6196 -0.3483 -0.4631
 3885SOL     OW20899   8.524   4.516   5.955  0.1583  0.1344  0.4608
 3885SOL    HW120900   8.481   4.471   6.033 -0.0415 -1.9269 -0.7992
 3885SOL    HW220901   8.454   4.551   5.893  0.2165 -2.4245 -1.1341
 3886SOL     OW20902   0.920   4.633   4.762 -0.2905  0.0474 -0.2267
 3886SOL    HW120903   0.827   4.634   4.801 -0.5706 -0.2629 -0.8805
 3886SOL    HW220904   0.916   4.599   4.668  0.5219 -0.1960 -0.1727
 3887SOL     OW20905   5.589   8.137   2.200 -0.3492 -0.6291  0.0860
 3887SOL    HW120906   5.529   8.197   2.146  0.7458 -0.2032 -0.6789
 3887SOL    HW220907   5.565   8.145   2.297 -1.5705 -0.5139 -0.2175
 3888SOL     OW20908   7.401   7.877   3.846 -0.2004  0.1794 -0.6063
 3888SOL    HW120909   7.330   7.910   3.784  0.2712  1.3168 -0.5533
 3888SOL    HW220910   7.385   7.781   3.868 -1.9704  0.5473 -0.2480
 3889SOL     OW20911   0.368   7.189   0.420  0.1463 -0.2347 -0.0534
 3889SOL    HW120912   0.345   7.282   0.448 -0.0355  0.3069 -1.9355
 3889SOL    HW220913   0.465   7.172   0.437  0.0244  0.0256  0.9780
 3890SOL     OW20914   5.541   7.764   3.016 -0.5662 -0.4328 -0.1327
 3890SOL    HW120915   5.455   7.789   3.061 -0.1648 -0.4061  0.6115
 3890SOL    HW220916   5.520   7.719   2.928 -1.3450 -0.8209  0.2430
 3891SOL     OW20917   8.927   4.535   0.530 -0.5111  0.3790  0.6016
 3891SOL    HW120918   8.928   4.630   0.563 -0.4964  0.0543  1.5436
 3891SOL    HW220919   8.834   4.510   0.503 -0.6180  0.4768  0.8791
 3892SOL     OW20920   2.023   7.378   7.485 -0.0627  0.0386 -0.5971
 3892SOL    HW120921   2.110   7.352   7.442  0.3686  0.5088 -0.0109
 3892SOL    HW220922   1.947   7.347   7.427  0.4530 -1.9990 -0.2127
 3895SOL     OW20923   9.545   3.001   4.399  0.2948 -0.3496 -0.7289
 3895SOL    HW120924   9.445   3.002   4.408  0.2935 -0.1964 -0.7530
 3895SOL    HW220925   9.585   2.974   4.487  0.3163  2.1065  0.0543
 3896SOL     OW20926   8.382   1.841   7.238  0.0922  0.3808 -0.3594
 3896SOL    HW120927   8.364   1.915   7.172 -0.7193  2.1997  1.8162
 3896SOL    HW220928   8.475   1.849   7.272 -0.5755  1.5798  1.2553
 3897SOL     OW20929   3.639   4.386   7.686 -0.0469  0.2782 -0.2502
 3897SOL    HW120930   3.692   4.321   7.631  1.0435  1.6794 -0.8699
 3897SOL    HW220931   3.549   4.346   7.707  0.5395 -1.3523 -0.7655
 3898SOL     OW20932   2.178   8.141   3.241  0.3031 -0.0410  0.2557
 3898SOL    HW120933   2.147   8.165   3.149  0.3562  0.0744  0.2676
 3898SOL    HW220934   2.120   8.187   3.309  1.1529  1.0241  0.2768
 3899SOL     OW20935   5.923   9.861   6.460  0.3222 -0.1665 -0.5739
 3899SOL    HW120936   5.857   9.816   6.520  1.0224 -1.9872 -1.1486
 3899SOL    HW220937   6.014   9.824   6.475  0.5691 -0.4233 -2.5002
 3901SOL     OW20938   0.018   3.996   1.265  0.0246 -0.1175 -0.1279
 3901SOL    HW120939  -0.011   3.908   1.303 -0.4836  0.1354  0.0752
 3901SOL    HW220940  -0.060   4.059   1.263  0.3596  0.2922 -0.3773
 3902SOL     OW20941   0.258   8.157   5.717 -0.0196 -0.4161 -0.2265
 3902SOL    HW120942   0.324   8.096   5.674  1.6310 -0.7301  2.6287
 3902SOL    HW220943   0.170   8.111   5.725  0.3438 -1.2457 -0.9279
 3903SOL     OW20944   9.301   4.820   0.916 -0.3299  0.1867 -0.2147
 3903SOL    HW120945   9.272   4.770   0.997  0.4745  1.3181  0.7781
 3903SOL    HW220946   9.270   4.771   0.834  0.8648 -2.1756  0.7201
 3904SOL     OW20947   5.563   3.241   0.040 -0.2325 -0.1162 -0.2818
 3904SOL    HW120948   5.587   3.292  -0.042 -0.6980 -0.0450 -0.3739
 3904SOL    HW220949   5.637   3.176   0.062 -0.2505 -0.3594 -0.9346
 3905SOL     OW20950   6.964   7.040   6.649  0.0479  0.3012  0.0595
 3905SOL    HW120951   7.040   7.101   6.671 -0.6808  1.2054  0.1412
 3905SOL    HW220952   6.886   7.062   6.708  0.2880 -1.7863  1.1758
 3906SOL     OW20953   3.509   9.929   6.961  0.0356 -0.0961 -0.0180
 3906SOL    HW120954   3.512   9.978   7.048  1.0944  2.4681 -1.4349
 3906SOL    HW220955   3.592   9.875   6.950  0.2734  0.2237  0.2056
 3907SOL     OW20956   3.326   5.263   2.291  0.2575  0.0197 -0.0312
 3907SOL    HW120957   3.334   5.165   2.271  0.6827 -0.0927  0.6852
 3907SOL    HW220958   3.408   5.310   2.260  0.1446  0.1245 -0.1774
 3908SOL     OW20959   5.646   4.484   0.541  0.1867  0.0091 -0.1954
 3908SOL    HW120960   5.640   4.433   0.626 -1.4404  0.2807 -0.1323
 3908SOL    HW220961   5.697   4.569   0.557  0.7432 -0.4132  0.2726
 3909SOL     OW20962   3.616   2.552   6.521  0.3510  0.2445  0.1725
 3909SOL    HW120963   3.643   2.456   6.516  0.4706  0.2202  1.1393
 3909SOL    HW220964   3.621   2.583   6.616  0.4532  1.2510 -0.1569
 3910SOL     OW20965   7.497   8.333   4.315  0.1608 -0.7829  0.1351
 3910SOL    HW120966   7.425   8.287   4.263 -0.6190  0.4317  0.1196
 3910SOL    HW220967   7.499   8.297   4.408 -1.3287  0.0656  0.5114
 3911SOL     OW20968   5.878   9.241   1.279 -0.4048 -0.4775 -0.4449
 3911SOL    HW120969   5.953   9.305   1.292 -0.1880 -0.7162 -0.5119
 3911SOL    HW220970   5.837   9.218   1.367 -1.4508  0.9084 -0.5493
 3912SOL     OW20971   2.319   1.009   7.706 -0.4864  0.5739 -0.3916
 3912SOL    HW120972   2.293   0.917   7.735  1.4048 -0.2280 -1.1320
 3912SOL    HW220973   2.405   1.005   7.656 -1.5047  2.5035 -2.3615
 3913SOL     OW20974   1.041   0.293   0.516 -0.5327  0.0715 -0.7150
 3913SOL    HW120975   1.090   0.251   0.439 -1.1682 -0.2019 -0.9683
 3913SOL    HW220976   1.034   0.392   0.500  0.6995  0.2535 -0.2571
 3917SOL     OW20977   0.207   4.898   3.028 -0.1464  0.2925  0.3173
 3917SOL    HW120978   0.130   4.856   2.979  0.2044 -0.2693  0.2432
 3917SOL    HW220979   0.175   4.935   3.116 -0.2751 -0.9905  0.8202
 3919SOL     OW20980   8.456   6.716   2.398 -0.3072 -0.0619 -0.3214
 3919SOL    HW120981   8.551   6.686   2.386 -0.4839 -0.5685 -0.5026
 3919SOL    HW220982   8.400   6.676   2.325 -0.5524  0.7282 -0.5626
 3920SOL     OW20983   3.781   6.542   1.637  0.3256 -0.5743  0.3681
 3920SOL    HW120984   3.715   6.501   1.700  0.4284 -0.7022  0.3932
 3920SOL    HW220985   3.839   6.606   1.687  0.4638 -0.7411  0.4197
 3922SOL     OW20986   1.138   6.318   4.456  0.0862 -0.8146  0.2803
 3922SOL    HW120987   1.086   6.402   4.471 -0.3388 -0.8404 -0.9908
 3922SOL    HW220988   1.097   6.243   4.508 -1.2492 -0.8761 -0.8563
 3923SOL     OW20989   2.400   2.272   2.049 -0.0760 -0.0575  0.0350
 3923SOL    HW120990   2.401   2.232   2.141 -0.0613 -0.8913 -0.3207
 3923SOL    HW220991   2.360   2.363   2.053  2.3930  1.0136  1.3058
 3924SOL     OW20992   2.600   6.326   3.075 -0.3363 -0.3979  0.2549
 3924SOL    HW120993   2.560   6.298   3.162  1.3130  0.5851  1.3571
 3924SOL    HW220994   2.681   6.270   3.056  0.0240  0.2177 -0.0348
 3925SOL     OW20995   2.001   6.834   2.335  0.1117  0.3131 -0.0656
 3925SOL    HW120996   1.977   6.902   2.405 -0.2225  0.1123  0.0137
 3925SOL    HW220997   2.097   6.808   2.346  0.5330  1.5572 -0.7590
 3926SOL     OW20998   0.681   7.631   2.438  0.0220  0.5285  0.1155
 3926SOL    HW120999   0.664   7.692   2.515  0.9414 -0.4147  1.0786
 3926SOL    HW221000   0.616   7.554   2.442  1.1150 -0.3720  0.8855
 3927SOL     OW21001   3.673   4.148   1.579  0.3239 -0.0994 -0.1351
 3927SOL    HW121002   3.624   4.138   1.492  0.7052  0.4561 -0.4135
 3927SOL    HW221003   3.771   4.132   1.564  0.2893 -0.8070  0.3450
 3929SOL     OW21004   9.348   6.815   4.273 -0.2483 -0.2456 -0.4688
 3929SOL    HW121005   9.393   6.742   4.324  0.1627 -0.3066 -0.9103
 3929SOL    HW221006   9.294   6.871   4.335 -0.0957 -0.5755 -0.0350
 3930SOL     OW21007   9.148   6.036   1.019  0.0905  0.0165  0.7023
 3930SOL    HW121008   9.180   6.053   1.112  0.5763  0.9291  0.3709
 3930SOL    HW221009   9.188   6.103   0.957 -1.6172  0.5170  0.1166
 3932SOL     OW21010   4.650   8.300   1.643 -0.0468  0.2080 -0.0614
 3932SOL    HW121011   4.632   8.352   1.559 -0.1364  1.5629  0.7853
 3932SOL    HW221012   4.592   8.335   1.716 -1.4557 -2.2998  0.0878
 3933SOL     OW21013   5.935   5.426   0.193 -0.0103  0.5115  0.0419
 3933SOL    HW121014   5.872   5.367   0.143  0.7199  0.3590 -0.7073
 3933SOL    HW221015   5.907   5.522   0.181 -0.1366  0.4418 -0.2203
 3934SOL     OW21016   1.590   5.494   6.671 -0.2948 -0.0598 -0.2178
 3934SOL    HW121017   1.531   5.470   6.594  1.1141 -1.2069 -0.9603
 3934SOL    HW221018   1.544   5.472   6.757 -1.7639  0.9660 -0.7311
 3935SOL     OW21019   2.932   5.508   1.583  0.1843 -0.8287 -0.0779
 3935SOL    HW121020   2.925   5.608   1.588  0.1529 -0.7929 -0.7268
 3935SOL    HW221021   3.020   5.484   1.542  0.7041 -1.0983  1.1822
 3936SOL     OW21022   3.562   8.380   6.735 -0.5574  0.3124  0.3911
 3936SOL    HW121023   3.552   8.473   6.770 -0.0742  0.2021  0.8294
 3936SOL    HW221024   3.658   8.365   6.709 -0.5595 -0.1879  0.6799
 3938SOL     OW21025   3.854   5.394   0.888  0.5433 -0.7754  0.3456
 3938SOL    HW121026   3.816   5.302   0.901  2.0599 -1.4190  0.3114
 3938SOL    HW221027   3.868   5.437   0.978  1.3988 -1.2293  0.4314
 3939SOL     OW21028   9.579   3.089   5.829 -0.3228 -0.7944 -0.3448
 3939SOL    HW121029   9.519   3.055   5.902  1.2598  1.0139  1.8815
 3939SOL    HW221030   9.627   3.012   5.788  1.4738 -1.5966  3.0445
 3940SOL     OW21031   2.461   8.798   4.494 -0.1720 -0.0652 -0.2732
 3940SOL    HW121032   2.490   8.715   4.542 -1.2242 -0.3208 -0.0528
 3940SOL    HW221033   2.412   8.858   4.558 -0.8093 -0.0068 -0.8077
 3941SOL     OW21034   2.106   2.304   3.721  0.5087  0.2007  0.1129
 3941SOL    HW121035   2.029   2.367   3.711  0.3301 -0.3088 -1.9425
 3941SOL    HW221036   2.166   2.311   3.642  1.7448 -0.5280  0.9663
 3942SOL     OW21037   7.737   0.805   6.902  0.0294 -0.0538 -0.8116
 3942SOL    HW121038   7.771   0.826   6.994  0.4858 -0.3022 -0.9205
 3942SOL    HW221039   7.638   0.815   6.900  0.0929  0.6729 -0.4802
 3943SOL     OW21040   6.687   4.251   2.091 -0.4661 -0.0059 -0.0086
 3943SOL    HW121041   6.786   4.247   2.077 -0.3740 -0.4521  0.7532
 3943SOL    HW221042   6.653   4.340   2.060  0.0113 -0.2421 -1.2518
 3944SOL     OW21043   7.627   9.287   4.433  0.2205 -0.5920  0.2518
 3944SOL    HW121044   7.653   9.374   4.390  0.4222  0.1300  1.8082
 3944SOL    HW221045   7.528   9.281   4.437  0.2062 -0.4187  0.1806
 3946SOL     OW21046   8.847   2.531   5.039  0.2307 -0.3692 -0.1253
 3946SOL    HW121047   8.915   2.570   4.977 -0.6481  1.6529  0.1395
 3946SOL    HW221048   8.758   2.528   4.994  0.2981 -2.2575 -0.1873
 3947SOL     OW21049   0.524   0.045   3.575  0.3704 -0.2306 -0.6075
 3947SOL    HW121050   0.506   0.017   3.670  1.0542  0.1597 -0.3612
 3947SOL    HW221051   0.438   0.045   3.524  0.0053 -0.5114 -0.0059
 3948SOL     OW21052   9.557   7.631   5.362  0.0034 -0.2166 -0.3960
 3948SOL    HW121053   9.647   7.586   5.359 -0.1618 -0.5781  0.0978
 3948SOL    HW221054   9.485   7.562   5.369 -0.2486  0.1222  0.4216
 3949SOL     OW21055   6.205   0.811   6.417 -0.0718 -0.3047  0.2057
 3949SOL    HW121056   6.246   0.838   6.504  1.3286  2.7905 -1.3276
 3949SOL    HW221057   6.277   0.805   6.347 -1.4152 -0.9207 -1.1491
 3950SOL     OW21058   9.635   7.624   6.933 -0.6792  0.1767  0.0557
 3950SOL    HW121059   9.639   7.531   6.971 -0.6033  0.3691  0.5264
 3950SOL    HW221060   9.594   7.621   6.842  0.9931 -0.5728 -0.7117
 3951SOL     OW21061   0.301   7.750   3.632 -0.0585 -0.1195  0.2178
 3951SOL    HW121062   0.374   7.742   3.700  0.7390  0.9839 -0.4805
 3951SOL    HW221063   0.338   7.733   3.541 -0.6369  0.5633 -0.1535
 3952SOL     OW21064   0.508   7.636   6.966  0.5521  0.3221  0.2906
 3952SOL    HW121065   0.558   7.719   6.939  0.3541  0.1616 -0.5856
 3952SOL    HW221066   0.412   7.659   6.981  0.5927  0.3438  0.5131
 3953SOL     OW21067   1.177   9.142   7.343 -0.2333  0.4000 -0.1558
 3953SOL    HW121068   1.184   9.143   7.443  0.9901  0.9937 -0.2358
 3953SOL    HW221069   1.114   9.213   7.314 -0.5865  0.2331  0.1951
 3954SOL     OW21070   2.705   8.137   5.778  0.8000  0.1851 -0.2984
 3954SOL    HW121071   2.755   8.144   5.692  0.8864 -0.1267 -0.2721
 3954SOL    HW221072   2.626   8.077   5.766  1.3538 -0.6247  0.0950
 3955SOL     OW21073   0.880   1.454   3.677 -0.4239  0.1904  0.3032
 3955SOL    HW121074   0.787   1.418   3.667 -0.2765 -0.3440  0.8265
 3955SOL    HW221075   0.943   1.379   3.697 -0.0493  0.6889  1.0042
 3956SOL     OW21076   6.731   3.239   3.003 -0.6237  0.7729  0.3497
 3956SOL    HW121077   6.743   3.330   3.042 -2.3768  0.7314  1.0444
 3956SOL    HW221078   6.642   3.202   3.031 -0.8480 -0.2861 -1.6620
 3957SOL     OW21079   4.169   1.161   6.540  0.6830  0.4601  0.2303
 3957SOL    HW121080   4.225   1.158   6.457 -1.3444 -0.8154 -1.1163
 3957SOL    HW221081   4.107   1.239   6.536 -0.8290 -0.7586 -0.4010
 3958SOL     OW21082   6.219   2.506   2.147  0.3711  0.2657  0.2938
 3958SOL    HW121083   6.168   2.463   2.221  0.1325 -0.7875 -0.4652
 3958SOL    HW221084   6.317   2.495   2.164  0.3169 -1.0756 -0.1494
 3959SOL     OW21085   3.509   9.034   5.354 -0.1819  0.2172 -0.1780
 3959SOL    HW121086   3.607   9.029   5.336 -0.2594 -0.9382 -0.2746
 3959SOL    HW221087   3.466   9.093   5.285  0.5365  1.3121  0.2895
 3960SOL     OW21088   9.251   2.859   4.614  0.3971 -0.2912 -0.0479
 3960SOL    HW121089   9.309   2.814   4.682 -0.2284 -1.5744 -0.3304
 3960SOL    HW221090   9.156   2.828   4.625  0.3758 -0.9191 -1.8159
 3961SOL     OW21091   1.690   7.131   3.973  0.3858  0.3124  0.5174
 3961SOL    HW121092   1.665   7.213   3.921  0.6919  0.2516  0.2696
 3961SOL    HW221093   1.621   7.060   3.959  0.8022  0.0682 -0.3357
 3962SOL     OW21094   1.984   7.956   1.645  0.1978 -0.2664 -0.2336
 3962SOL    HW121095   1.971   8.053   1.624  0.4523  0.3774  2.4005
 3962SOL    HW221096   2.046   7.915   1.578  0.8395  1.6186 -0.8053
 3963SOL     OW21097   5.102   0.335   3.218  0.0609 -0.2003 -0.5695
 3963SOL    HW121098   5.124   0.312   3.313 -3.4921  1.6382  0.8012
 3963SOL    HW221099   5.028   0.276   3.185 -1.4158  1.7039 -0.8011
 3964SOL     OW21100   6.123   0.301   3.342  0.0622  0.1360  0.1853
 3964SOL    HW121101   6.109   0.393   3.305  0.7465  0.0375 -0.3258
 3964SOL    HW221102   6.218   0.290   3.371 -0.4054  0.1178  1.7441
 3965SOL     OW21103   9.277   1.071   7.191 -0.2104  0.4023  1.0582
 3965SOL    HW121104   9.354   1.009   7.182 -1.8307 -1.9403  2.6469
 3965SOL    HW221105   9.245   1.098   7.100  0.8163 -0.7297  0.3482
 3966SOL     OW21106   9.400   2.220   0.197 -0.2013 -0.2026 -0.2216
 3966SOL    HW121107   9.309   2.229   0.156  0.3081 -0.8291 -1.5263
 3966SOL    HW221108   9.418   2.125   0.218  0.3330 -0.1404 -0.3976
 3967SOL     OW21109   0.721   5.233   6.625 -0.3825  0.3027  0.2145
 3967SOL    HW121110   0.802   5.223   6.567 -0.1240 -0.3606  0.6859
 3967SOL    HW221111   0.748   5.266   6.715 -1.0576  3.8606 -0.8164
 3970SOL     OW21112   1.297   1.082   6.927  0.0719  0.2668  0.0880
 3970SOL    HW121113   1.335   1.031   7.005 -1.6225  0.0132  0.7553
 3970SOL    HW221114   1.208   1.044   6.903  0.8992 -0.1361 -2.4699
 3972SOL     OW21115   3.403   6.442   1.982  0.3506 -0.9676 -1.1481
 3972SOL    HW121116   3.485   6.431   1.924  0.7751  0.2436 -0.7918
 3972SOL    HW221117   3.321   6.428   1.926  0.7639 -0.1679 -1.9856
 3974SOL     OW21118   8.986   5.667   3.310 -0.0325  0.1277  0.0507
 3974SOL    HW121119   9.050   5.744   3.304 -0.0724  0.2343  0.9904
 3974SOL    HW221120   8.956   5.656   3.405  0.4525 -1.4284  0.0354
 3976SOL     OW21121   7.701   8.495   4.586  0.1087  0.5976  0.2184
 3976SOL    HW121122   7.672   8.445   4.668 -1.6764  0.5029 -0.4427
 3976SOL    HW221123   7.710   8.592   4.608 -0.7574  0.6320  0.4253
 3977SOL     OW21124   3.168   8.222   2.424  0.0147 -0.6220 -0.1375
 3977SOL    HW121125   3.196   8.181   2.337 -0.9993  1.2624 -1.3807
 3977SOL    HW221126   3.193   8.319   2.424  0.9217 -0.8274  2.1020
 3979SOL     OW21127   7.986   6.209   6.511 -0.3077  1.0858 -0.2639
 3979SOL    HW121128   8.004   6.304   6.536 -0.0523  0.6947  1.0623
 3979SOL    HW221129   7.887   6.192   6.512 -0.2139  0.4683  2.8292
 3980SOL     OW21130   4.236   2.936   6.048 -0.1636 -0.0209 -0.0851
 3980SOL    HW121131   4.270   2.886   5.968 -0.1553  1.7475 -1.2257
 3980SOL    HW221132   4.138   2.953   6.037 -0.2291 -0.0753  0.4305
 3983SOL     OW21133   3.690   2.808   3.543 -0.0267  0.2708  0.3505
 3983SOL    HW121134   3.673   2.881   3.609  1.9813  2.4168 -1.4250
 3983SOL    HW221135   3.637   2.824   3.460 -0.5132 -0.9782  0.4030
 3984SOL     OW21136   0.042   9.578   3.633 -0.2355 -0.7506  0.1128
 3984SOL    HW121137  -0.055   9.593   3.615 -0.3455 -1.1867  0.3270
 3984SOL    HW221138   0.058   9.573   3.731  0.1871  0.4706  0.1050
 3985SOL     OW21139   5.780   9.731   2.001  0.8049  0.3421  0.3792
 3985SOL    HW121140   5.806   9.641   2.037  0.6884  0.2119  0.1420
 3985SOL    HW221141   5.737   9.719   1.911  0.3678  0.5985  0.5554
 3986SOL     OW21142   2.331   3.521   1.620 -0.3031  0.4120  0.0472
 3986SOL    HW121143   2.389   3.485   1.546  0.7891  1.5478  0.3247
 3986SOL    HW221144   2.284   3.445   1.665 -1.1702 -0.2861 -1.9530
 3987SOL     OW21145   0.183   7.450   1.715 -0.0585 -0.0119  0.4289
 3987SOL    HW121146   0.152   7.444   1.810  1.3239  1.4683  0.9755
 3987SOL    HW221147   0.220   7.361   1.687 -2.0298 -0.9447  0.7145
 3988SOL     OW21148   6.404   9.924   2.498 -0.0890  0.0372  0.4159
 3988SOL    HW121149   6.401  10.020   2.469  0.7296 -0.3279 -0.9370
 3988SOL    HW221150   6.488   9.908   2.550 -0.1304  0.0135  0.4755
 3989SOL     OW21151   1.344   3.775   7.755  0.1725 -0.2852  0.0558
 3989SOL    HW121152   1.246   3.793   7.747  0.1424 -0.4717 -0.0010
 3989SOL    HW221153   1.376   3.728   7.673 -0.1874 -2.4434  1.1180
 3990SOL     OW21154   9.943   9.982   0.262  0.0017 -0.3295 -0.0127
 3990SOL    HW121155   9.982   9.990   0.170  1.2149  1.2140  0.6265
 3990SOL    HW221156   9.964  10.064   0.315 -1.2731 -0.9085  1.4433
 3991SOL     OW21157   6.396   6.205   0.778  0.1811  0.1329  0.2187
 3991SOL    HW121158   6.462   6.164   0.715 -0.6004  0.6372 -0.9397
 3991SOL    HW221159   6.399   6.305   0.769 -1.5992  0.1084 -0.7218
 3992SOL     OW21160   1.546   3.746   0.711  0.3693 -0.9927  0.3047
 3992SOL    HW121161   1.500   3.696   0.785  1.6199 -2.9792 -0.2302
 3992SOL    HW221162   1.481   3.765   0.638 -0.3676 -0.8812  0.9826
 3994SOL     OW21163   3.400   0.643   4.607  0.7584  0.5237 -0.1095
 3994SOL    HW121164   3.400   0.613   4.703  0.8947  1.8825  0.3314
 3994SOL    HW221165   3.477   0.705   4.592 -2.0627  4.3278  0.2363
 3995SOL     OW21166   5.930   7.666   3.255 -0.3991  0.4347 -0.0053
 3995SOL    HW121167   5.960   7.751   3.297  0.2725  0.0342  0.3355
 3995SOL    HW221168   5.986   7.646   3.175  1.0531 -0.9079  1.2970
 3996SOL     OW21169   5.304   2.715   7.690 -0.1157  0.3985  0.2277
 3996SOL    HW121170   5.226   2.775   7.706 -1.3266 -1.1431  0.1943
 3996SOL    HW221171   5.366   2.758   7.625 -0.2250  2.2483  1.3000
 3997SOL     OW21172   8.089   5.840   6.684 -0.5869 -0.0507  0.1731
 3997SOL    HW121173   8.056   5.782   6.609 -1.0674  1.0437 -0.4654
 3997SOL    HW221174   8.011   5.885   6.728 -0.1924  0.2854  0.5324
 3998SOL     OW21175   1.442   9.931   3.468  0.2871 -0.2210  0.4906
 3998SOL    HW121176   1.377   9.871   3.421  2.0423  0.4669 -3.0177
 3998SOL    HW221177   1.401  10.021   3.480 -0.8811 -0.9468  2.0723
 4000SOL     OW21178   3.029   8.234   6.086 -0.4193  0.2481  0.1033
 4000SOL    HW121179   3.106   8.298   6.093 -0.9620  1.2739 -2.8438
 4000SOL    HW221180   3.052   8.150   6.135  2.5560  0.5582 -0.6687
 4001SOL     OW21181   5.694   9.464   3.854 -0.5536  0.1557 -0.0271
 4001SOL    HW121182   5.644   9.384   3.823  1.0041 -0.0752 -2.0753
 4001SOL    HW221183   5.749   9.441   3.934 -1.2646 -0.4276  0.2887
 4002SOL     OW21184   1.800   3.505   2.740  0.2599 -0.1305 -0.4432
 4002SOL    HW121185   1.882   3.549   2.777  0.0894  0.2437 -0.5158
 4002SOL    HW221186   1.804   3.507   2.640 -0.6614  1.4119 -0.4558
 4003SOL     OW21187   0.960   8.398   1.279 -0.3651 -0.0479 -0.4393
 4003SOL    HW121188   0.918   8.318   1.322 -1.8868  1.4985  1.0254
 4003SOL    HW221189   0.898   8.434   1.209  0.0531  0.2484 -0.6593
 4004SOL     OW21190   0.786   3.274   5.590 -0.0156  0.2901 -0.0302
 4004SOL    HW121191   0.691   3.301   5.606  0.3585  2.0045 -0.5107
 4004SOL    HW221192   0.811   3.201   5.652 -1.4207  0.3545  0.6355
 4005SOL     OW21193   7.131   2.102   0.875  0.2165  0.5061  0.0528
 4005SOL    HW121194   7.115   2.072   0.781  0.6986  0.4714 -0.0215
 4005SOL    HW221195   7.054   2.074   0.933  0.7622 -1.1338  0.0395
 4007SOL     OW21196   3.748   3.475   1.229  0.1262 -0.3395 -0.1948
 4007SOL    HW121197   3.817   3.404   1.241 -0.2640 -0.5210  0.9836
 4007SOL    HW221198   3.664   3.450   1.278 -0.1375  0.7562 -0.0678
 4008SOL     OW21199   4.937   9.360   3.559 -0.5699 -0.4848  0.8342
 4008SOL    HW121200   4.837   9.372   3.554 -0.7451 -1.6958  1.3800
 4008SOL    HW221201   4.973   9.345   3.468 -0.9202 -0.2729  0.6588
 4009SOL     OW21202   9.263   1.731   6.522 -0.0452 -0.1252 -0.3009
 4009SOL    HW121203   9.257   1.662   6.594 -1.6129  1.4118  1.1092
 4009SOL    HW221204   9.171   1.752   6.488  0.3011  1.8317 -0.1111
 4010SOL     OW21205   3.482   8.360   5.075 -0.5953  0.4626  0.0545
 4010SOL    HW121206   3.400   8.417   5.083 -0.0900  1.3485 -0.9027
 4010SOL    HW221207   3.487   8.323   4.982 -0.3206 -0.2122  0.3396
 4011SOL     OW21208   1.858   3.444   6.760  0.1162 -0.2791 -0.4740
 4011SOL    HW121209   1.837   3.481   6.851  0.7188  0.4612 -0.6322
 4011SOL    HW221210   1.912   3.361   6.770 -0.3780 -0.5666 -0.1423
 4012SOL     OW21211   9.889   8.393   1.657 -0.2711  0.0738 -0.5000
 4012SOL    HW121212   9.923   8.321   1.717 -1.9367 -1.5009 -1.3794
 4012SOL    HW221213   9.889   8.480   1.705 -0.0811 -0.8760  1.2437
 4013SOL     OW21214   9.850   1.831   5.706 -0.0301  0.7298 -0.0310
 4013SOL    HW121215   9.802   1.918   5.717 -0.4756  0.2921  1.7172
 4013SOL    HW221216   9.787   1.756   5.728  0.7266  0.0266 -0.2490
 4014SOL     OW21217   0.061   6.752   3.619 -0.0024  0.3486  0.0678
 4014SOL    HW121218   0.110   6.671   3.587 -0.5249 -0.1249  0.4611
 4014SOL    HW221219   0.090   6.831   3.566 -0.9575 -0.4514 -1.6865
 4015SOL     OW21220   1.800   1.534   5.397  0.5579  0.9132 -0.4251
 4015SOL    HW121221   1.806   1.440   5.365  0.4233  1.1018 -1.0004
 4015SOL    HW221222   1.891   1.565   5.426  0.2157 -0.1545  1.9394
 4017SOL     OW21223   3.816   9.619   0.713  0.2836 -0.3067  0.6617
 4017SOL    HW121224   3.890   9.669   0.758  1.1181 -0.5585 -0.4289
 4017SOL    HW221225   3.854   9.548   0.655 -0.6877  1.5590 -2.3428
 4019SOL     OW21226   8.426   8.633   4.228 -0.3715  0.0923  0.1396
 4019SOL    HW121227   8.493   8.588   4.168  1.4666  1.1368  1.3260
 4019SOL    HW221228   8.336   8.593   4.215  0.8768 -2.7405 -0.0889
 4020SOL     OW21229   8.044   2.517   5.603  0.4056 -1.0742  0.0974
 4020SOL    HW121230   8.004   2.566   5.526 -1.2066 -0.6677  1.1529
 4020SOL    HW221231   8.081   2.430   5.573  1.2009 -0.2277 -1.3996
 4021SOL     OW21232   2.105   6.075   6.969 -0.2317  0.0841  0.4210
 4021SOL    HW121233   2.182   6.022   7.004 -0.5364 -1.0753 -0.6189
 4021SOL    HW221234   2.020   6.043   7.012  0.0544  2.6343  2.9846
 4022SOL     OW21235   7.662   0.250   2.300  0.1954 -0.6511  0.0623
 4022SOL    HW121236   7.741   0.190   2.307 -0.9242 -2.2216 -0.5150
 4022SOL    HW221237   7.579   0.201   2.327 -0.5236  1.1282  1.1921
 4024SOL     OW21238   5.849   3.871   0.143 -0.1449 -0.1139 -0.1060
 4024SOL    HW121239   5.843   3.876   0.243  0.4193 -0.6909 -0.0425
 4024SOL    HW221240   5.777   3.929   0.103  0.4520  1.1654  0.6287
 4025SOL     OW21241   3.384   8.799   6.334  1.0171 -0.0134  0.2867
 4025SOL    HW121242   3.358   8.703   6.339  1.0356 -0.1553 -1.7824
 4025SOL    HW221243   3.327   8.853   6.396  1.5620 -1.4592  2.0707
 4026SOL     OW21244   1.574   4.400   5.324  0.5502  0.0697 -0.0542
 4026SOL    HW121245   1.581   4.381   5.422  2.2522 -2.9500 -0.6780
 4026SOL    HW221246   1.517   4.330   5.281 -0.9491  1.8964 -1.1197
 4028SOL     OW21247   0.099   2.740   6.524 -0.4435  0.9502 -0.7307
 4028SOL    HW121248   0.077   2.670   6.457  1.8090 -0.9383  0.4366
 4028SOL    HW221249   0.045   2.725   6.607  0.5892  0.1131 -0.1996
 4032SOL     OW21250   3.128   8.166   5.337  0.3572 -0.1100 -0.1290
 4032SOL    HW121251   3.042   8.195   5.379 -0.0107 -0.2974 -0.7485
 4032SOL    HW221252   3.195   8.240   5.343 -0.2403  0.4930 -0.7567
 4033SOL     OW21253   1.079   7.610   5.248  0.4656 -0.4887 -0.5980
 4033SOL    HW121254   1.092   7.705   5.221 -1.0302 -0.5433 -1.5314
 4033SOL    HW221255   1.079   7.604   5.348 -2.6546  0.9983 -0.4317
 4034SOL     OW21256   7.297   9.176   7.807  0.5372 -0.5238  0.1723
 4034SOL    HW121257   7.307   9.112   7.732 -0.3725 -0.8143  0.2890
 4034SOL    HW221258   7.333   9.136   7.891  1.3821 -0.2731 -0.0703
 4035SOL     OW21259   4.221   4.623   0.972 -0.3099  0.1390  0.0226
 4035SOL    HW121260   4.250   4.658   1.061  0.6525  1.0382 -0.6203
 4035SOL    HW221261   4.274   4.542   0.949 -0.7791 -0.2780  0.4043
 4036SOL     OW21262   1.644   3.927   3.179  0.5309  0.2405  0.3427
 4036SOL    HW121263   1.590   3.934   3.263  0.8027 -0.3826  0.5744
 4036SOL    HW221264   1.587   3.953   3.101 -0.8207 -2.5038  0.3429
 4038SOL     OW21265   1.222   7.037   2.634  0.1185 -0.1626  0.2655
 4038SOL    HW121266   1.197   6.962   2.573 -1.9595  0.1658  0.6469
 4038SOL    HW221267   1.249   7.000   2.723  1.3833 -0.5565 -0.2761
 4039SOL     OW21268   2.922   6.614   6.983 -0.4652 -0.2597  0.4849
 4039SOL    HW121269   2.939   6.654   7.073  0.6569 -0.9791  0.6033
 4039SOL    HW221270   2.827   6.585   6.976 -0.6869  0.2778  1.2498
 4040SOL     OW21271   3.005   4.595   6.126 -0.0699 -0.4256  0.0713
 4040SOL    HW121272   2.922   4.648   6.145  0.3771 -0.5720  2.6226
 4040SOL    HW221273   3.006   4.513   6.184  3.0142  0.8285  1.9225
 4041SOL     OW21274   2.235   9.413   5.918  0.1007  0.2553 -0.1307
 4041SOL    HW121275   2.281   9.491   5.876  2.7373  0.3416  2.7663
 4041SOL    HW221276   2.215   9.433   6.014 -0.3491 -2.1337  0.3087
 4042SOL     OW21277   2.009   7.702   1.265  0.1187 -0.3415 -0.2582
 4042SOL    HW121278   1.982   7.791   1.302  1.5517  0.5081 -1.2452
 4042SOL    HW221279   2.021   7.638   1.341 -0.5828  0.3837  0.4884
 4043SOL     OW21280   9.778   7.926   0.222 -0.1161  0.1337  0.1055
 4043SOL    HW121281   9.846   7.863   0.186  0.7010  0.2372  1.4545
 4043SOL    HW221282   9.762   7.999   0.155 -1.7994 -1.9876 -1.9136
 4044SOL     OW21283   8.676   6.966   7.674  0.1653  0.9303  0.7924
 4044SOL    HW121284   8.605   7.036   7.671  0.8601  1.6102 -0.1963
 4044SOL    HW221285   8.765   7.009   7.659  0.3916 -0.4839 -2.2635
 4046SOL     OW21286   0.135   0.927   3.757 -0.5909  0.2097  0.1313
 4046SOL    HW121287   0.216   0.951   3.703 -0.0910 -0.4465  0.5841
 4046SOL    HW221288   0.100   1.009   3.803 -0.1394  0.4767  0.0043
 4048SOL     OW21289   9.483   8.870   6.588  0.4747 -0.5223  0.0275
 4048SOL    HW121290   9.570   8.915   6.609  0.8272 -1.5745  0.8919
 4048SOL    HW221291   9.409   8.918   6.636  0.4713  0.8118 -1.2889
 4049SOL     OW21292   8.183   5.993   5.120  0.3699  0.2014  0.4996
 4049SOL    HW121293   8.091   6.027   5.102 -0.3627 -0.6294  2.5305
 4049SOL    HW221294   8.183   5.893   5.118  1.1771  0.1960  0.6993
 4050SOL     OW21295   2.714   5.329   5.534  0.2692 -0.1709 -0.1806
 4050SOL    HW121296   2.676   5.401   5.476  0.5823  0.3670  0.2797
 4050SOL    HW221297   2.654   5.313   5.612  0.4631 -0.0407 -0.0034
 4051SOL     OW21298   7.052   3.260   0.850 -0.4110  0.0774 -0.0495
 4051SOL    HW121299   6.989   3.298   0.918 -0.0027  0.5643  0.0583
 4051SOL    HW221300   7.097   3.334   0.801 -1.3014 -0.2586 -1.4217
 4053SOL     OW21301   9.608   8.523   1.047  0.3975 -0.4071 -0.1948
 4053SOL    HW121302   9.540   8.477   0.990  0.1714 -1.2450  0.7555
 4053SOL    HW221303   9.678   8.457   1.075 -0.9017 -0.6085  2.6759
 4054SOL     OW21304   3.312   9.620   0.762  0.0295  0.4356  0.6237
 4054SOL    HW121305   3.257   9.685   0.816 -0.9168 -0.4174  0.7002
 4054SOL    HW221306   3.252   9.572   0.697  0.6888 -0.5340  0.7299
 4055SOL     OW21307   4.158   9.246   5.254 -0.0564 -0.4704  0.2853
 4055SOL    HW121308   4.121   9.230   5.345  0.0043  0.5639  0.5044
 4055SOL    HW221309   4.254   9.275   5.261 -0.0877 -0.2643 -0.0896
 4056SOL     OW21310   4.522   2.944   6.558  0.3061  0.0348 -0.3582
 4056SOL    HW121311   4.523   2.846   6.577  1.7356 -0.2210 -1.6864
 4056SOL    HW221312   4.482   2.960   6.467  0.3207  0.6618 -0.2573
 4059SOL     OW21313   8.923   0.130   7.780  0.1422 -0.0748 -0.7444
 4059SOL    HW121314   8.971   0.205   7.824  0.7418 -1.7429  1.5446
 4059SOL    HW221315   8.988   0.070   7.734 -0.2107  0.1909 -1.5926
 4061SOL     OW21316   7.075   1.417   4.563 -0.4717  0.2009  0.3883
 4061SOL    HW121317   7.085   1.323   4.531 -0.8462  0.2259  0.1939
 4061SOL    HW221318   6.978   1.441   4.568 -0.3576  1.2550 -1.6171
 4063SOL     OW21319   0.716   1.740   5.395 -0.1226 -0.1909  0.2573
 4063SOL    HW121320   0.695   1.646   5.370 -0.5663  0.2175 -0.9334
 4063SOL    HW221321   0.811   1.746   5.426  0.4055 -0.7524 -1.1929
 4064SOL     OW21322   5.417   8.324   3.256 -0.1766  0.2023 -0.1117
 4064SOL    HW121323   5.393   8.333   3.353  2.1537 -1.2835  0.6436
 4064SOL    HW221324   5.469   8.405   3.228 -1.4509  0.9620 -0.3368
 4066SOL     OW21325   3.702   4.370   5.903  0.4947  0.1754 -0.8294
 4066SOL    HW121326   3.755   4.287   5.920  2.1522  0.8933 -2.3306
 4066SOL    HW221327   3.648   4.358   5.820 -3.6633 -1.4417  1.9331
 4067SOL     OW21328   7.495   0.943   0.999  0.0369 -0.0938 -0.1142
 4067SOL    HW121329   7.508   1.011   1.071  0.7722  1.4421 -1.6413
 4067SOL    HW221330   7.581   0.895   0.983  0.1234  0.2139 -0.5863
 4068SOL     OW21331   7.201   6.016   7.093  0.1884 -0.2164 -0.0973
 4068SOL    HW121332   7.123   5.962   7.063 -0.7513  0.8974  0.3044
 4068SOL    HW221333   7.227   6.081   7.022 -0.1816  0.4204  0.3466
 4069SOL     OW21334   0.615   2.628   6.510  0.1777 -0.0593  0.2472
 4069SOL    HW121335   0.629   2.539   6.554  0.8400 -0.3465 -0.5355
 4069SOL    HW221336   0.557   2.685   6.569  0.0720 -0.8605  0.9372
 4070SOL     OW21337   1.564   9.953   5.625  0.7437 -0.3543  0.3979
 4070SOL    HW121338   1.501   9.883   5.658  0.3956 -0.7505 -1.0926
 4070SOL    HW221339   1.513  10.031   5.591  1.1060  0.1461  0.9939
 4071SOL     OW21340   3.871   6.482   0.523 -0.3447 -0.2055 -0.8513
 4071SOL    HW121341   3.834   6.441   0.607  1.1778 -0.5124 -0.3039
 4071SOL    HW221342   3.971   6.471   0.522 -0.2383  0.7403 -2.2038
 4072SOL     OW21343   2.710   9.943   7.077  0.0814 -0.3501  0.0236
 4072SOL    HW121344   2.661   9.864   7.116 -2.2259  0.3179 -1.3968
 4072SOL    HW221345   2.799   9.953   7.122 -0.1652 -2.9370  1.1649
 4073SOL     OW21346   2.078   3.637   1.720 -0.2258 -0.2006 -0.1498
 4073SOL    HW121347   2.163   3.623   1.670  1.3018  2.4746  1.5771
 4073SOL    HW221348   2.093   3.621   1.817 -1.2858  1.6901  0.3633
 4074SOL     OW21349   0.337   2.098   5.462 -0.0047  0.6113  0.3193
 4074SOL    HW121350   0.244   2.085   5.428  0.6674  1.2606 -1.7993
 4074SOL    HW221351   0.348   2.191   5.498 -0.5003  0.1546  1.6968
 4076SOL     OW21352   9.374   5.002   5.164  0.0177 -0.1997 -0.0449
 4076SOL    HW121353   9.450   4.955   5.208 -1.3751 -2.0266  0.4988
 4076SOL    HW221354   9.392   5.008   5.066  0.3117 -1.7895 -0.1155
 4077SOL     OW21355   0.172   7.091   1.916 -0.2497 -0.1448 -0.3278
 4077SOL    HW121356   0.134   7.181   1.891 -0.8556  0.1492  1.5634
 4077SOL    HW221357   0.175   7.032   1.835 -0.3544  1.3913 -1.4794
 4078SOL     OW21358   0.215   4.476   7.641 -0.0231  0.2118 -0.4462
 4078SOL    HW121359   0.229   4.379   7.623  2.2161  0.7584 -2.0125
 4078SOL    HW221360   0.214   4.526   7.554  2.9342  2.0233  0.4506
 4079SOL     OW21361   1.868   3.415   3.140 -0.0988 -0.3390  0.1621
 4079SOL    HW121362   1.864   3.462   3.228 -1.1658  2.4076 -1.2950
 4079SOL    HW221363   1.775   3.395   3.109  0.1768  0.4602 -1.2237
 4080SOL     OW21364   0.637   6.437   2.289 -0.0596  0.0016 -0.2883
 4080SOL    HW121365   0.729   6.453   2.326 -0.7146  1.1895  0.8497
 4080SOL    HW221366   0.640   6.444   2.190  0.8023  1.5351 -0.1756
 4081SOL     OW21367   9.249   2.173   6.576 -0.9077 -0.0624  0.4851
 4081SOL    HW121368   9.348   2.188   6.574 -0.7212 -1.3123 -1.5790
 4081SOL    HW221369   9.220   2.148   6.668  0.6482  0.6199  1.1752
 4082SOL     OW21370   9.299   2.321   5.991 -0.5251 -0.3371  0.4730
 4082SOL    HW121371   9.363   2.397   6.001 -0.5699 -0.1892 -0.3641
 4082SOL    HW221372   9.260   2.322   5.899 -1.0374 -0.9711  0.6808
 4083SOL     OW21373   2.837   7.924   6.660 -1.0078  0.1162  0.0004
 4083SOL    HW121374   2.776   7.979   6.603 -1.8370 -0.8476 -0.0515
 4083SOL    HW221375   2.923   7.907   6.611 -0.2133  2.4482  0.5255
 4084SOL     OW21376   6.417   7.653   2.857  0.7032  0.8602 -0.1472
 4084SOL    HW121377   6.460   7.677   2.944  0.6953 -2.2617  0.7468
 4084SOL    HW221378   6.486   7.616   2.795 -0.3870 -2.9333  0.8315
 4085SOL     OW21379   0.064   1.480   1.069 -0.9019 -0.6710  0.0151
 4085SOL    HW121380   0.112   1.484   0.982 -1.7433  1.0736 -0.3885
 4085SOL    HW221381   0.130   1.474   1.144 -0.1677 -1.6689 -0.6943
 4086SOL     OW21382   2.752   4.307   1.153  0.5023 -0.1947  0.2353
 4086SOL    HW121383   2.808   4.297   1.236  0.5881 -0.5440  0.1384
 4086SOL    HW221384   2.674   4.245   1.159  0.0456  0.4024  0.4352
 4087SOL     OW21385   3.087   1.928   4.271 -0.2932 -0.2432  0.3092
 4087SOL    HW121386   3.013   1.986   4.240  0.5624 -0.5571 -2.4216
 4087SOL    HW221387   3.164   1.933   4.207  1.2814 -1.4685  2.0080
 4088SOL     OW21388   6.382   3.306   1.346  0.2681  0.2057  0.4354
 4088SOL    HW121389   6.403   3.381   1.408 -1.4681  0.8687  0.2513
 4088SOL    HW221390   6.292   3.268   1.368  0.4948 -0.8707 -0.4065
 4089SOL     OW21391   1.739   4.483   1.969 -0.0355 -0.1581  0.3946
 4089SOL    HW121392   1.726   4.537   1.886 -1.9801  0.3737  1.0238
 4089SOL    HW221393   1.728   4.541   2.049  1.2855 -0.7907  1.0593
 4090SOL     OW21394   7.759   7.867   2.162  0.3711  0.0187  0.4876
 4090SOL    HW121395   7.857   7.873   2.140  0.7399 -0.3060  1.9900
 4090SOL    HW221396   7.718   7.958   2.160  0.8262  0.2231  0.4189
 4091SOL     OW21397   9.451   1.660   4.905 -0.1280  0.5156  0.1215
 4091SOL    HW121398   9.521   1.660   4.834  0.1724  1.5562  0.4056
 4091SOL    HW221399   9.362   1.643   4.864  0.2356 -0.3558 -0.3044
 4093SOL     OW21400   7.976   9.832   2.161 -0.3015 -0.5058  0.2170
 4093SOL    HW121401   7.934   9.862   2.075 -1.5005 -0.4970  0.7978
 4093SOL    HW221402   7.915   9.768   2.207  1.0819 -1.8332  0.2526
 4094SOL     OW21403   6.864   5.129   0.383  0.1306  0.0688  0.4759
 4094SOL    HW121404   6.821   5.214   0.352 -1.3197 -1.0728 -0.7154
 4094SOL    HW221405   6.802   5.082   0.447  0.0135 -1.1044 -0.4860
 4095SOL     OW21406   6.752   3.370   0.636 -0.1287  0.2091 -0.1218
 4095SOL    HW121407   6.669   3.422   0.655  0.3089 -0.1933  3.0898
 4095SOL    HW221408   6.831   3.430   0.636  0.2295 -0.2124  2.4047
 4097SOL     OW21409   8.457   8.694   1.647 -0.8523 -0.2131 -0.5113
 4097SOL    HW121410   8.424   8.786   1.668 -0.4516  0.4498 -2.7439
 4097SOL    HW221411   8.391   8.627   1.681 -1.3045  0.8800  0.8320
 4098SOL     OW21412   0.764   8.511   6.305 -0.0464  0.0972 -0.4117
 4098SOL    HW121413   0.780   8.610   6.313 -0.4860  0.0155  1.9336
 4098SOL    HW221414   0.684   8.486   6.360 -0.4103 -1.4666 -1.6179
 4099SOL     OW21415   1.409   6.556   6.246 -0.3691  0.3543  0.9269
 4099SOL    HW121416   1.386   6.475   6.192  1.1731 -0.2295  1.1134
 4099SOL    HW221417   1.508   6.573   6.240 -0.5317  1.6277  1.7042
 4100SOL     OW21418   2.209   9.823   1.366 -0.6868 -0.2805  0.1537
 4100SOL    HW121419   2.175   9.749   1.424 -0.5187 -1.2092 -0.9124
 4100SOL    HW221420   2.240   9.785   1.279  0.8794  0.8421  0.2035
 4101SOL     OW21421   3.507   2.678   4.382  0.1289 -0.4390  0.2323
 4101SOL    HW121422   3.493   2.626   4.298 -1.7543  1.0427 -0.4335
 4101SOL    HW221423   3.601   2.669   4.412  1.0043 -0.5356 -2.3777
 4102SOL     OW21424   2.989   7.260   7.175 -0.7036 -0.2798 -0.4463
 4102SOL    HW121425   2.971   7.165   7.148 -0.0661 -0.3951 -0.4669
 4102SOL    HW221426   2.959   7.274   7.269 -0.0283 -0.7339 -0.1580
 4103SOL     OW21427   9.405   4.033   5.670  0.0060 -0.2292 -0.4446
 4103SOL    HW121428   9.390   4.082   5.756  0.5955 -2.6552  1.0931
 4103SOL    HW221429   9.481   3.969   5.681 -0.3326 -1.0451 -2.5760
 4104SOL     OW21430   3.409   4.458   1.042 -0.1812 -0.2565 -0.6249
 4104SOL    HW121431   3.324   4.486   0.996 -1.7663 -0.6671  1.9698
 4104SOL    HW221432   3.390   4.439   1.138  2.2974 -3.2042 -0.6625
 4105SOL     OW21433   4.798   5.542   7.433  0.1277  0.3140  0.1727
 4105SOL    HW121434   4.845   5.508   7.352 -1.4929 -1.4764 -0.0591
 4105SOL    HW221435   4.826   5.489   7.513  2.6791  2.9000  1.0529
 4106SOL     OW21436   9.169   4.201   7.797 -0.0609  0.1559 -0.4199
 4106SOL    HW121437   9.166   4.179   7.699  1.1798  0.9946 -0.6530
 4106SOL    HW221438   9.235   4.275   7.812 -1.3939  1.1170  0.8443
 4108SOL     OW21439   8.103   7.525   5.073 -0.7265 -0.0130  0.1942
 4108SOL    HW121440   8.082   7.470   4.992 -2.2607  1.8021 -0.6963
 4108SOL    HW221441   8.072   7.477   5.155 -0.7311 -1.1091 -0.4406
 4109SOL     OW21442   7.817   5.869   7.529 -0.5580  0.2839 -0.4738
 4109SOL    HW121443   7.843   5.964   7.507 -1.7966  0.3985 -1.5228
 4109SOL    HW221444   7.885   5.829   7.590  1.2989  1.0471 -1.9864
 4110SOL     OW21445   8.705   1.307   5.708 -0.3014  0.1518  0.0527
 4110SOL    HW121446   8.681   1.253   5.628  0.3404  0.6831 -0.5127
 4110SOL    HW221447   8.648   1.281   5.785 -1.5924  0.3100 -0.8392
 4111SOL     OW21448   0.995   6.330   2.213  0.4081 -0.2585  0.0063
 4111SOL    HW121449   0.947   6.279   2.283 -0.3973  0.8995  0.3070
 4111SOL    HW221450   0.978   6.289   2.123 -0.2378 -0.5083  0.2448
 4113SOL     OW21451   3.480   7.983   1.319  0.4929 -0.6677 -0.3415
 4113SOL    HW121452   3.418   7.916   1.359  0.1432 -0.1424  0.0163
 4113SOL    HW221453   3.519   7.948   1.234  2.3450 -2.3930  1.1780
 4114SOL     OW21454   1.739   5.422   5.643  0.3791 -0.2073  0.0697
 4114SOL    HW121455   1.697   5.353   5.583  0.7803 -2.7693  2.6279
 4114SOL    HW221456   1.823   5.384   5.682  1.2416  2.2205  0.6225
 4115SOL     OW21457   3.870   4.586   0.399 -0.7111  0.7178  0.0291
 4115SOL    HW121458   3.928   4.586   0.481  0.1453 -0.8785 -0.5540
 4115SOL    HW221459   3.815   4.503   0.398  0.7549 -0.2623 -2.0207
 4116SOL     OW21460   4.229   9.968   4.760 -0.2473  0.2870  0.7515
 4116SOL    HW121461   4.327   9.987   4.756 -0.1007 -0.8178 -2.0824
 4116SOL    HW221462   4.209   9.913   4.841  1.5506  0.1363  1.1088
 4118SOL     OW21463   0.898   6.765   1.649 -0.3380  0.8009  1.2075
 4118SOL    HW121464   0.940   6.841   1.599 -0.3639  0.5940  0.8719
 4118SOL    HW221465   0.822   6.800   1.703 -0.9694  0.8573  0.2892
 4119SOL     OW21466   1.657   9.030   2.111 -0.7477  0.3607  0.2087
 4119SOL    HW121467   1.661   9.075   2.022  0.4070  0.9480  0.5534
 4119SOL    HW221468   1.646   9.099   2.183  0.0036  0.0146  0.6548
 4120SOL     OW21469   0.340   1.547   2.618 -0.0587 -0.1620  0.1349
 4120SOL    HW121470   0.360   1.564   2.521 -1.9191  1.1676 -0.0478
 4120SOL    HW221471   0.242   1.555   2.634 -0.1570 -3.4847  1.5614
 4122SOL     OW21472   2.261   1.704   4.539 -0.7548  0.5356  0.4078
 4122SOL    HW121473   2.199   1.781   4.525 -0.3509  0.3506 -2.9074
 4122SOL    HW221474   2.282   1.662   4.450  1.1817 -1.7049  1.8630
 4123SOL     OW21475   7.402   5.226   6.802  0.5294  0.0496 -0.0558
 4123SOL    HW121476   7.399   5.319   6.767 -0.3976  1.0733  2.6006
 4123SOL    HW221477   7.312   5.200   6.836  0.5353 -2.2029 -1.6712
 4125SOL     OW21478   7.467   8.844   1.649 -0.5708 -0.4915  0.2584
 4125SOL    HW121479   7.462   8.811   1.555 -0.7008 -0.4791  0.2600
 4125SOL    HW221480   7.521   8.781   1.704  0.5641  0.1659 -0.1048
 4126SOL     OW21481   8.943   3.173   7.161  0.3852 -0.5405  0.2137
 4126SOL    HW121482   8.853   3.209   7.187  1.1171 -0.0194  2.1315
 4126SOL    HW221483   8.943   3.073   7.171 -0.4929 -0.7209 -1.4610
 4127SOL     OW21484   0.096   0.526   6.967 -0.0421  0.2979  0.3485
 4127SOL    HW121485   0.113   0.437   6.923  2.4636  0.6342  0.5405
 4127SOL    HW221486   0.126   0.599   6.906 -1.5721  1.0020  0.4275
 4128SOL     OW21487   9.774   7.853   6.846 -0.3717 -0.4755 -0.1204
 4128SOL    HW121488   9.725   7.780   6.894  1.6187 -1.7226  0.0803
 4128SOL    HW221489   9.826   7.907   6.912  0.7475 -0.9188 -0.6290
 4129SOL     OW21490   9.861   8.335   5.795 -0.0156  0.1248 -0.2213
 4129SOL    HW121491   9.770   8.342   5.755  0.1240 -2.7069 -1.1395
 4129SOL    HW221492   9.873   8.243   5.834  2.1647  0.7340  0.5906
 4130SOL     OW21493   5.228   0.194   6.935  0.0833  0.6290 -0.0076
 4130SOL    HW121494   5.181   0.280   6.919 -2.0429 -0.5701 -0.4643
 4130SOL    HW221495   5.246   0.149   6.847  1.0706  0.5578  0.2290
 4131SOL     OW21496   8.483   2.497   1.833 -0.3000 -0.1002  0.4711
 4131SOL    HW121497   8.482   2.597   1.826 -1.6733 -0.0578  1.1000
 4131SOL    HW221498   8.463   2.457   1.744  0.7853  0.1835  0.1025
 4132SOL     OW21499   4.968   2.365   5.698 -0.9753  0.0721  0.3813
 4132SOL    HW121500   5.045   2.304   5.682 -1.7801 -0.9940  0.4896
 4132SOL    HW221501   4.883   2.314   5.689 -1.5946  0.4871  3.3729
 4133SOL     OW21502   2.243   7.627   0.141  0.7865 -0.0915  0.0256
 4133SOL    HW121503   2.340   7.640   0.121  0.7728 -1.7706 -1.2058
 4133SOL    HW221504   2.232   7.606   0.238  1.5952  0.6279  0.2797
 4134SOL     OW21505   4.896   2.838   0.815  0.4871 -0.0267  0.0958
 4134SOL    HW121506   4.865   2.755   0.768 -0.0623  0.0740  0.2808
 4134SOL    HW221507   4.905   2.821   0.913  0.4232  0.1170  0.1279
 4135SOL     OW21508   0.314   6.077   3.057  0.4143 -0.1935 -0.4060
 4135SOL    HW121509   0.347   6.100   2.965  1.5285  0.0966  0.0514
 4135SOL    HW221510   0.392   6.069   3.118 -0.4169  1.2397  0.8826
 4136SOL     OW21511   0.886   8.010   6.129  0.0989  0.1242 -0.1287
 4136SOL    HW121512   0.864   8.106   6.148  1.0266  0.2594  0.2938
 4136SOL    HW221513   0.957   7.979   6.193  0.4000 -0.5934 -0.8019
 4137SOL     OW21514   3.817   8.284   3.012 -0.0367 -0.1945 -0.3761
 4137SOL    HW121515   3.787   8.379   3.023 -0.0162 -0.2784  0.3897
 4137SOL    HW221516   3.917   8.280   3.017 -0.0863 -0.3841  0.5835
 4138SOL     OW21517   9.544   1.503   7.744  0.1816 -0.4745 -0.4558
 4138SOL    HW121518   9.577   1.448   7.821 -0.6617 -0.2463  0.0716
 4138SOL    HW221519   9.476   1.568   7.777  0.4810  0.2445 -1.2409
 4140SOL     OW21520   4.957   0.291   1.621  0.3797 -0.3986 -0.1243
 4140SOL    HW121521   5.001   0.226   1.559 -1.5386  0.0206 -1.9641
 4140SOL    HW221522   4.911   0.362   1.568  0.6634  1.3012  1.8336
 4141SOL     OW21523   6.692   5.338   6.937  0.3028 -0.0351 -0.4576
 4141SOL    HW121524   6.718   5.341   6.840  0.6898  0.7397 -0.3304
 4141SOL    HW221525   6.593   5.329   6.945  0.3637 -1.3296 -0.9335
 4142SOL     OW21526   0.138   4.225   1.616 -0.2082 -0.3676 -0.5923
 4142SOL    HW121527   0.198   4.155   1.577  0.5318 -0.1346  0.0852
 4142SOL    HW221528   0.093   4.276   1.543  2.3055  1.0583 -1.2236
 4143SOL     OW21529   4.197   2.546   6.682 -0.2168 -0.3798 -0.1955
 4143SOL    HW121530   4.161   2.606   6.753  1.0847 -0.3420  0.4501
 4143SOL    HW221531   4.276   2.590   6.638 -0.7714 -0.5715 -1.3896
 4144SOL     OW21532   3.931   1.908   4.776 -0.1302 -0.3042  0.3812
 4144SOL    HW121533   3.843   1.865   4.795 -0.7507  1.2762  1.1664
 4144SOL    HW221534   3.955   1.970   4.851  1.0967  0.1431 -0.3630
 4145SOL     OW21535   2.084   9.100   6.791 -0.3178 -0.2238  0.1538
 4145SOL    HW121536   2.014   9.117   6.860 -1.2212 -1.0483 -0.5529
 4145SOL    HW221537   2.105   9.002   6.787  0.1696 -0.1075 -0.3087
 4147SOL     OW21538   8.255   7.129   5.693  0.7798  0.2774  0.4541
 4147SOL    HW121539   8.286   7.216   5.654  0.3747 -0.1960 -0.9750
 4147SOL    HW221540   8.318   7.100   5.765  1.0814  1.6026  0.7435
 4148SOL     OW21541   3.092   1.686   4.000  0.5671 -0.2341  0.0804
 4148SOL    HW121542   3.126   1.599   4.034  0.5129  0.1653  1.1724
 4148SOL    HW221543   3.139   1.709   3.914 -0.8700 -2.3097 -1.3152
 4150SOL     OW21544   4.371   7.871   3.875  0.2448 -0.0845  0.0021
 4150SOL    HW121545   4.446   7.931   3.845 -1.4926  0.6518 -3.0365
 4150SOL    HW221546   4.404   7.776   3.878  1.9097  0.4902  1.0018
 4151SOL     OW21547   9.302   7.349   6.754 -0.0985 -0.4508  0.1595
 4151SOL    HW121548   9.279   7.391   6.842  0.9150 -1.2192  0.8042
 4151SOL    HW221549   9.312   7.250   6.766 -0.2746 -0.5990 -0.8911
 4152SOL     OW21550   3.457   4.406   7.357  0.3367 -0.1673  0.5131
 4152SOL    HW121551   3.547   4.426   7.394  0.1519  1.4978  0.0823
 4152SOL    HW221552   3.465   4.387   7.259  0.1214  0.7018  0.3279
 4153SOL     OW21553   5.195   2.206   5.662  0.2382  0.1860 -0.3429
 4153SOL    HW121554   5.259   2.280   5.683  1.1672 -0.2841 -1.4648
 4153SOL    HW221555   5.240   2.118   5.675 -1.2299 -0.2502  2.1559
 4154SOL     OW21556   6.743   2.092   2.621 -0.4988  0.6379  0.3079
 4154SOL    HW121557   6.660   2.132   2.660 -0.5287 -0.6760  1.6709
 4154SOL    HW221558   6.745   1.993   2.641  1.4717  0.6850  0.4888
 4155SOL     OW21559   7.254   9.202   7.242 -0.3256  0.5005  0.2426
 4155SOL    HW121560   7.341   9.156   7.261 -0.2426  0.1467 -0.9417
 4155SOL    HW221561   7.187   9.134   7.211 -0.1943  1.1696 -1.5467
 4156SOL     OW21562   2.840   4.325   5.739 -0.1596  0.1483 -0.0194
 4156SOL    HW121563   2.911   4.385   5.776  0.5815 -1.9832  2.2280
 4156SOL    HW221564   2.876   4.275   5.661  1.1376 -1.4701  1.5576
 4157SOL     OW21565   8.778   4.139   0.262 -0.0622  0.2847  0.1369
 4157SOL    HW121566   8.868   4.180   0.250  0.3712 -1.0290 -1.3083
 4157SOL    HW221567   8.775   4.091   0.350  1.1264 -0.8285 -0.4172
 4158SOL     OW21568   9.753   4.713   2.180 -0.0530  0.0980  0.4664
 4158SOL    HW121569   9.849   4.690   2.166  0.0081  1.1795 -0.9332
 4158SOL    HW221570   9.702   4.629   2.199  1.0876 -0.5239  0.8455
 4159SOL     OW21571   6.057   8.690   5.794 -0.2716  0.5156 -0.2715
 4159SOL    HW121572   6.053   8.611   5.734 -0.4277  0.1705  0.1953
 4159SOL    HW221573   6.142   8.688   5.847 -0.1542  0.7963 -0.4458
 4160SOL     OW21574   4.394   6.093   3.587  0.0540 -0.9149 -1.5950
 4160SOL    HW121575   4.490   6.080   3.562  0.4429  0.3583 -0.7972
 4160SOL    HW221576   4.365   6.185   3.562 -0.0120 -0.1757  1.0560
 4161SOL     OW21577   3.616   9.543   3.045  0.2249  0.0896  0.4061
 4161SOL    HW121578   3.528   9.554   2.999  0.5159  0.0362 -0.1687
 4161SOL    HW221579   3.680   9.612   3.011  0.3979  0.1445  0.8395
 4162SOL     OW21580   1.704   6.763   2.290  0.4008  0.5553  0.0440
 4162SOL    HW121581   1.670   6.768   2.384  1.4120 -3.2297  0.6975
 4162SOL    HW221582   1.794   6.806   2.286  0.7504 -0.0553  1.0396
 4163SOL     OW21583   5.212   2.862   6.626 -0.4353  0.3323 -0.2477
 4163SOL    HW121584   5.219   2.823   6.533  0.6428 -0.8721  0.3194
 4163SOL    HW221585   5.301   2.898   6.653 -0.9654  1.4666 -0.0077
 4164SOL     OW21586   0.732   2.216   3.797  0.2062 -0.4639  0.3594
 4164SOL    HW121587   0.797   2.242   3.870  0.2506 -0.3270  0.2705
 4164SOL    HW221588   0.744   2.276   3.719  0.1583 -0.6135  0.2372
 4165SOL     OW21589   3.515   5.027   1.557 -0.4261  0.1002 -0.2848
 4165SOL    HW121590   3.586   5.098   1.557 -1.3074  0.9837 -0.5479
 4165SOL    HW221591   3.541   4.954   1.620  1.1438 -0.0021 -1.0245
 4166SOL     OW21592   7.269   7.993   6.083 -0.3992 -0.5141 -0.0751
 4166SOL    HW121593   7.290   8.057   6.008  1.1432 -1.2691 -0.3043
 4166SOL    HW221594   7.194   7.933   6.055 -0.3118 -0.3140 -0.7503
 4167SOL     OW21595   9.791   0.786   1.301  0.4515 -0.2779 -0.3675
 4167SOL    HW121596   9.731   0.759   1.226  0.3474 -1.3592  0.0958
 4167SOL    HW221597   9.885   0.759   1.280  0.4595 -0.3618 -0.2195
 4168SOL     OW21598   7.246   0.246   7.525 -0.0577  0.2127 -0.3645
 4168SOL    HW121599   7.318   0.182   7.555 -0.9488 -1.4564 -1.6875
 4168SOL    HW221600   7.228   0.232   7.428 -2.0195  0.7806 -0.0919
 4169SOL     OW21601   9.973   1.357   2.166 -0.0599  0.0963  0.1481
 4169SOL    HW121602   9.989   1.346   2.264 -1.0422 -0.2437  0.2771
 4169SOL    HW221603  10.054   1.329   2.116  1.2702  2.3611  0.9597
 4170SOL     OW21604   4.167   5.922   1.598 -0.0153 -1.0067  0.2290
 4170SOL    HW121605   4.077   5.904   1.640  1.3311 -1.4459  3.0564
 4170SOL    HW221606   4.196   5.842   1.547 -0.7837 -1.2272  0.1215
 4172SOL     OW21607   9.917   2.667   4.173  0.0467  0.2485 -0.0221
 4172SOL    HW121608   9.929   2.730   4.096 -0.3912 -0.6071 -0.7923
 4172SOL    HW221609   9.820   2.654   4.190  0.1402  0.6166  0.8398
 4173SOL     OW21610   9.649   8.303   3.666 -0.1507  0.4366  0.3111
 4173SOL    HW121611   9.705   8.258   3.597 -1.3034 -0.9301  0.2271
 4173SOL    HW221612   9.663   8.258   3.755  1.4785  2.3145  1.0205
 4174SOL     OW21613   4.471   7.619   4.030 -0.3928 -0.2306 -0.0920
 4174SOL    HW121614   4.407   7.637   4.105  0.2386  3.1232 -0.3065
 4174SOL    HW221615   4.553   7.575   4.067 -1.2500 -1.1863  0.7237
 4175SOL     OW21616   4.267   0.489   2.408  0.2139 -0.2741  0.5852
 4175SOL    HW121617   4.175   0.484   2.447  0.2077  2.1444  0.9609
 4175SOL    HW221618   4.264   0.458   2.313 -1.0069 -0.2109  0.5905
 4176SOL     OW21619   6.603   2.653   2.401 -0.0897 -0.6965  0.0416
 4176SOL    HW121620   6.629   2.564   2.438 -1.2644 -0.6255  1.0656
 4176SOL    HW221621   6.684   2.712   2.397  0.6490 -1.7395 -0.4443
 4177SOL     OW21622   1.861   2.001   0.364 -0.6132 -0.3117  0.1288
 4177SOL    HW121623   1.940   1.993   0.425 -2.7095  1.0946  3.1791
 4177SOL    HW221624   1.814   1.913   0.358  1.1605 -1.1734 -1.7579
 4178SOL     OW21625   3.564   9.165   4.825  0.4414 -0.1376 -0.3080
 4178SOL    HW121626   3.629   9.237   4.850  0.4694  0.9252 -3.3015
 4178SOL    HW221627   3.516   9.190   4.742 -0.3289 -3.1116 -0.8264
 4180SOL     OW21628   7.912   7.694   1.921  0.2808  0.1731  0.1295
 4180SOL    HW121629   7.965   7.617   1.884 -0.1873 -0.5902  1.0232
 4180SOL    HW221630   7.851   7.661   1.993 -0.8460  1.1807 -0.3419
 4181SOL     OW21631   2.740   1.998   5.873  0.0419  0.1553 -0.3099
 4181SOL    HW121632   2.747   1.947   5.959  2.2341 -1.5493 -1.4337
 4181SOL    HW221633   2.694   1.941   5.805  0.0765  0.7296 -0.8142
 4182SOL     OW21634   9.974   2.869   1.300  0.3497  0.4213  0.1645
 4182SOL    HW121635   9.910   2.836   1.369  1.0614 -0.4914  0.3987
 4182SOL    HW221636  10.035   2.936   1.340 -0.2130  1.0190  0.0334
 4184SOL     OW21637   2.791   5.077   7.860  0.4824 -0.1989  0.5642
 4184SOL    HW121638   2.711   5.134   7.882 -0.6939 -1.1028 -1.1770
 4184SOL    HW221639   2.776   4.984   7.894 -0.5537 -1.1296 -2.2136
 4185SOL     OW21640   7.621   9.816   6.767  0.1783  0.5244  0.1288
 4185SOL    HW121641   7.625   9.843   6.863  0.0743  0.1763  0.2340
 4185SOL    HW221642   7.594   9.719   6.761 -1.2642  0.9315 -0.2853
 4186SOL     OW21643   3.125   3.688   4.340 -0.2149 -0.3015  0.0879
 4186SOL    HW121644   3.142   3.629   4.419  0.6181 -0.3033 -0.0930
 4186SOL    HW221645   3.170   3.649   4.259 -1.2718 -0.4338 -0.4472
 4187SOL     OW21646   3.720   5.391   6.148 -0.1139 -0.3099 -0.4069
 4187SOL    HW121647   3.787   5.463   6.169 -1.1382  0.1717  1.3423
 4187SOL    HW221648   3.751   5.340   6.068  1.3103  1.2174 -0.8832
 4189SOL     OW21649   3.492   8.672   6.062 -0.1785  0.3547  0.0322
 4189SOL    HW121650   3.448   8.721   6.137  0.1550  1.9251 -0.7805
 4189SOL    HW221651   3.466   8.575   6.066 -0.6012  0.5287  1.8294
 4190SOL     OW21652   5.196   1.964   7.324  0.2560 -0.8013  0.4901
 4190SOL    HW121653   5.272   1.948   7.388  1.0821 -0.5208 -0.4110
 4190SOL    HW221654   5.224   1.937   7.232 -0.4512  0.1004  0.0081
 4191SOL     OW21655   9.838   4.795   1.488  0.3663  0.3880  0.8007
 4191SOL    HW121656   9.923   4.742   1.488  0.3708  0.3951  0.4041
 4191SOL    HW221657   9.771   4.751   1.429 -0.0125  0.2161  1.3510
 4192SOL     OW21658   0.915   9.868   2.374 -0.1899 -0.4628 -0.2629
 4192SOL    HW121659   0.827   9.823   2.389 -1.2322  1.1223 -1.4108
 4192SOL    HW221660   0.943   9.855   2.279  1.0329 -1.3149  0.2042
 4193SOL     OW21661   3.136   2.079   1.717  0.0785  0.1608  0.3108
 4193SOL    HW121662   3.232   2.058   1.735  0.7723  1.9852 -1.1087
 4193SOL    HW221663   3.119   2.177   1.732 -1.6515 -0.1880  0.8548
 4195SOL     OW21664   2.566   6.772   6.886 -0.1956  0.2756 -0.6860
 4195SOL    HW121665   2.627   6.833   6.835  1.0604  0.0806  0.5656
 4195SOL    HW221666   2.619   6.699   6.929 -1.4390 -0.5068 -0.4418
 4196SOL     OW21667   2.477   6.311   4.760 -0.2198 -0.0840 -0.0594
 4196SOL    HW121668   2.518   6.221   4.779 -0.4745 -0.1291  0.2745
 4196SOL    HW221669   2.390   6.319   4.808  0.1356  0.6091  0.4726
 4199SOL     OW21670   8.718   5.644   0.090  1.1962 -0.3318 -0.0183
 4199SOL    HW121671   8.790   5.672   0.026  0.8721 -0.8816 -0.6333
 4199SOL    HW221672   8.731   5.691   0.178  1.8366  0.1781 -0.3792
 4200SOL     OW21673   6.695   2.818   2.948 -0.1268 -0.3178  0.6254
 4200SOL    HW121674   6.667   2.722   2.950 -3.9494  0.6846 -0.1923
 4200SOL    HW221675   6.765   2.831   2.878 -1.3485 -2.0754 -0.9684
 4201SOL     OW21676   3.578   4.066   6.112  0.1704 -0.0901 -0.1052
 4201SOL    HW121677   3.578   4.159   6.074 -3.0430  0.0473  0.0929
 4201SOL    HW221678   3.587   4.000   6.038 -0.1046  0.3172 -0.5078
 4202SOL     OW21679   4.262   9.686   0.360  0.8479 -0.3237 -0.1550
 4202SOL    HW121680   4.178   9.709   0.409  1.4024  0.2984  0.5268
 4202SOL    HW221681   4.331   9.653   0.425  1.5967  0.5164 -0.4956
 4203SOL     OW21682   9.481   8.332   7.189  0.6781 -0.0054 -0.0444
 4203SOL    HW121683   9.438   8.391   7.256 -0.8721 -0.2059 -0.8417
 4203SOL    HW221684   9.571   8.304   7.221  0.0936  0.1834  1.7809
 4204SOL     OW21685   1.191   2.234   6.874 -0.0611  0.5092 -0.0312
 4204SOL    HW121686   1.199   2.264   6.778 -0.8137  0.2731 -0.1726
 4204SOL    HW221687   1.187   2.314   6.933  1.8797  0.6540 -0.0610
 4205SOL     OW21688   1.581   5.043   5.780 -0.2077  0.1943 -0.1429
 4205SOL    HW121689   1.557   5.041   5.683 -0.0560  0.3727 -0.1836
 4205SOL    HW221690   1.657   5.106   5.795 -0.0509 -0.0396  0.0525
 4206SOL     OW21691   9.288   1.682   1.549  0.4679 -0.1142  0.1200
 4206SOL    HW121692   9.210   1.701   1.489  0.5595 -0.1441 -0.0086
 4206SOL    HW221693   9.309   1.763   1.604  0.8437  0.1520 -0.4091
 4207SOL     OW21694   2.355   0.584   4.669  0.4746 -0.3577 -0.6075
 4207SOL    HW121695   2.290   0.559   4.741 -1.9253 -1.3444 -3.0696
 4207SOL    HW221696   2.389   0.676   4.686 -0.5987 -0.3007  1.3887
 4208SOL     OW21697   9.534   9.300   2.674 -0.5718  0.2045  0.4309
 4208SOL    HW121698   9.547   9.325   2.578  0.5159 -1.6744  0.0759
 4208SOL    HW221699   9.446   9.254   2.684  0.1174 -1.2315 -0.0076
 4209SOL     OW21700   1.126   0.446   4.646  0.2088  0.2682 -0.4981
 4209SOL    HW121701   1.110   0.408   4.738  1.6241  0.3419 -0.2099
 4209SOL    HW221702   1.039   0.477   4.608 -0.3594  0.5343  0.9542
 4210SOL     OW21703   0.255   7.424   3.405 -0.1291  0.0362 -0.4119
 4210SOL    HW121704   0.170   7.371   3.413  0.3210 -0.6286  0.0259
 4210SOL    HW221705   0.333   7.364   3.421  0.3694  0.9888  0.7678
 4211SOL     OW21706   1.782   2.738   0.590 -0.1543  0.6349 -0.1287
 4211SOL    HW121707   1.860   2.783   0.547 -0.1574 -1.0560 -2.0256
 4211SOL    HW221708   1.711   2.722   0.521 -0.4163 -1.6515  0.6154
 4212SOL     OW21709   2.608   6.829   5.460 -0.6877  0.8770 -0.0525
 4212SOL    HW121710   2.620   6.851   5.557 -0.3826 -0.4376  0.2056
 4212SOL    HW221711   2.633   6.910   5.406 -0.3319  1.4509  0.9299
 4213SOL     OW21712   0.307   7.779   6.385 -0.6165 -0.1005 -0.7813
 4213SOL    HW121713   0.221   7.816   6.352 -1.1444  0.4508  1.1271
 4213SOL    HW221714   0.383   7.831   6.346 -1.1425 -0.3809 -2.2172
 4214SOL     OW21715   4.363   6.680   4.516 -0.1052 -0.2238 -0.2020
 4214SOL    HW121716   4.437   6.630   4.471 -2.1070 -1.8795 -1.7488
 4214SOL    HW221717   4.282   6.679   4.457 -1.7254  0.5276  1.9613
 4215SOL     OW21718   0.610   3.717   4.924  0.4140  0.0705  0.0942
 4215SOL    HW121719   0.514   3.743   4.918  0.2534 -0.3459  0.8159
 4215SOL    HW221720   0.618   3.622   4.954  1.0069 -0.7669 -2.5678
 4216SOL     OW21721   4.740   8.326   3.699  0.0951 -0.0404  0.0526
 4216SOL    HW121722   4.773   8.397   3.637 -2.8500  1.4663  0.1178
 4216SOL    HW221723   4.793   8.328   3.784  0.4526  1.6343 -0.1999
 4217SOL     OW21724   0.068   5.904   7.023  0.8550  0.0642  0.5268
 4217SOL    HW121725   0.067   5.835   7.096  2.9006 -0.1019  0.4090
 4217SOL    HW221726  -0.026   5.920   6.992  0.3228 -2.7060  0.5269
 4218SOL     OW21727   5.516   9.942   4.566 -0.0528 -0.0718 -0.2906
 4218SOL    HW121728   5.572   9.882   4.508  0.5160 -0.3796  0.5590
 4218SOL    HW221729   5.563   9.957   4.653 -0.8891  0.3971  0.0868
 4220SOL     OW21730   1.591   0.947   7.670  0.0258  0.0651 -0.1323
 4220SOL    HW121731   1.600   0.959   7.769  2.0771 -1.8914 -0.0373
 4220SOL    HW221732   1.515   0.885   7.650 -0.9967  1.1987  0.1250
 4221SOL     OW21733   1.867   9.220   1.941  0.0552  0.2285 -0.1915
 4221SOL    HW121734   1.929   9.260   1.873  0.6244  0.6990  0.5882
 4221SOL    HW221735   1.775   9.217   1.904  0.2007  1.2816 -0.6779
 4222SOL     OW21736   1.589   0.500   1.539 -0.1550 -0.1891  0.2337
 4222SOL    HW121737   1.520   0.557   1.583 -0.5598 -0.1758 -0.4073
 4222SOL    HW221738   1.674   0.505   1.591 -0.7559 -0.5520  1.2797
 4226SOL     OW21739   9.626   6.941   2.844 -0.5221  0.2395  0.0869
 4226SOL    HW121740   9.528   6.925   2.828 -0.3210  0.0266 -0.9908
 4226SOL    HW221741   9.679   6.872   2.795  0.1985  1.0555 -0.2928
 4227SOL     OW21742   9.946   9.893   7.006 -0.4613  0.0259 -0.3320
 4227SOL    HW121743  10.041   9.867   6.987 -0.2803  1.1576 -1.0165
 4227SOL    HW221744   9.914   9.957   6.936 -1.6722 -0.1982  0.0045
 4228SOL     OW21745   9.306   6.395   1.520 -0.1511  0.3235 -0.3991
 4228SOL    HW121746   9.304   6.372   1.423 -2.1308  0.9598 -0.5257
 4228SOL    HW221747   9.310   6.311   1.574  0.6325 -0.0430 -1.0148
 4229SOL     OW21748   9.111   5.380   1.634  0.2700 -0.0016 -0.0842
 4229SOL    HW121749   9.121   5.390   1.733  0.5667 -2.7469  0.1958
 4229SOL    HW221750   9.068   5.292   1.613  1.4902 -0.0871 -2.4360
 4232SOL     OW21751   3.330   4.466   0.582 -0.5400 -0.3871 -0.6489
 4232SOL    HW121752   3.335   4.515   0.495 -2.0777 -1.0187 -1.1071
 4232SOL    HW221753   3.306   4.370   0.566 -1.5408 -0.3443  0.5203
 4233SOL     OW21754   1.652   3.261   2.181  0.0764 -0.2492  0.0798
 4233SOL    HW121755   1.739   3.246   2.229  0.0748 -0.3944  0.0375
 4233SOL    HW221756   1.658   3.223   2.089  0.7890  1.8424 -0.7617
 4235SOL     OW21757   5.037   8.493   4.732 -0.0079  0.2076  0.0995
 4235SOL    HW121758   5.136   8.500   4.720 -0.0222  1.0402  0.4588
 4235SOL    HW221759   4.993   8.577   4.700 -0.5824 -0.0686  0.1470
 4237SOL     OW21760   3.117   7.159   4.772  0.2042 -0.1036  0.2703
 4237SOL    HW121761   3.046   7.198   4.832 -0.0647  0.2370 -0.2648
 4237SOL    HW221762   3.127   7.062   4.791 -0.3229 -0.1284  0.4351
 4239SOL     OW21763   6.292   2.020   2.959 -0.7008  0.6385 -0.7271
 4239SOL    HW121764   6.260   2.057   3.046  0.1494  0.3079 -0.2667
 4239SOL    HW221765   6.313   1.923   2.971  0.4478  0.8460 -1.0218
 4240SOL     OW21766   9.713   8.248   7.373 -0.6815 -0.1858 -0.0201
 4240SOL    HW121767   9.749   8.155   7.374 -2.8740 -1.1089 -1.4886
 4240SOL    HW221768   9.785   8.312   7.349  0.6571 -1.6284  0.1057
 4241SOL     OW21769   4.328   0.588   2.779  0.2535  0.1546  0.1378
 4241SOL    HW121770   4.231   0.561   2.781  0.7350 -1.5503  2.7516
 4241SOL    HW221771   4.358   0.597   2.684 -1.5648 -2.6416 -0.7618
 4242SOL     OW21772   2.338   1.920   3.628  0.0218 -0.0646  0.5911
 4242SOL    HW121773   2.414   1.860   3.604  2.0347  0.9127  4.2447
 4242SOL    HW221774   2.280   1.874   3.697 -1.5212  0.0668 -0.5847
 4243SOL     OW21775   0.950   0.572   2.613  0.4646 -0.3049  0.3782
 4243SOL    HW121776   0.951   0.566   2.513  0.5433  0.4588  0.3334
 4243SOL    HW221777   0.951   0.479   2.651  0.7949 -0.5947 -0.3223
 4245SOL     OW21778   3.871   0.001   6.348  0.1934  0.1694 -0.2286
 4245SOL    HW121779   3.887   0.096   6.375  0.9952 -0.3864  1.2987
 4245SOL    HW221780   3.958  -0.041   6.321  0.3047 -0.9469  1.8034
 4246SOL     OW21781   7.600   3.741   3.238  0.7150 -0.1243 -0.2789
 4246SOL    HW121782   7.577   3.756   3.142  0.0427 -0.7396 -0.2204
 4246SOL    HW221783   7.678   3.679   3.244  0.1788 -0.8275 -0.4213
 4247SOL     OW21784   9.394   8.782   2.060 -0.7512 -0.5991  0.4071
 4247SOL    HW121785   9.377   8.740   1.971  0.3961 -0.9661  0.3435
 4247SOL    HW221786   9.437   8.871   2.046  0.1435 -0.9933  0.5930
 4248SOL     OW21787   3.732   7.837   2.968 -0.2303 -0.2857  0.2254
 4248SOL    HW121788   3.725   7.919   2.911  0.5406 -0.4507 -0.1196
 4248SOL    HW221789   3.643   7.817   3.009 -0.8377 -0.2391 -1.0295
 4249SOL     OW21790   0.745   8.393   3.909 -0.3930 -0.7963  0.4503
 4249SOL    HW121791   0.762   8.468   3.973 -2.6997 -0.8658  1.2039
 4249SOL    HW221792   0.829   8.341   3.895  2.1406  3.7692 -2.5972
 4251SOL     OW21793   7.879   9.520   7.459 -0.6220 -0.1229 -0.4943
 4251SOL    HW121794   7.897   9.610   7.499 -0.3805 -0.2565 -0.2986
 4251SOL    HW221795   7.829   9.464   7.525 -1.4759  0.1366 -0.9185
 4252SOL     OW21796   6.268   2.582   0.571 -0.2502  0.3136  0.2347
 4252SOL    HW121797   6.173   2.554   0.585 -0.4577  1.7610  1.8601
 4252SOL    HW221798   6.278   2.621   0.480 -1.0826 -0.3755 -0.1616
 4254SOL     OW21799   7.418   3.329   0.731 -0.0976  0.0774  0.4981
 4254SOL    HW121800   7.385   3.282   0.649 -1.3133 -0.8816  1.5258
 4254SOL    HW221801   7.495   3.279   0.770  0.8028  0.8002 -0.3122
 4255SOL     OW21802   7.271   5.354   1.116  0.5216 -0.0079 -0.3970
 4255SOL    HW121803   7.279   5.324   1.211  0.8657 -0.5803 -0.6031
 4255SOL    HW221804   7.271   5.274   1.056  0.2614  0.3498 -0.8767
 4256SOL     OW21805   2.296   7.413   1.084 -0.1820  0.2496  0.0142
 4256SOL    HW121806   2.203   7.421   1.048  0.4671  1.3153 -1.4835
 4256SOL    HW221807   2.302   7.464   1.170 -0.7711  0.9544 -0.3492
 4257SOL     OW21808   4.321   6.442   2.957 -0.1484  0.0151  0.1055
 4257SOL    HW121809   4.350   6.390   3.037  2.6685  1.8510  0.3626
 4257SOL    HW221810   4.286   6.531   2.986 -0.7307  0.0127 -0.5816
 4258SOL     OW21811   0.390   6.732   6.058 -0.6379 -0.1250  0.1178
 4258SOL    HW121812   0.366   6.694   6.147 -3.2064 -0.4660 -0.6706
 4258SOL    HW221813   0.434   6.821   6.071 -0.1496 -0.5836  1.7432
 4259SOL     OW21814   1.483   2.218   1.710 -0.3616  0.3813 -0.1289
 4259SOL    HW121815   1.578   2.189   1.695 -0.2756  0.7190 -0.2521
 4259SOL    HW221816   1.482   2.294   1.775 -0.7793 -1.4535  2.0671
 4260SOL     OW21817   6.457   7.279   3.690  0.4256  0.0752  0.0309
 4260SOL    HW121818   6.406   7.249   3.770  0.6374 -1.7944 -0.5104
 4260SOL    HW221819   6.395   7.318   3.623  0.0542  0.2132  0.4536
 4263SOL     OW21820   2.682   9.434   4.695  0.2212 -0.2118  0.5842
 4263SOL    HW121821   2.650   9.456   4.603 -0.5239 -0.1329  0.8590
 4263SOL    HW221822   2.778   9.405   4.691  0.1122 -0.4630 -0.2474
 4264SOL     OW21823   0.913   1.929   4.391  0.5125 -0.0147  0.0526
 4264SOL    HW121824   0.852   1.975   4.456 -0.7597  0.2716 -1.3144
 4264SOL    HW221825   0.884   1.834   4.380 -0.5117  0.4613 -1.5653
 4266SOL     OW21826   1.787   4.547   7.258 -0.0098  0.4015  0.4079
 4266SOL    HW121827   1.745   4.505   7.338 -0.9291 -0.1834 -0.3720
 4266SOL    HW221828   1.720   4.605   7.212  0.7301  1.3143  0.4684
 4267SOL     OW21829   1.651   5.801   0.586  0.5310  0.0152  0.3795
 4267SOL    HW121830   1.594   5.775   0.509  0.6399  0.8148  0.0294
 4267SOL    HW221831   1.627   5.745   0.666 -1.3657  0.9689  0.5047
 4269SOL     OW21832   5.146   6.947   2.245 -0.1547  0.0582 -0.2144
 4269SOL    HW121833   5.226   7.007   2.244  0.8982 -1.2978  1.3020
 4269SOL    HW221834   5.175   6.852   2.256 -1.9417 -0.5194 -0.3151
 4270SOL     OW21835   4.110   0.729   1.264  0.2867  0.3383  0.0781
 4270SOL    HW121836   4.192   0.674   1.250 -0.1898 -0.1819 -0.6971
 4270SOL    HW221837   4.081   0.721   1.360  1.5836  1.1647  0.5525
 4271SOL     OW21838   5.870   9.353   6.735  0.0582  0.5170 -0.6012
 4271SOL    HW121839   5.874   9.361   6.835  0.3846  1.1571 -0.6615
 4271SOL    HW221840   5.786   9.308   6.708 -0.1218  0.5198 -0.0424
 4272SOL     OW21841   5.046   2.646   4.834  0.6701  0.4779 -0.2218
 4272SOL    HW121842   5.073   2.586   4.758  0.1805  0.9824 -0.8043
 4272SOL    HW221843   4.979   2.598   4.891  1.8808 -0.3208  0.5392
 4273SOL     OW21844   0.879   9.339   2.540  0.2276  0.1694 -0.3520
 4273SOL    HW121845   0.954   9.284   2.578 -0.5173 -1.2353 -0.8710
 4273SOL    HW221846   0.901   9.366   2.446  0.8376  1.2397  0.0957
 4274SOL     OW21847   7.645   5.911   2.713 -0.1930  0.6470  0.3062
 4274SOL    HW121848   7.702   5.990   2.689 -2.6951  2.8226  1.1723
 4274SOL    HW221849   7.685   5.862   2.790 -0.4793  3.3990  2.2965
 4275SOL     OW21850   4.640   3.459   1.317  0.4780 -0.2699  0.3150
 4275SOL    HW121851   4.568   3.519   1.282  0.9794  0.7748  1.0838
 4275SOL    HW221852   4.699   3.430   1.241  1.2658  1.5961  0.2047
 4276SOL     OW21853   5.612   8.922   6.868 -0.3863  0.7842 -0.1656
 4276SOL    HW121854   5.594   8.828   6.841  0.4290  0.8366 -0.8972
 4276SOL    HW221855   5.525   8.966   6.894 -0.7806 -0.1212  0.0603
 4277SOL     OW21856   6.250   1.997   3.411  0.1063  0.1629 -0.3574
 4277SOL    HW121857   6.287   1.904   3.420 -0.4068 -0.1436 -1.3539
 4277SOL    HW221858   6.212   2.026   3.498  0.9523 -0.2668  0.1672
 4278SOL     OW21859   2.258   4.397   7.674  0.0177 -0.6936  0.2975
 4278SOL    HW121860   2.264   4.304   7.709  0.5483 -0.4334  0.9021
 4278SOL    HW221861   2.199   4.399   7.592  1.1073 -1.7689 -0.5183
 4280SOL     OW21862   1.273   1.856   0.564 -0.1112 -0.0635  0.2747
 4280SOL    HW121863   1.184   1.823   0.594  0.4209  0.2162  2.2734
 4280SOL    HW221864   1.324   1.782   0.521 -0.9785 -0.4305 -0.1257
 4281SOL     OW21865   9.404   8.984   3.755  0.0884  0.1499 -0.3684
 4281SOL    HW121866   9.345   8.992   3.675  0.1154  1.5721 -0.2567
 4281SOL    HW221867   9.348   8.966   3.836  0.0946 -1.7057 -0.7510
 4282SOL     OW21868   1.419   4.626   0.083 -0.0560  0.0186  0.2225
 4282SOL    HW121869   1.378   4.701   0.032  0.2743  0.1046  0.0870
 4282SOL    HW221870   1.352   4.590   0.148 -0.2504  0.3535  0.2077
 4283SOL     OW21871   3.153   2.330   0.311 -0.3616  0.3115 -0.1236
 4283SOL    HW121872   3.181   2.342   0.216 -1.0235  2.1054 -0.1094
 4283SOL    HW221873   3.082   2.260   0.316 -0.8555  0.7297 -1.0512
 4284SOL     OW21874   0.222   5.753   6.838  0.0808 -0.4619  0.6439
 4284SOL    HW121875   0.280   5.781   6.761 -0.5686 -0.1704  0.2538
 4284SOL    HW221876   0.190   5.834   6.887  0.5195 -0.6503  1.2400
 4285SOL     OW21877   4.872   0.522   3.210 -0.4923  0.3220  0.5422
 4285SOL    HW121878   4.853   0.582   3.288 -0.4201  1.9689 -0.6979
 4285SOL    HW221879   4.944   0.457   3.235  0.1029  1.3648  1.5931
 4287SOL     OW21880   2.038   2.800   3.555  0.5329 -0.4348 -0.0820
 4287SOL    HW121881   2.007   2.876   3.612 -0.7422 -0.4766 -0.7004
 4287SOL    HW221882   2.057   2.720   3.612  0.6481 -0.0454  0.4273
 4288SOL     OW21883   3.842   9.451   7.731  0.5409  0.3192  0.1574
 4288SOL    HW121884   3.772   9.463   7.661  0.8100 -0.6839 -0.2914
 4288SOL    HW221885   3.916   9.517   7.715  0.1800  0.7023  0.0396
 4289SOL     OW21886   7.900   1.929   0.532 -0.0956 -0.5389  0.0164
 4289SOL    HW121887   7.904   1.832   0.508 -3.6077 -1.0094  1.0826
 4289SOL    HW221888   7.925   1.941   0.628  1.5082 -0.2202 -0.4311
 4290SOL     OW21889   0.741   5.607   2.063 -0.1369  0.3721 -0.0827
 4290SOL    HW121890   0.682   5.637   1.988 -0.2138 -0.3648 -0.3170
 4290SOL    HW221891   0.740   5.508   2.069 -0.4586  0.4407  1.1644
 4293SOL     OW21892   1.090   4.479   1.193 -0.2578 -0.1435 -0.1234
 4293SOL    HW121893   1.140   4.548   1.244  0.2156 -0.1276 -0.5965
 4293SOL    HW221894   1.154   4.407   1.163 -0.3102  0.4166 -1.6335
 4294SOL     OW21895   8.573   6.055   0.478 -0.0447  0.5030 -0.3334
 4294SOL    HW121896   8.513   6.090   0.550 -0.0876 -0.3983  0.0711
 4294SOL    HW221897   8.660   6.026   0.518 -0.6816 -1.5458 -0.3891
 4295SOL     OW21898   8.286   7.541   2.039  0.2249  0.1399  0.8720
 4295SOL    HW121899   8.219   7.551   1.965 -0.2218  3.5465  1.6330
 4295SOL    HW221900   8.377   7.561   2.005  0.6455 -2.7075  0.2536
 4296SOL     OW21901   9.719   3.842   7.256 -0.0108  0.5556 -0.3545
 4296SOL    HW121902   9.778   3.797   7.324  0.2821  0.6248 -0.5632
 4296SOL    HW221903   9.645   3.889   7.303 -0.3093 -0.1307 -0.1315
 4297SOL     OW21904   7.239   1.468   3.186 -0.1647  0.4430 -0.6606
 4297SOL    HW121905   7.189   1.550   3.213 -0.2002  0.0469  0.5350
 4297SOL    HW221906   7.303   1.490   3.112 -0.6465  1.3953 -0.7988
 4298SOL     OW21907   8.281   6.336   2.646  0.3350 -0.5866  0.1548
 4298SOL    HW121908   8.204   6.399   2.656 -0.3206 -1.1626 -1.1375
 4298SOL    HW221909   8.343   6.346   2.723 -1.7193 -1.0546  1.9205
 4299SOL     OW21910   3.575   6.678   6.868 -0.7119  0.4261 -0.2370
 4299SOL    HW121911   3.556   6.610   6.939 -0.2689 -0.4916 -0.9852
 4299SOL    HW221912   3.648   6.738   6.898  1.3982 -1.6799 -1.0010
 4300SOL     OW21913   0.246   3.265   3.537  0.1570 -0.0376 -0.1342
 4300SOL    HW121914   0.326   3.231   3.487  1.1688  0.8775  0.8366
 4300SOL    HW221915   0.276   3.319   3.615 -1.4221 -0.2650  0.6541
 4301SOL     OW21916   7.553   4.878   3.856  0.0657 -0.0110  0.0882
 4301SOL    HW121917   7.573   4.917   3.946  1.1305 -1.2625  0.4010
 4301SOL    HW221918   7.535   4.781   3.865  1.8029 -0.4839 -1.2313
 4303SOL     OW21919   9.365   2.636   1.429 -0.3986  0.2451  0.1210
 4303SOL    HW121920   9.425   2.604   1.502 -0.6595  2.9174  1.5572
 4303SOL    HW221921   9.287   2.684   1.468  0.0065  2.6906 -1.9127
 4304SOL     OW21922   4.515   0.721   0.398  0.1001  0.2033  0.2448
 4304SOL    HW121923   4.470   0.733   0.309  0.6454  0.2884 -0.0176
 4304SOL    HW221924   4.467   0.776   0.467  1.3726  2.3525 -0.5500
 4305SOL     OW21925   8.123   1.027   2.954 -0.1442  0.4159 -0.2579
 4305SOL    HW121926   8.051   0.964   2.986  1.0657  0.2384  2.2769
 4305SOL    HW221927   8.112   1.115   2.999  0.9602  0.5171 -0.1707
 4306SOL     OW21928   3.050   4.484   1.304 -0.3091  0.0904  0.4224
 4306SOL    HW121929   3.072   4.441   1.216 -0.4530  1.0491 -0.0900
 4306SOL    HW221930   3.011   4.415   1.366 -0.8435 -0.4523 -0.4983
 4307SOL     OW21931   9.452   9.196   0.655  0.0758  0.1862 -0.1019
 4307SOL    HW121932   9.522   9.132   0.687 -0.3376  0.0987  0.6413
 4307SOL    HW221933   9.492   9.287   0.645  0.3342  0.1039  0.1666
 4308SOL     OW21934   9.868   8.838   2.103  0.3550  0.1033 -0.3212
 4308SOL    HW121935   9.822   8.913   2.151  1.0575 -0.0187  0.5466
 4308SOL    HW221936   9.810   8.757   2.105 -0.2496  0.5091 -0.9462
 4309SOL     OW21937   0.676   0.115   1.931 -0.2369 -0.0632  0.0833
 4309SOL    HW121938   0.765   0.157   1.949 -1.4609  2.4655  0.4069
 4309SOL    HW221939   0.606   0.186   1.927 -2.4214 -2.1133  0.9087
 4310SOL     OW21940   4.076   1.810   5.675  0.2796 -0.6273  0.1453
 4310SOL    HW121941   4.104   1.740   5.609 -0.1456 -0.2569 -0.4275
 4310SOL    HW221942   4.156   1.862   5.704  0.3909 -0.4273 -0.5016
 4312SOL     OW21943   5.124   6.100   0.782  0.6593  0.1140 -0.4129
 4312SOL    HW121944   5.138   6.176   0.845 -0.1187 -0.5785  0.6264
 4312SOL    HW221945   5.167   6.120   0.695  2.2295  0.8641  0.5149
 4313SOL     OW21946   0.322   8.845   7.348  0.7409  0.0295 -0.4590
 4313SOL    HW121947   0.314   8.752   7.383 -0.3440  0.2537 -0.0868
 4313SOL    HW221948   0.306   8.910   7.422 -1.3765  0.5045 -1.2893
 4315SOL     OW21949   1.984   3.899   1.003  0.4886 -0.1862 -0.6060
 4315SOL    HW121950   1.889   3.929   1.005 -0.3676 -2.8295  1.2664
 4315SOL    HW221951   2.029   3.921   1.089  1.1743 -0.2041 -0.9495
 4316SOL     OW21952   8.513   1.131   2.764  0.1237 -0.0562 -0.1055
 4316SOL    HW121953   8.522   1.207   2.700 -0.3923 -0.2725 -0.4388
 4316SOL    HW221954   8.471   1.164   2.848 -0.7995 -0.1254 -0.5359
 4317SOL     OW21955   2.925   9.963   5.032 -0.2638 -0.6324  0.0744
 4317SOL    HW121956   2.851   9.964   4.965 -0.8063  2.4049  0.6497
 4317SOL    HW221957   2.933  10.053   5.075  2.6542 -1.3896  1.2735
 4318SOL     OW21958   2.405   6.317   5.305 -0.5684  0.2130  0.2267
 4318SOL    HW121959   2.505   6.323   5.309 -0.5617  0.1504  0.1478
 4318SOL    HW221960   2.366   6.384   5.368 -0.4859  0.6995 -0.2353
 4319SOL     OW21961   6.968   8.625   4.340  0.2578  0.2040 -0.3056
 4319SOL    HW121962   6.962   8.640   4.241 -1.4691  1.2676 -0.0694
 4319SOL    HW221963   6.907   8.551   4.366  0.8512 -0.1983 -0.0566
 4322SOL     OW21964   4.700   5.663   4.561 -0.0394  0.1529 -0.2884
 4322SOL    HW121965   4.606   5.698   4.567 -0.7980 -1.8710  0.1315
 4322SOL    HW221966   4.737   5.651   4.653  0.9552  1.7247 -0.4673
 4323SOL     OW21967   1.588   5.081   0.908  0.6342 -0.7674  0.5611
 4323SOL    HW121968   1.625   5.047   0.821  2.7667  1.2510  0.6355
 4323SOL    HW221969   1.589   5.007   0.976  1.6360 -1.5961 -0.3372
 4324SOL     OW21970   3.349   6.963   3.178 -0.4080  0.1163 -0.1411
 4324SOL    HW121971   3.445   6.991   3.172 -0.1782 -0.6465 -0.0683
 4324SOL    HW221972   3.338   6.873   3.135 -0.5940 -0.9739  2.1040
 4325SOL     OW21973   7.730   4.569   2.593 -0.4918  0.3150 -0.0102
 4325SOL    HW121974   7.762   4.644   2.649  0.7438  0.0993 -0.4164
 4325SOL    HW221975   7.804   4.502   2.581 -0.3614  0.9052 -2.7987
 4326SOL     OW21976   0.823   0.086   0.476  0.0929  0.4050  0.3418
 4326SOL    HW121977   0.905   0.135   0.506 -0.2742  1.2281  0.0118
 4326SOL    HW221978   0.743   0.143   0.495 -0.2923  0.1444 -0.5260
 4328SOL     OW21979   6.040   9.735   1.609  0.2410 -1.0809  0.4411
 4328SOL    HW121980   5.954   9.698   1.643 -0.3686 -0.2491 -0.1964
 4328SOL    HW221981   6.065   9.817   1.662 -0.0837 -0.4998 -0.2930
 4329SOL     OW21982   7.973   8.981   4.339  0.2479 -0.5988 -0.0645
 4329SOL    HW121983   8.042   8.920   4.377  1.2911 -0.2894 -1.4180
 4329SOL    HW221984   7.922   8.934   4.267 -0.1218 -0.4205  0.0766
 4331SOL     OW21985   4.872   5.312   0.027  0.0667 -0.5166  0.4004
 4331SOL    HW121986   4.943   5.337   0.094 -0.0864  1.0933 -0.0299
 4331SOL    HW221987   4.886   5.365  -0.057 -1.7343 -0.0766  0.3730
 4332SOL     OW21988   0.858   5.745   3.441 -0.3690 -0.2166  0.1165
 4332SOL    HW121989   0.861   5.721   3.344 -2.0034 -1.1729  0.2854
 4332SOL    HW221990   0.908   5.831   3.455  1.9147 -1.2925 -1.1628
 4333SOL     OW21991   6.519   0.985   5.723  0.3347  0.1395 -1.0304
 4333SOL    HW121992   6.424   0.971   5.698 -0.6719  0.5999  2.2375
 4333SOL    HW221993   6.533   1.080   5.750  1.4922 -0.1305 -0.6334
 4334SOL     OW21994   3.657   9.465   6.301  0.0072  0.3313 -0.1731
 4334SOL    HW121995   3.708   9.419   6.228  1.2560  0.7237  0.4372
 4334SOL    HW221996   3.568   9.495   6.266  1.0750  1.5773 -1.8818
 4335SOL     OW21997   0.873   0.048   3.990  0.1227 -0.1144  0.3350
 4335SOL    HW121998   0.934   0.062   4.068  2.0171 -0.1413 -1.0900
 4335SOL    HW221999   0.872   0.131   3.933  0.7161 -0.9510 -0.9230
 4336SOL     OW22000   0.241   7.242   0.975 -0.2989  0.3703 -0.5730
 4336SOL    HW122001   0.338   7.263   0.966 -0.2047  0.0007 -0.4107
 4336SOL    HW222002   0.229   7.149   1.011 -0.6941  0.8772  0.6448
 4337SOL     OW22003   7.391   5.248   2.425  0.5033  0.3155 -0.3188
 4337SOL    HW122004   7.352   5.287   2.342 -0.3372  0.2708  0.0407
 4337SOL    HW222005   7.445   5.167   2.401 -0.1774 -0.0156 -0.7753
 4338SOL     OW22006   5.414   8.712   6.983  0.0143 -0.0584  0.3934
 4338SOL    HW122007   5.502   8.715   6.936  0.2238  1.6218  0.8540
 4338SOL    HW222008   5.430   8.714   7.082 -0.4981 -1.0704  0.4950
 4339SOL     OW22009   0.323   0.604   7.376 -0.3194  0.1905  0.1408
 4339SOL    HW122010   0.254   0.539   7.345  1.1913 -2.2546  1.7525
 4339SOL    HW222011   0.349   0.583   7.470  0.8237  2.6341  0.4147
 4340SOL     OW22012   9.089   0.306   1.816 -0.3762 -0.1073  0.0880
 4340SOL    HW122013   9.101   0.402   1.839  1.4923 -0.2862 -0.0373
 4340SOL    HW222014   9.127   0.249   1.888  0.7562 -0.7080 -0.9525
 4341SOL     OW22015   1.109   1.726   1.810 -0.9639  0.0315  0.3930
 4341SOL    HW122016   1.067   1.777   1.735  0.1706  0.6171  0.1568
 4341SOL    HW222017   1.198   1.691   1.782 -0.2429  0.7909  1.6530
 4342SOL     OW22018   6.214   2.607   2.963 -0.2589  0.3890  0.1953
 4342SOL    HW122019   6.242   2.691   2.916 -1.7038  0.4542 -0.5638
 4342SOL    HW222020   6.171   2.631   3.050  1.6644  0.3048  1.1910
 4344SOL     OW22021   4.445   4.638   2.357 -0.1646  0.1862 -0.4086
 4344SOL    HW122022   4.383   4.717   2.356 -1.8949 -1.1391 -1.1092
 4344SOL    HW222023   4.423   4.580   2.435  0.2332 -0.2690 -0.6343
 4345SOL     OW22024   4.780   9.329   5.303  0.0845  0.3545  0.0321
 4345SOL    HW122025   4.741   9.295   5.389 -1.5435 -0.1798 -0.8935
 4345SOL    HW222026   4.810   9.251   5.248  0.2646  0.6444 -0.2809
 4346SOL     OW22027   2.468   3.445   6.762 -0.0019 -0.6687 -0.1146
 4346SOL    HW122028   2.378   3.480   6.736  0.6073 -0.1192 -1.5167
 4346SOL    HW222029   2.500   3.381   6.693  1.2465  0.1080 -0.2773
 4347SOL     OW22030   8.215   6.375   7.726 -0.3323  0.1193 -0.7176
 4347SOL    HW122031   8.133   6.357   7.780 -0.5413  1.4788 -0.5629
 4347SOL    HW222032   8.287   6.312   7.754 -1.3784 -1.2066 -0.9880
 4348SOL     OW22033   7.928   2.687   5.423  0.0095 -0.0458 -0.1873
 4348SOL    HW122034   7.985   2.746   5.366 -0.4657  0.5198 -0.0882
 4348SOL    HW222035   7.861   2.639   5.366 -0.2186  0.2319 -0.1558
 4349SOL     OW22036   9.880   5.254   0.086  0.6638  0.1755  0.4666
 4349SOL    HW122037   9.976   5.228   0.077  0.2581 -0.2985 -3.4013
 4349SOL    HW222038   9.871   5.352   0.069  0.1681 -0.2977 -2.2814
 4350SOL     OW22039   3.183   0.427   7.802  0.5518  0.1798 -0.1182
 4350SOL    HW122040   3.144   0.519   7.804 -0.8754 -0.4254  0.1829
 4350SOL    HW222041   3.125   0.367   7.747  1.0546 -0.7261  0.3272
 4351SOL     OW22042   0.598   1.697   6.388  0.7551 -0.3006  0.0504
 4351SOL    HW122043   0.612   1.646   6.473  1.6603  0.0322  0.1068
 4351SOL    HW222044   0.650   1.782   6.391  2.7996 -1.4390 -1.8343
 4352SOL     OW22045   2.304   7.888   7.549 -0.5025  0.1894  0.1917
 4352SOL    HW122046   2.337   7.980   7.567  0.8979 -0.5540  1.5683
 4352SOL    HW222047   2.205   7.884   7.566 -0.5853  1.4413  0.0475
 4353SOL     OW22048   9.663   5.696   4.732 -0.6936  0.1863 -0.4621
 4353SOL    HW122049   9.621   5.628   4.793 -2.9407  0.8030 -1.3005
 4353SOL    HW222050   9.685   5.652   4.645 -2.6929  0.6316 -1.2202
 4354SOL     OW22051   9.389   9.783   2.184  0.0504 -0.8759 -0.3767
 4354SOL    HW122052   9.362   9.857   2.123 -1.9434 -0.6681  0.6985
 4354SOL    HW222053   9.315   9.765   2.249  0.2696 -4.1997 -0.9589
 4356SOL     OW22054   2.506   6.158   0.074 -0.1260  0.1189 -0.2147
 4356SOL    HW122055   2.575   6.222   0.041 -0.8096  1.2888  0.5794
 4356SOL    HW222056   2.517   6.146   0.173 -2.4534  2.1069  0.3399
 4357SOL     OW22057   5.504   9.348   2.097 -0.3865  0.3244 -0.4432
 4357SOL    HW122058   5.522   9.349   2.196 -1.4978 -0.1833 -0.2257
 4357SOL    HW222059   5.428   9.409   2.077  0.0341  0.6545 -1.0323
 4358SOL     OW22060   9.158   5.722   3.576 -0.2344  0.7477  0.1757
 4358SOL    HW122061   9.165   5.693   3.671 -0.2461  1.7460  0.4794
 4358SOL    HW222062   9.070   5.767   3.561  0.8712  3.0534  0.3674
 4359SOL     OW22063   8.846   3.331   2.186 -0.1775  0.0074 -0.6035
 4359SOL    HW122064   8.907   3.348   2.109  0.3775 -1.9336 -0.6001
 4359SOL    HW222065   8.754   3.312   2.152 -0.6628  2.2473 -0.6343
 4360SOL     OW22066   2.620   9.316   7.329  0.6898  0.6299 -0.4246
 4360SOL    HW122067   2.606   9.279   7.237 -0.3715 -0.2134  0.0609
 4360SOL    HW222068   2.650   9.242   7.390 -2.4306  0.2768  0.7893
 4361SOL     OW22069   3.413   7.777   1.933 -0.6940  0.3979  0.2007
 4361SOL    HW122070   3.457   7.838   1.867 -0.0259  0.9285  1.1235
 4361SOL    HW222071   3.450   7.684   1.922  0.4868  0.7768  0.7665
 4362SOL     OW22072   1.755   7.441   0.915  0.0402  0.2051 -0.5539
 4362SOL    HW122073   1.729   7.346   0.933 -0.0863  0.5178  0.9759
 4362SOL    HW222074   1.697   7.478   0.843 -1.0340 -0.3762 -0.0061
 4363SOL     OW22075   3.805   7.124   2.253  0.0402  0.6952 -0.1427
 4363SOL    HW122076   3.889   7.077   2.276  0.4089  0.7195 -1.3874
 4363SOL    HW222077   3.793   7.125   2.154 -0.7813  1.7993 -0.0480
 4364SOL     OW22078   8.371   0.862   4.303 -0.5854 -0.4217  0.4896
 4364SOL    HW122079   8.349   0.916   4.385  0.5901  0.4657  0.2426
 4364SOL    HW222080   8.467   0.836   4.306 -1.1236 -2.4788  0.5582
 4365SOL     OW22081   0.314   5.734   3.472 -0.1373  0.0751  0.5861
 4365SOL    HW122082   0.259   5.771   3.547  2.2717  0.4428  2.2325
 4365SOL    HW222083   0.259   5.732   3.388 -2.5293  0.7204  2.0817
 4366SOL     OW22084   3.036   5.304   4.629  0.5372 -0.0244  0.3204
 4366SOL    HW122085   2.966   5.265   4.568  1.9021 -3.2463  0.6865
 4366SOL    HW222086   3.049   5.401   4.607 -2.0185 -0.0496 -1.6335
 4367SOL     OW22087   0.785   6.255   6.361 -0.3652 -0.1380 -0.2358
 4367SOL    HW122088   0.779   6.333   6.299 -1.8763  0.1475  0.2505
 4367SOL    HW222089   0.750   6.173   6.317 -0.6287 -0.1221 -0.0548
 4368SOL     OW22090   8.062   2.800   5.224  0.4827  0.0646  0.6110
 4368SOL    HW122091   8.012   2.850   5.154 -0.4161  0.0749  1.2453
 4368SOL    HW222092   8.149   2.847   5.243  0.6425  0.1646 -0.3401
 4370SOL     OW22093   4.028   3.122   3.671  0.1968 -0.6601 -0.1693
 4370SOL    HW122094   4.053   3.181   3.594 -1.6158  0.8357  0.3377
 4370SOL    HW222095   3.928   3.115   3.675  0.2944 -0.9312  1.9155
 4371SOL     OW22096   2.264   0.762   1.791  0.2838 -0.5516  0.0049
 4371SOL    HW122097   2.166   0.778   1.786  0.8400  2.6691 -2.3724
 4371SOL    HW222098   2.292   0.756   1.887 -2.0065  0.0316  0.7438
 4372SOL     OW22099   4.778   9.690   4.751 -0.1442 -0.0362 -0.1513
 4372SOL    HW122100   4.830   9.742   4.818  0.5131  0.8488 -1.3374
 4372SOL    HW222101   4.732   9.613   4.796 -0.2851  0.9629  1.4229
 4373SOL     OW22102   1.620   8.334   3.862 -0.2961  0.4614 -0.2062
 4373SOL    HW122103   1.575   8.254   3.821  0.3936  0.2565 -0.5777
 4373SOL    HW222104   1.622   8.409   3.796  2.3245 -0.4175 -1.1881
 4374SOL     OW22105   8.047   8.390   7.083  0.3403  0.6163 -0.4427
 4374SOL    HW122106   8.102   8.324   7.133 -1.0731  0.6032  1.1326
 4374SOL    HW222107   8.105   8.464   7.050  1.7918 -0.9495 -1.4749
 4375SOL     OW22108   8.374   1.109   6.508 -0.3194 -0.0849 -0.8296
 4375SOL    HW122109   8.369   1.209   6.507  1.5354  0.0343 -1.0741
 4375SOL    HW222110   8.306   1.072   6.571 -0.1989  1.4019  0.1926
 4376SOL     OW22111   7.453   0.705   1.229  0.3455 -0.4090 -0.2269
 4376SOL    HW122112   7.361   0.682   1.260 -0.2922  0.1438 -1.6604
 4376SOL    HW222113   7.503   0.749   1.304 -0.2399 -1.5209  0.8368
 4377SOL     OW22114   5.238   9.104   4.264 -0.3049 -0.1436  0.0006
 4377SOL    HW122115   5.182   9.028   4.231 -0.5532 -0.4708  1.1280
 4377SOL    HW222116   5.197   9.142   4.347  0.4496  0.4599  0.1097
 4378SOL     OW22117   5.355   9.604   2.889 -0.1835 -1.0177 -0.2199
 4378SOL    HW122118   5.400   9.536   2.948 -1.6982 -1.5976  0.2949
 4378SOL    HW222119   5.355   9.693   2.935 -0.2856 -1.1981  0.1296
 4379SOL     OW22120   0.093   9.288   1.760  0.7350 -0.5966 -0.6203
 4379SOL    HW122121   0.054   9.379   1.748 -0.8568 -1.0597  0.8332
 4379SOL    HW222122   0.134   9.281   1.852 -0.0770 -1.6544 -0.3251
 4381SOL     OW22123   0.753   4.374   0.806 -0.0127  0.0117  0.2353
 4381SOL    HW122124   0.843   4.351   0.845 -0.3756 -0.4145  0.8197
 4381SOL    HW222125   0.741   4.325   0.720  0.5494  0.5006 -0.1241
 4382SOL     OW22126   4.335   8.497   2.119 -0.5677  0.1365 -0.2310
 4382SOL    HW122127   4.250   8.493   2.172 -1.3378 -0.4355 -1.4876
 4382SOL    HW222128   4.387   8.578   2.145 -1.3556  0.3289  0.7609
 4383SOL     OW22129   0.133   9.871   0.798 -0.1058  0.4864  0.0030
 4383SOL    HW122130   0.146   9.773   0.813 -0.3448  0.2258 -1.3965
 4383SOL    HW222131   0.122   9.918   0.886  1.5983 -0.5121  0.7612
 4384SOL     OW22132   0.696   5.362   5.604 -0.7423 -0.3019  0.3979
 4384SOL    HW122133   0.761   5.377   5.678 -0.6194  0.5129  0.1288
 4384SOL    HW222134   0.722   5.416   5.524 -2.9378  1.7660  1.0028
 4385SOL     OW22135   7.742   1.291   0.744  0.0684 -0.4148  0.5054
 4385SOL    HW122136   7.744   1.207   0.797 -0.6155  0.8242  2.5311
 4385SOL    HW222137   7.797   1.279   0.661 -0.4642 -3.0139  0.4703
 4386SOL     OW22138   6.006   8.930   4.604  0.0175 -0.1115 -0.2265
 4386SOL    HW122139   6.045   8.843   4.572 -1.7746 -1.0855  0.1647
 4386SOL    HW222140   6.000   8.993   4.527  1.4219 -0.2882 -0.4969
 4387SOL     OW22141   2.226   9.332   4.380  0.2047  0.0338  0.5900
 4387SOL    HW122142   2.245   9.421   4.339  0.1871  1.0619  2.7832
 4387SOL    HW222143   2.310   9.277   4.378  0.3715  0.3078 -0.2334
 4388SOL     OW22144   0.995   9.457   3.164  0.1875 -0.5271 -0.2853
 4388SOL    HW122145   1.070   9.519   3.139  0.7956 -1.2571 -0.3116
 4388SOL    HW222146   0.913   9.481   3.111  0.8633 -0.7330 -1.4555
 4389SOL     OW22147   0.146   8.846   3.657 -0.1044 -0.3890 -0.0359
 4389SOL    HW122148   0.080   8.772   3.643 -1.5523  0.9295 -0.2588
 4389SOL    HW222149   0.120   8.900   3.737  0.7951  0.0431 -0.0284
 4390SOL     OW22150   4.147   3.378   7.598 -0.3133 -0.1982  0.3163
 4390SOL    HW122151   4.138   3.367   7.499  2.0758  0.1815  0.0127
 4390SOL    HW222152   4.093   3.456   7.629  0.1881  0.6705 -0.9595
 4391SOL     OW22153   3.621   4.824   5.312  0.0138 -0.5538  0.0244
 4391SOL    HW122154   3.598   4.920   5.331  0.4049 -0.4967  0.2154
 4391SOL    HW222155   3.589   4.800   5.220  0.8771  0.0824 -0.4503
 4392SOL     OW22156   0.730   7.749   5.245  0.2471  0.3092  0.0457
 4392SOL    HW122157   0.811   7.726   5.190 -0.8153 -0.4924 -1.1917
 4392SOL    HW222158   0.665   7.673   5.242  0.1665  0.2337  2.4237
 4395SOL     OW22159   2.235   8.124   5.005 -0.5680 -0.6274 -0.2210
 4395SOL    HW122160   2.287   8.169   4.932 -2.1282 -0.2992 -1.1621
 4395SOL    HW222161   2.145   8.096   4.969 -0.6535 -2.0889  1.0833
 4396SOL     OW22162   9.335   9.584   0.632 -0.3233  0.5374 -0.0548
 4396SOL    HW122163   9.429   9.552   0.617 -0.6121 -0.4202  0.1366
 4396SOL    HW222164   9.289   9.522   0.697 -1.6771 -0.0918 -1.5759
 4397SOL     OW22165   7.179   1.662   4.554  0.2604  0.0729  0.0336
 4397SOL    HW122166   7.163   1.715   4.471 -2.2645  1.2527  1.2284
 4397SOL    HW222167   7.159   1.565   4.536 -0.9501  0.4231 -0.5632
 4398SOL     OW22168   1.241   3.241   0.270 -0.2825 -0.7943 -0.1839
 4398SOL    HW122169   1.333   3.276   0.288 -0.2923 -1.4605  1.2390
 4398SOL    HW222170   1.179   3.317   0.250  0.3390 -0.2596 -0.0846
 4400SOL     OW22171   0.089   6.597   0.761  0.9743  0.4161  0.2933
 4400SOL    HW122172   0.015   6.570   0.822  0.9020  1.3942  0.6340
 4400SOL    HW222173   0.052   6.622   0.672  1.0372 -0.5339 -0.0121
 4401SOL     OW22174   9.114   0.785   7.327  0.0594 -0.5261 -0.7789
 4401SOL    HW122175   9.173   0.865   7.338 -1.4946  0.4270  0.8915
 4401SOL    HW222176   9.052   0.799   7.249 -0.3442 -0.0113 -0.3675
 4402SOL     OW22177   8.573   1.176   3.262  0.1160  0.2614  0.0333
 4402SOL    HW122178   8.557   1.135   3.352 -0.8114  0.2440 -0.1332
 4402SOL    HW222179   8.625   1.112   3.205 -3.5080 -1.8030 -1.0898
 4403SOL     OW22180   6.005   3.758   1.316  0.5319  0.1488  0.3716
 4403SOL    HW122181   6.011   3.829   1.247  0.0593  1.6410  1.8404
 4403SOL    HW222182   6.053   3.787   1.399 -0.5797 -0.7842  1.3605
 4405SOL     OW22183   9.111   6.860   4.513  1.1037  0.2074  0.1323
 4405SOL    HW122184   9.130   6.939   4.455 -0.0502 -0.5467 -1.3141
 4405SOL    HW222185   9.016   6.862   4.543  1.2722 -0.2356  0.7103
 4406SOL     OW22186   3.036   9.500   5.258  0.1916 -0.6005  0.3261
 4406SOL    HW122187   2.944   9.514   5.221 -0.2808 -0.7790  1.4100
 4406SOL    HW222188   3.072   9.587   5.293  0.8181 -0.3398 -0.9301
 4407SOL     OW22189   3.127   5.047   4.604  0.6253  0.4448 -0.9959
 4407SOL    HW122190   3.049   4.987   4.620  1.5913 -0.4475  0.5030
 4407SOL    HW222191   3.100   5.142   4.619  0.3728 -0.0340  1.6609
 4408SOL     OW22192   6.409   8.473   5.760 -0.6362 -0.1767  0.5778
 4408SOL    HW122193   6.496   8.468   5.809 -0.9028 -0.6850  1.0052
 4408SOL    HW222194   6.343   8.523   5.815 -1.3444 -1.9337  1.3680
 4410SOL     OW22195   1.334   9.489   6.644  1.1942  0.2593  0.3359
 4410SOL    HW122196   1.250   9.539   6.664  1.3108  0.7063 -0.2783
 4410SOL    HW222197   1.314   9.413   6.582  0.8719 -0.9885  1.9336
 4411SOL     OW22198   3.647   0.563   3.021 -0.0046  0.0796  0.5791
 4411SOL    HW122199   3.711   0.555   2.945 -0.3737  0.5172  0.2177
 4411SOL    HW222200   3.623   0.472   3.054 -0.1953 -0.1300 -0.1277
 4412SOL     OW22201   2.575   1.248   1.482 -0.1547 -0.7121 -0.1129
 4412SOL    HW122202   2.594   1.182   1.555  1.6387 -0.1220 -0.0077
 4412SOL    HW222203   2.661   1.281   1.445 -1.0461  0.7408 -0.9215
 4415SOL     OW22204   1.756   1.809   0.938  0.1514  0.5256 -0.4323
 4415SOL    HW122205   1.822   1.880   0.965 -0.0711  0.6790 -0.2944
 4415SOL    HW222206   1.665   1.835   0.969  0.4020 -0.8989  1.6242
 4417SOL     OW22207   3.077   2.966   2.886  0.4401 -0.6273  0.9242
 4417SOL    HW122208   3.109   3.018   2.807 -3.4181  0.9695  0.3212
 4417SOL    HW222209   3.097   2.869   2.872 -0.5630 -0.4325 -2.2204
 4419SOL     OW22210   2.919   8.012   4.846  0.0130  0.2293 -0.8845
 4419SOL    HW122211   2.959   7.943   4.906 -0.6309  0.0051 -0.7053
 4419SOL    HW222212   2.990   8.054   4.791  0.9844  2.1027  1.7069
 4421SOL     OW22213   6.311   2.696   1.380 -0.1700  0.3731  0.0181
 4421SOL    HW122214   6.394   2.741   1.347 -1.3918  2.1809 -0.6768
 4421SOL    HW222215   6.257   2.663   1.302  0.2411 -1.4788  0.4897
 4423SOL     OW22216   3.678   1.286   2.192  0.2271 -0.2013  0.1114
 4423SOL    HW122217   3.714   1.374   2.161 -0.5766 -0.6374 -2.2160
 4423SOL    HW222218   3.651   1.293   2.288  2.9259  1.2026  0.7992
 4424SOL     OW22219   6.975   9.084   3.373  0.1243  0.1391  0.0262
 4424SOL    HW122220   7.066   9.044   3.357  0.4908  0.4855  1.1649
 4424SOL    HW222221   6.978   9.140   3.456 -0.3098  2.8001 -1.7215
 4425SOL     OW22222   0.494   4.366   1.568 -0.4498 -0.5976 -0.4216
 4425SOL    HW122223   0.574   4.385   1.625 -0.2872  0.3374 -0.9556
 4425SOL    HW222224   0.412   4.364   1.625 -0.6324  2.8017 -0.4596
 4426SOL     OW22225   8.718   6.781   6.804  0.4276  0.4027 -1.0111
 4426SOL    HW122226   8.737   6.707   6.739  0.0478 -0.7284  0.1560
 4426SOL    HW222227   8.800   6.802   6.856  0.8248  1.5391 -2.0610
 4428SOL     OW22228   2.243   6.404   4.872 -0.1813  0.3238 -0.0696
 4428SOL    HW122229   2.292   6.491   4.861 -1.8140  1.1108 -1.2828
 4428SOL    HW222230   2.198   6.403   4.961  0.2382  0.5022  0.1484
 4429SOL     OW22231   8.728   4.135   4.871  0.1319 -0.3211 -0.2150
 4429SOL    HW122232   8.658   4.140   4.800 -2.4068  0.1575  2.2242
 4429SOL    HW222233   8.726   4.044   4.912  0.2806 -0.0048  0.4940
 4430SOL     OW22234   0.112   6.945   3.442  0.5001  0.5266 -0.1913
 4430SOL    HW122235   0.043   6.943   3.369 -0.6952 -0.6557  0.9463
 4430SOL    HW222236   0.201   6.923   3.403 -0.3374 -1.4077 -1.0805
 4431SOL     OW22237   6.303   4.955   0.977  0.2116 -0.4940  0.0029
 4431SOL    HW122238   6.268   5.043   1.007  1.4130  0.3150 -0.9047
 4431SOL    HW222239   6.230   4.902   0.935 -0.8393 -0.5139  1.8278
 4433SOL     OW22240   9.801   1.818   7.365 -0.0497 -0.2641 -0.4822
 4433SOL    HW122241   9.897   1.799   7.344 -0.0593 -0.1478 -0.6264
 4433SOL    HW222242   9.757   1.858   7.285  0.0185  0.5609 -0.1069
 4435SOL     OW22243   3.262   0.404   3.046 -0.0022  0.1842 -0.5141
 4435SOL    HW122244   3.265   0.501   3.024  3.0410 -0.0179 -1.1737
 4435SOL    HW222245   3.354   0.366   3.043 -1.3187 -3.1113 -1.9570
 4436SOL     OW22246   1.021   1.265   3.815  0.6946  0.1690 -0.1060
 4436SOL    HW122247   1.079   1.343   3.839  0.2419  0.7621 -0.9492
 4436SOL    HW222248   0.945   1.258   3.880  1.1315 -0.0021  0.3926
 4437SOL     OW22249   3.319   6.691   6.718 -0.0590 -0.0950 -0.1000
 4437SOL    HW122250   3.412   6.685   6.757 -0.6076 -0.1629  1.2384
 4437SOL    HW222251   3.257   6.634   6.772 -1.1130  0.8622 -0.2807
 4438SOL     OW22252   8.466   3.687   6.780 -0.1580 -0.2577 -0.5092
 4438SOL    HW122253   8.431   3.612   6.835  1.3406 -1.5095 -1.2352
 4438SOL    HW222254   8.563   3.672   6.761 -0.3902  0.7008 -2.5770
 4439SOL     OW22255   8.801   1.613   3.874 -0.0154  0.2863  0.2379
 4439SOL    HW122256   8.751   1.638   3.791  0.3939  0.7322  0.1253
 4439SOL    HW222257   8.899   1.606   3.854  0.2653  1.7402  0.9680
 4441SOL     OW22258   8.769   4.899   6.643 -0.6553 -0.1329 -0.1046
 4441SOL    HW122259   8.849   4.929   6.695 -0.0242 -1.3573 -0.3430
 4441SOL    HW222260   8.691   4.958   6.663 -0.2926 -0.3004  1.8649
 4442SOL     OW22261   8.030   4.200   4.472 -0.5078  0.0123 -0.1001
 4442SOL    HW122262   8.016   4.104   4.448 -3.1323  0.4623 -0.4789
 4442SOL    HW222263   7.967   4.257   4.421  0.5455  1.9059  0.6440
 4443SOL     OW22264   0.059   1.159   0.037 -0.3848 -0.2328  0.0554
 4443SOL    HW122265   0.049   1.241  -0.019  2.3011  0.0955  0.0129
 4443SOL    HW222266   0.019   1.081  -0.011  0.0113  0.4324 -1.3827
 4444SOL     OW22267   8.531   9.751   6.649  0.0209  0.1162  0.1567
 4444SOL    HW122268   8.477   9.702   6.717  0.3121 -1.2827 -0.6235
 4444SOL    HW222269   8.471   9.784   6.576 -0.0329  0.1560  0.2165
 4445SOL     OW22270   3.185   9.056   7.106  0.2367 -0.1640 -0.4555
 4445SOL    HW122271   3.123   9.096   7.174 -0.7290 -0.1946 -1.2963
 4445SOL    HW222272   3.170   8.957   7.102 -0.2149 -0.0682 -1.2134
 4446SOL     OW22273   6.114   8.478   2.204 -0.2596  0.0473 -0.4071
 4446SOL    HW122274   6.183   8.465   2.276 -0.1039 -1.3647 -0.7942
 4446SOL    HW222275   6.160   8.496   2.117 -0.3875 -0.2572 -0.5390
 4448SOL     OW22276   2.620   8.387   3.215  0.5558  0.0943 -0.2910
 4448SOL    HW122277   2.561   8.323   3.165 -0.2791  0.2236  0.4974
 4448SOL    HW222278   2.693   8.419   3.156 -0.3445  0.1497 -1.3925
 4449SOL     OW22279   0.855   2.672   5.259 -0.1554 -0.0339 -0.1810
 4449SOL    HW122280   0.853   2.737   5.335 -0.5891 -0.1358 -0.1021
 4449SOL    HW222281   0.816   2.715   5.178  2.9037  1.0394 -1.1237
 4450SOL     OW22282   7.171   3.904   3.618  0.7018  0.2513  0.1756
 4450SOL    HW122283   7.168   3.846   3.536 -0.1397  0.5508 -0.0138
 4450SOL    HW222284   7.227   3.984   3.599 -0.2010  0.7571 -0.4126
 4451SOL     OW22285   9.337   4.534   7.552 -0.6984 -0.1603  0.1105
 4451SOL    HW122286   9.351   4.492   7.462 -3.2804 -0.6162 -0.1449
 4451SOL    HW222287   9.353   4.632   7.546 -2.3795  0.0561 -1.2641
 4452SOL     OW22288   8.428   3.298   3.248  0.1117  0.6555 -0.3542
 4452SOL    HW122289   8.499   3.231   3.226  0.0396  0.3274  0.3815
 4452SOL    HW222290   8.384   3.329   3.164  0.2030 -0.1626 -0.7104
 4453SOL     OW22291   1.668   9.033   6.547  0.1519  0.4538  0.3056
 4453SOL    HW122292   1.692   9.128   6.525  0.3793  0.4345  0.4731
 4453SOL    HW222293   1.752   8.980   6.562 -0.0169  0.9630  3.3538
 4454SOL     OW22294   7.136   0.833   4.749 -0.0383  0.1446 -0.3446
 4454SOL    HW122295   7.059   0.895   4.764 -0.2522 -0.1306 -0.3144
 4454SOL    HW222296   7.103   0.746   4.712  0.1156 -0.4573  0.9112
 4455SOL     OW22297   6.230   8.820   7.512  0.0190 -0.1262  0.6039
 4455SOL    HW122298   6.190   8.910   7.533  2.2879  0.7085  1.4400
 4455SOL    HW222299   6.159   8.762   7.472 -1.1921  2.4591 -1.2212
 4456SOL     OW22300   0.955   7.909   1.292  0.2669  0.4265 -0.3156
 4456SOL    HW122301   1.029   7.963   1.252  0.7884  1.8238  2.4104
 4456SOL    HW222302   0.990   7.854   1.367 -1.2493  0.2451  0.2782
 4457SOL     OW22303   8.348   5.114   4.877 -0.3663 -0.1523  0.6520
 4457SOL    HW122304   8.411   5.081   4.807 -1.7867 -0.3579 -0.5673
 4457SOL    HW222305   8.269   5.052   4.883 -0.2424 -0.1706  2.4893
 4458SOL     OW22306   7.480   1.093   2.101 -0.3803  0.1654  0.3102
 4458SOL    HW122307   7.547   1.134   2.040 -0.2644 -2.0318 -1.1165
 4458SOL    HW222308   7.528   1.044   2.174 -0.4423  0.0270  0.2592
 4459SOL     OW22309   0.307   0.156   2.949  0.3571 -0.1078 -0.0323
 4459SOL    HW122310   0.232   0.106   2.991  1.2793  0.8699  2.8490
 4459SOL    HW222311   0.277   0.248   2.926  0.2873 -0.1590 -0.1484
 4460SOL     OW22312   8.887   6.315   1.846  0.2222  0.4594  0.2317
 4460SOL    HW122313   8.927   6.346   1.932  0.7411  0.9749 -0.1845
 4460SOL    HW222314   8.788   6.328   1.849  0.2782  0.8340  0.6090
 4461SOL     OW22315   4.679   9.051   0.556  0.3064  0.0787  0.0405
 4461SOL    HW122316   4.776   9.056   0.581 -0.0514  0.8034  1.3425
 4461SOL    HW222317   4.670   9.050   0.456  1.6160  0.9212 -0.0972
 4462SOL     OW22318   0.167   6.761   1.596  0.4216  0.2637 -0.4476
 4462SOL    HW122319   0.173   6.743   1.498 -2.7319 -0.8936 -0.4825
 4462SOL    HW222320   0.196   6.680   1.647 -2.0698 -0.7358 -0.5198
 4464SOL     OW22321   7.549   4.486   2.414 -0.2455  0.1651 -0.7910
 4464SOL    HW122322   7.458   4.515   2.444  0.6309  1.2129  0.9459
 4464SOL    HW222323   7.611   4.484   2.492  0.7519 -2.5351 -1.5833
 4465SOL     OW22324   4.546   0.707   2.140 -0.0026 -0.1055 -0.6016
 4465SOL    HW122325   4.548   0.616   2.099 -0.2296 -0.1369 -0.5411
 4465SOL    HW222326   4.628   0.757   2.112  0.6039 -0.6668  0.1607
 4466SOL     OW22327   1.898   0.450   6.185 -0.4612 -0.3182  0.4166
 4466SOL    HW122328   1.975   0.486   6.132  1.1997 -1.8558  1.6809
 4466SOL    HW222329   1.921   0.453   6.282 -2.2139 -0.3746  0.8508
 4467SOL     OW22330   9.449   2.103   6.295  0.4447  0.2045 -0.6216
 4467SOL    HW122331   9.434   2.185   6.350  0.8446 -0.0181 -0.1796
 4467SOL    HW222332   9.367   2.083   6.241 -0.2466 -0.0366  0.4994
 4468SOL     OW22333   0.697   1.062   2.571  0.0607  0.0995 -0.6517
 4468SOL    HW122334   0.612   1.054   2.624 -0.3700  0.6968 -1.2354
 4468SOL    HW222335   0.696   1.149   2.522  1.3745  0.4612 -0.0372
 4470SOL     OW22336   1.097   0.012   4.229  0.3927 -0.1927 -0.3647
 4470SOL    HW122337   1.144  -0.071   4.200  0.5808 -0.4630  0.6820
 4470SOL    HW222338   1.030  -0.011   4.301 -1.8106  0.0823 -2.2600
 4471SOL     OW22339   9.269   3.539   7.827 -0.1288  0.0446 -0.3205
 4471SOL    HW122340   9.234   3.573   7.740  0.3645  1.7240  0.1186
 4471SOL    HW222341   9.193   3.509   7.884 -0.5951  0.6204 -0.6283
 4472SOL     OW22342   2.555   3.028   5.657  0.2870 -0.0233 -0.4476
 4472SOL    HW122343   2.521   3.118   5.633 -1.4447 -0.8714 -1.2422
 4472SOL    HW222344   2.634   3.037   5.718 -0.7140  1.9923  0.5867
 4474SOL     OW22345   8.091   8.506   1.652  0.3039 -0.0660  0.5601
 4474SOL    HW122346   8.020   8.556   1.702 -0.9031 -0.1896 -1.0140
 4474SOL    HW222347   8.162   8.477   1.717 -1.7010 -1.0512  2.4074
 4475SOL     OW22348   2.631   8.406   2.030  0.1229  0.0522 -0.0208
 4475SOL    HW122349   2.619   8.396   1.931 -0.7978 -1.3304  0.2352
 4475SOL    HW222350   2.674   8.495   2.048  0.3231  0.3152 -1.6576
 4478SOL     OW22351   0.202   8.732   5.669  0.4040  0.2651 -0.3313
 4478SOL    HW122352   0.106   8.710   5.651  0.5111  1.5826 -2.7081
 4478SOL    HW222353   0.227   8.700   5.760 -1.7799 -1.6998 -0.3803
 4480SOL     OW22354   9.246   5.888   1.546  0.0709 -0.3378  0.2234
 4480SOL    HW122355   9.329   5.884   1.490  0.1218 -0.6925  0.3247
 4480SOL    HW222356   9.171   5.843   1.497 -0.4154  1.2193 -0.4786
 4481SOL     OW22357   2.780   3.996   7.232 -0.3319 -0.2279  0.3867
 4481SOL    HW122358   2.745   3.968   7.322  0.1332 -0.0090  0.6345
 4481SOL    HW222359   2.847   4.068   7.244  0.7763 -1.1805 -0.0508
 4482SOL     OW22360   9.956   4.690   5.511 -0.4277  0.3875  0.2077
 4482SOL    HW122361   9.884   4.679   5.443  0.1266  0.7120 -0.4344
 4482SOL    HW222362   9.969   4.787   5.530  0.4299  0.3788 -0.3162
 4483SOL     OW22363   8.312   7.493   6.609  0.2300  0.1113  0.2747
 4483SOL    HW122364   8.403   7.476   6.648 -0.2847 -1.3286  0.8603
 4483SOL    HW222365   8.243   7.486   6.681 -0.6869 -2.0201 -0.7738
 4484SOL     OW22366   0.525   8.870   6.702 -0.5609  0.0925  0.4184
 4484SOL    HW122367   0.465   8.885   6.781 -2.2430 -2.1644 -0.3949
 4484SOL    HW222368   0.528   8.773   6.680  4.3168 -0.0182  1.0945
 4485SOL     OW22369   9.982   6.183   7.872  0.2761 -0.5756  0.1460
 4485SOL    HW122370  10.051   6.155   7.805 -2.0914 -2.9989 -1.4360
 4485SOL    HW222371   9.972   6.111   7.941 -0.1820  0.0619  0.7523
 4488SOL     OW22372   3.733   7.646   1.934 -0.0780 -0.1654 -0.2532
 4488SOL    HW122373   3.828   7.662   1.908  0.2073 -0.2238  0.7070
 4488SOL    HW222374   3.708   7.711   2.007 -1.1505  0.6621 -1.3404
 4489SOL     OW22375   2.351   0.710   2.038 -0.0497  0.1886 -0.1399
 4489SOL    HW122376   2.433   0.656   2.055  0.7520  0.4555 -2.8456
 4489SOL    HW222377   2.273   0.668   2.083  1.6634  0.3565  3.1390
 4490SOL     OW22378   1.896   5.222   6.420 -0.3058 -0.2494  0.1596
 4490SOL    HW122379   1.986   5.211   6.460  0.5616  1.5887 -1.2109
 4490SOL    HW222380   1.834   5.152   6.456  0.9806  0.0324  2.9987
 4493SOL     OW22381   0.992   0.096   5.406  0.2737 -0.1383 -0.0074
 4493SOL    HW122382   0.991   0.191   5.374 -1.4717  0.0870  0.6760
 4493SOL    HW222383   1.055   0.043   5.349  2.4647  1.7332  0.5815
 4494SOL     OW22384   4.214   0.460   0.483  0.5762 -0.5313  1.0650
 4494SOL    HW122385   4.255   0.500   0.565  1.5814  1.0781 -0.1947
 4494SOL    HW222386   4.229   0.361   0.484  0.3811 -0.5734  2.9184
 4495SOL     OW22387   4.295   7.682   0.056 -0.3078  0.0621 -0.2153
 4495SOL    HW122388   4.220   7.637   0.007  0.6685 -1.2689 -0.4854
 4495SOL    HW222389   4.353   7.731  -0.009  0.9824 -1.6962 -0.4130
 4497SOL     OW22390   7.565   7.832   4.554 -0.2975 -0.4302  0.0437
 4497SOL    HW122391   7.479   7.826   4.604  0.4836  0.0121  1.4631
 4497SOL    HW222392   7.552   7.889   4.472 -1.3574 -0.4065  0.2216
 4498SOL     OW22393   6.070   0.017   5.654 -0.3599  0.1189  0.3300
 4498SOL    HW122394   5.972   0.021   5.631  0.4197 -0.9860 -3.5714
 4498SOL    HW222395   6.088  -0.065   5.709 -1.5380  0.0756  0.6770
 4499SOL     OW22396   1.018   1.054   0.790  0.2717  0.1629 -0.0959
 4499SOL    HW122397   1.091   1.100   0.839  0.1547 -0.0301  0.2573
 4499SOL    HW222398   1.041   1.048   0.693 -0.8772  3.3833 -0.6276
 4500SOL     OW22399   4.484   3.594   1.932  0.2799  0.3420 -0.5114
 4500SOL    HW122400   4.388   3.569   1.915  0.2652  1.1893 -1.6646
 4500SOL    HW222401   4.521   3.643   1.853  2.1767 -1.4410 -0.7683
 4501SOL     OW22402   5.958   0.289   4.921  0.0975 -0.9242 -0.1717
 4501SOL    HW122403   5.949   0.239   4.836  1.1042 -1.7357  0.1776
 4501SOL    HW222404   6.010   0.373   4.905 -0.1579 -0.8205 -0.4528
 4502SOL     OW22405   1.717   3.686   1.331  0.6427 -0.5020  0.2745
 4502SOL    HW122406   1.791   3.647   1.387 -0.3394 -0.3374  1.7118
 4502SOL    HW222407   1.664   3.751   1.386 -1.0614 -1.2104 -0.4972
 4503SOL     OW22408   8.335   8.923   1.433 -0.2849 -0.1641  0.4107
 4503SOL    HW122409   8.262   8.878   1.484 -0.2130 -0.9928 -0.2042
 4503SOL    HW222410   8.385   8.855   1.379  0.7697  0.4334  0.6178
 4505SOL     OW22411   4.027   5.112   3.966 -0.1729 -0.1473  0.1805
 4505SOL    HW122412   3.998   5.017   3.976  1.4556 -0.5487  1.2737
 4505SOL    HW222413   4.110   5.128   4.020 -0.3551  1.8663 -0.0802
 4506SOL     OW22414   9.675   2.789   5.300 -0.0893 -0.1874 -0.2698
 4506SOL    HW122415   9.733   2.731   5.242  0.9759  1.5438 -0.9685
 4506SOL    HW222416   9.722   2.875   5.319 -1.5177  0.3336  1.0269
 4507SOL     OW22417   2.849   1.300   5.913  0.1117  0.1240  0.1952
 4507SOL    HW122418   2.827   1.380   5.856  0.4593  0.3703  0.4094
 4507SOL    HW222419   2.915   1.243   5.865  2.1250  1.4720  1.2899
 4508SOL     OW22420   9.724   4.830   3.134 -0.8489  0.0984 -0.2326
 4508SOL    HW122421   9.624   4.829   3.133 -0.8559  0.5123  0.0324
 4508SOL    HW222422   9.757   4.925   3.134 -0.4614 -0.0329 -0.0338
 4509SOL     OW22423   9.805   7.694   2.079  0.2235  0.3978 -0.1136
 4509SOL    HW122424   9.733   7.735   2.134  0.3077  2.1990 -1.2927
 4509SOL    HW222425   9.767   7.620   2.024 -0.4307  0.4000  0.3360
 4510SOL     OW22426   6.876   0.441   5.899  0.4292  0.1689 -0.4436
 4510SOL    HW122427   6.916   0.522   5.942  1.5044 -0.8593  0.4992
 4510SOL    HW222428   6.883   0.450   5.800 -0.2103  1.6088 -0.3767
 4511SOL     OW22429   7.190   1.728   1.862 -0.4502  0.4077 -0.1422
 4511SOL    HW122430   7.190   1.668   1.942 -0.5995  0.4088 -0.1406
 4511SOL    HW222431   7.195   1.674   1.779 -0.4598  0.3978 -0.1364
 4512SOL     OW22432   5.201   7.389   2.355  0.0039  0.0443 -0.2582
 4512SOL    HW122433   5.176   7.396   2.259  0.9947  0.8144 -0.4682
 4512SOL    HW222434   5.272   7.319   2.366  1.9510  1.9283 -0.5149
 4513SOL     OW22435   0.446   3.320   5.065  0.0047 -0.6681  0.2630
 4513SOL    HW122436   0.396   3.238   5.093 -1.1562  0.6515  2.1552
 4513SOL    HW222437   0.389   3.401   5.079  1.9527  0.6876  0.6162
 4514SOL     OW22438   8.934   7.388   2.096 -0.5935 -0.0385  0.2817
 4514SOL    HW122439   8.894   7.443   2.023 -3.2654 -0.9067  1.0285
 4514SOL    HW222440   9.021   7.349   2.064 -0.6900  1.2573 -1.6800
 4515SOL     OW22441   2.683   5.083   2.024  0.6084  0.0218 -0.2659
 4515SOL    HW122442   2.721   5.169   1.989  0.3556  0.3878  0.3489
 4515SOL    HW222443   2.615   5.049   1.960  0.9793  0.0831 -0.6988
 4516SOL     OW22444   9.081   0.287   6.664  0.3284 -0.4740 -0.0239
 4516SOL    HW122445   9.006   0.267   6.728 -0.7604  1.0929 -0.7830
 4516SOL    HW222446   9.140   0.207   6.657 -0.7544 -1.4246  1.2908
 4517SOL     OW22447   9.351   8.451   3.535 -0.1696  0.3374 -0.2405
 4517SOL    HW122448   9.394   8.535   3.567 -0.2991  0.6084 -0.7602
 4517SOL    HW222449   9.421   8.381   3.519  0.1156  0.8441 -1.2867
 4518SOL     OW22450   0.923   6.812   7.024  0.1676 -0.1961 -0.3009
 4518SOL    HW122451   0.874   6.899   7.031  0.5999  0.0010  0.3667
 4518SOL    HW222452   0.929   6.785   6.928  0.7567  0.9488 -0.6080
 4521SOL     OW22453   9.184   8.703   4.309  0.2222 -0.0746 -0.3575
 4521SOL    HW122454   9.197   8.619   4.361 -0.0354  0.1465  0.0586
 4521SOL    HW222455   9.131   8.683   4.226 -0.5494 -0.1699  0.1579
 4522SOL     OW22456   8.394   8.820   0.519 -0.4920 -0.8012 -0.4643
 4522SOL    HW122457   8.377   8.847   0.424  0.6457 -0.9371 -0.7081
 4522SOL    HW222458   8.338   8.877   0.580  0.4047  0.7624 -1.0855
 4523SOL     OW22459   5.643   9.864   5.607 -0.0702 -0.1476 -0.1507
 4523SOL    HW122460   5.686   9.953   5.623 -1.2499  0.3738  0.1926
 4523SOL    HW222461   5.680   9.823   5.524  0.6551  0.5550 -0.1737
 4524SOL     OW22462   3.613   6.951   7.703  0.2610 -0.0808  0.0041
 4524SOL    HW122463   3.669   7.028   7.671 -0.5249  0.1197 -0.9285
 4524SOL    HW222464   3.669   6.890   7.758  1.2202  0.4990 -0.3116
 4525SOL     OW22465   9.532   8.123   5.342 -0.1037  0.4101  0.4991
 4525SOL    HW122466   9.436   8.106   5.323  0.3445  1.1712 -2.8213
 4525SOL    HW222467   9.587   8.050   5.302  0.7915  0.8261  0.9500
 4526SOL     OW22468   6.577   1.452   5.189  0.0627 -0.3167 -0.3216
 4526SOL    HW122469   6.592   1.393   5.268 -0.4468 -1.3072 -0.9382
 4526SOL    HW222470   6.489   1.429   5.147 -0.7434  1.7659  0.1708
 4527SOL     OW22471   1.009   2.995   1.185 -0.1571  0.1747  0.1947
 4527SOL    HW122472   1.089   3.042   1.223 -0.1872  0.8276 -0.5465
 4527SOL    HW222473   0.994   3.025   1.091 -0.3463 -1.1194 -0.1934
 4528SOL     OW22474   8.533   5.019   6.627  0.2023 -0.0362  0.6168
 4528SOL    HW122475   8.470   4.941   6.620 -0.0133  0.1967 -0.1342
 4528SOL    HW222476   8.491   5.091   6.682 -0.1654  0.0912  0.1747
 4529SOL     OW22477   3.420   4.714   7.556  0.4960  0.4924 -0.2095
 4529SOL    HW122478   3.436   4.809   7.526 -1.5014  1.1678  0.7332
 4529SOL    HW222479   3.458   4.701   7.647  0.2319  0.5781 -0.0856
 4530SOL     OW22480   9.638   0.591   6.550  0.1961 -0.0067  0.3355
 4530SOL    HW122481   9.651   0.630   6.641 -0.2890 -1.8363  1.2121
 4530SOL    HW222482   9.587   0.506   6.557  0.9984 -0.6753 -1.5454
 4531SOL     OW22483   6.453   8.333   5.370  0.2614  0.1725  0.4976
 4531SOL    HW122484   6.482   8.255   5.316  1.1286  0.7236  0.1555
 4531SOL    HW222485   6.445   8.306   5.466 -1.6212 -0.8923  0.0718
 4532SOL     OW22486   8.132   1.648   0.091 -0.3595 -0.0689 -1.0979
 4532SOL    HW122487   8.182   1.599   0.163  0.1811 -1.3946 -2.3580
 4532SOL    HW222488   8.038   1.664   0.122 -0.3952 -1.4192 -0.4361
 4533SOL     OW22489   3.403   9.024   5.960 -0.3981  0.0074  0.1911
 4533SOL    HW122490   3.338   9.078   6.013 -1.0327 -0.5530 -0.0108
 4533SOL    HW222491   3.354   8.975   5.888  0.2210 -0.5892  0.1774
 4534SOL     OW22492   7.324   7.084   7.283  0.1021  0.0955 -0.1716
 4534SOL    HW122493   7.375   7.088   7.369 -0.9720  1.3557  0.4173
 4534SOL    HW222494   7.227   7.071   7.302 -0.1662  0.5467 -1.1880
 4535SOL     OW22495   1.205   4.310   5.697 -0.3826  0.1503  0.2442
 4535SOL    HW122496   1.189   4.408   5.711 -1.3498 -0.3208  2.7162
 4535SOL    HW222497   1.281   4.280   5.756 -0.4186 -0.6759 -0.1260
 4537SOL     OW22498   0.431   2.652   1.749 -0.0151  0.1714 -0.0943
 4537SOL    HW122499   0.415   2.708   1.830  0.1555 -0.2568  0.2319
 4537SOL    HW222500   0.522   2.674   1.711 -0.0888  0.3597 -0.1638
 4540SOL     OW22501   3.821   1.194   0.543 -0.1962 -0.1176  0.1532
 4540SOL    HW122502   3.807   1.095   0.533 -0.0764 -0.1666  0.4794
 4540SOL    HW222503   3.917   1.216   0.524  0.2680 -0.3390  2.1354
 4542SOL     OW22504   3.696   7.084   6.038 -0.6733 -0.3825 -0.7133
 4542SOL    HW122505   3.618   7.044   5.990 -1.5157 -0.2718  0.5252
 4542SOL    HW222506   3.728   7.019   6.108 -1.1187  0.4915  0.3166
 4544SOL     OW22507   0.885   9.883   5.793 -0.3295  0.2189 -0.1754
 4544SOL    HW122508   0.955   9.812   5.802 -2.2513 -1.6598  0.4095
 4544SOL    HW222509   0.839   9.874   5.705 -0.6237  0.6988 -0.0724
 4545SOL     OW22510   8.188   9.936   7.494 -0.6578 -0.6263 -0.2350
 4545SOL    HW122511   8.115   9.934   7.425  0.0377  0.1018 -1.0052
 4545SOL    HW222512   8.240  10.021   7.485 -0.0846 -0.8767  0.6940
 4546SOL     OW22513   0.813   5.958   3.112 -0.1182 -0.5152 -0.2980
 4546SOL    HW122514   0.861   5.973   3.199  0.9935  0.4550 -1.0422
 4546SOL    HW222515   0.731   5.904   3.127  0.0249 -0.2942  1.3686
 4548SOL     OW22516   4.109   2.823   3.143 -0.5308  0.0933 -0.1538
 4548SOL    HW122517   4.039   2.754   3.122 -0.2604  0.2921 -1.8165
 4548SOL    HW222518   4.136   2.868   3.058  2.8312 -1.1591  0.1856
 4549SOL     OW22519   5.386   0.682   3.306  0.3687 -0.8587 -0.5985
 4549SOL    HW122520   5.323   0.629   3.248 -0.7584  0.7719 -0.9040
 4549SOL    HW222521   5.434   0.749   3.249  1.0365 -0.8584 -0.0392
 4550SOL     OW22522   8.471   0.888   7.766  0.0001  0.2290 -0.1687
 4550SOL    HW122523   8.509   0.889   7.858 -0.4200  1.2748  0.0042
 4550SOL    HW222524   8.413   0.969   7.753  1.5443  1.0829 -1.9721
 4551SOL     OW22525   1.118   5.084   4.931  0.3753  0.3447  0.0566
 4551SOL    HW122526   1.074   5.108   4.844 -0.9008 -1.0740  0.2918
 4551SOL    HW222527   1.061   5.018   4.980  2.5369 -1.1601  0.6151
 4552SOL     OW22528   9.324   7.548   4.008 -0.4125  0.3700  0.4037
 4552SOL    HW122529   9.296   7.491   4.085  0.0853 -1.7792 -0.9896
 4552SOL    HW222530   9.368   7.631   4.043 -1.7682  0.2575  2.4537
 4553SOL     OW22531   9.137   0.945   3.694 -0.0617  0.9247  0.3016
 4553SOL    HW122532   9.194   0.872   3.656 -0.5407 -0.3661  1.9702
 4553SOL    HW222533   9.083   0.987   3.622 -1.3386 -1.7897 -0.4101
 4555SOL     OW22534   8.614   5.817   3.682  0.4110  0.1525 -0.2166
 4555SOL    HW122535   8.652   5.812   3.774  0.9396 -0.0839 -0.4421
 4555SOL    HW222536   8.603   5.912   3.655 -0.1158  0.2184  0.2433
 4556SOL     OW22537   8.472   2.791   0.788 -0.4035  0.6203  0.1985
 4556SOL    HW122538   8.533   2.862   0.753 -0.8724  0.2729 -1.3686
 4556SOL    HW222539   8.518   2.740   0.861  1.4882 -0.1368 -1.4660
 4557SOL     OW22540   9.328   9.707   6.254 -0.4196 -0.9092  0.0557
 4557SOL    HW122541   9.240   9.661   6.265 -0.6910 -0.5504 -0.5701
 4557SOL    HW222542   9.397   9.662   6.311 -1.1764 -0.7176  1.1220
 4558SOL     OW22543   1.387   8.496   0.172 -0.3498 -0.0552 -0.0457
 4558SOL    HW122544   1.296   8.516   0.210 -0.4904  0.9146 -0.8900
 4558SOL    HW222545   1.399   8.396   0.166 -1.6154 -0.1816 -0.5590
 4559SOL     OW22546   0.280   8.289   2.658 -0.4656  0.7332 -0.6230
 4559SOL    HW122547   0.198   8.262   2.606  0.0996  0.1555 -1.2221
 4559SOL    HW222548   0.278   8.245   2.748 -1.7510  2.2182  0.0954
 4561SOL     OW22549   2.206   1.668   5.951  0.2219  0.6546  0.2018
 4561SOL    HW122550   2.196   1.707   6.043 -1.5425  0.6625  0.0267
 4561SOL    HW222551   2.192   1.569   5.956 -2.0152  0.9212 -0.3625
 4562SOL     OW22552   2.693   3.291   0.110  0.5303 -0.0948 -0.2345
 4562SOL    HW122553   2.599   3.322   0.124  0.3047 -0.9374  0.1853
 4562SOL    HW222554   2.750   3.368   0.085 -0.1467  0.5390  0.1433
 4563SOL     OW22555   8.436   0.266   1.255  0.8693 -0.2925  0.4266
 4563SOL    HW122556   8.493   0.275   1.174 -0.1484 -1.0456 -0.3854
 4563SOL    HW222557   8.420   0.169   1.275  1.2863 -0.1221  1.6533
 4564SOL     OW22558   9.877   5.375   6.304  0.1300 -0.7253  0.0782
 4564SOL    HW122559   9.882   5.349   6.400  1.6640 -1.8866 -0.2905
 4564SOL    HW222560   9.969   5.381   6.266 -0.4063  0.7661 -1.0632
 4565SOL     OW22561   8.340   4.144   2.597 -0.5162  0.6065 -0.4231
 4565SOL    HW122562   8.405   4.174   2.526 -1.1714  1.5528 -0.6313
 4565SOL    HW222563   8.251   4.126   2.555 -0.6643  0.2919  0.0230
 4566SOL     OW22564   3.649   3.172   2.013  0.6620 -0.4535  0.0067
 4566SOL    HW122565   3.722   3.236   2.038  0.0007  0.0180  0.7724
 4566SOL    HW222566   3.565   3.224   1.993  0.4237 -1.0149 -0.4674
 4567SOL     OW22567   8.443   5.635   7.844 -0.1587  0.5372  0.1636
 4567SOL    HW122568   8.349   5.662   7.867 -0.2451  0.1222  0.3245
 4567SOL    HW222569   8.507   5.705   7.873 -0.2894  0.1216  1.4761
 4568SOL     OW22570   2.792   9.087   5.484 -0.5120  0.1914  0.6514
 4568SOL    HW122571   2.851   9.161   5.451  0.1742  0.2710  2.0066
 4568SOL    HW222572   2.848   9.006   5.502 -1.3437 -0.8579 -1.3723
 4569SOL     OW22573   9.552   8.592   0.616  0.2484  0.1667 -0.3000
 4569SOL    HW122574   9.546   8.666   0.684  0.7743  0.6883 -0.8168
 4569SOL    HW222575   9.463   8.577   0.575 -0.3592 -0.9863  1.3752
 4570SOL     OW22576   3.943   4.989   5.865  0.1419 -0.5567 -0.1030
 4570SOL    HW122577   3.924   4.931   5.786  1.5630 -0.8468 -0.2334
 4570SOL    HW222578   3.923   4.939   5.949 -0.9216 -0.4047 -0.2500
 4571SOL     OW22579   9.320   4.118   3.776 -0.3260  0.4965 -0.3578
 4571SOL    HW122580   9.411   4.085   3.749  0.9427  2.8612  0.9106
 4571SOL    HW222581   9.286   4.181   3.707 -0.0719  1.2483  0.1998
 4572SOL     OW22582   9.189   5.471   3.462 -0.1702  0.1087  0.0638
 4572SOL    HW122583   9.188   5.401   3.534 -1.4262 -0.8895 -0.9027
 4572SOL    HW222584   9.171   5.561   3.502  1.0047 -0.1637  1.2530
 4573SOL     OW22585   7.963   1.930   0.808 -0.0229  0.0249  0.0353
 4573SOL    HW122586   7.902   2.004   0.837 -0.0931 -0.8090  2.1022
 4573SOL    HW222587   8.054   1.946   0.846  0.3407 -0.1851 -0.7455
 4574SOL     OW22588   8.906   1.053   3.477 -0.0707  0.5328 -0.4315
 4574SOL    HW122589   8.908   0.977   3.412 -1.7607  1.1243 -1.2240
 4574SOL    HW222590   8.811   1.067   3.508  0.8249 -0.4123  2.9974
 4575SOL     OW22591   6.546   3.259   0.081 -0.0794  0.0047 -0.3952
 4575SOL    HW122592   6.485   3.229   0.155  1.9823 -0.0046  1.3558
 4575SOL    HW222593   6.521   3.351   0.052 -0.5439  0.2634  0.7692
 4576SOL     OW22594   1.609   6.927   0.677  0.1655  0.4349  0.7301
 4576SOL    HW122595   1.681   6.996   0.664  0.3038  0.0903 -0.3565
 4576SOL    HW222596   1.651   6.837   0.685 -0.1039  0.3146  0.7947
 4577SOL     OW22597   3.462   3.525   0.612  0.0506 -0.1247 -0.7013
 4577SOL    HW122598   3.399   3.515   0.535 -1.9070  0.6223  0.7722
 4577SOL    HW222599   3.425   3.479   0.692  0.9417  1.0910  0.4420
 4578SOL     OW22600   7.578   8.399   6.485 -0.7429 -0.0301  0.2877
 4578SOL    HW122601   7.491   8.442   6.463 -1.4567 -0.6766  1.8180
 4578SOL    HW222602   7.575   8.360   6.577  1.8160  1.6737  1.1598
 4579SOL     OW22603   0.120   0.414   1.941  0.2963 -0.1004  0.5313
 4579SOL    HW122604   0.178   0.437   2.020  1.6909  0.8254 -0.7207
 4579SOL    HW222605   0.174   0.424   1.857 -2.0578  2.1459 -0.7860
 4582SOL     OW22606   5.966   7.693   4.910 -0.4985 -0.0511  1.0352
 4582SOL    HW122607   6.025   7.721   4.986  0.2582  0.1403  0.3813
 4582SOL    HW222608   6.022   7.666   4.832 -1.2442 -1.6102  1.0121
 4583SOL     OW22609   3.042   8.670   4.820 -0.0489 -0.1957  0.5803
 4583SOL    HW122610   2.978   8.670   4.743  0.3413 -1.1549  0.2556
 4583SOL    HW222611   3.032   8.756   4.870 -1.7737 -0.4395  0.6928
 4584SOL     OW22612   3.451   6.845   0.414 -0.0543  0.4811 -0.0376
 4584SOL    HW122613   3.533   6.878   0.460 -1.8769  3.3660  1.3128
 4584SOL    HW222614   3.392   6.799   0.481 -1.2203  1.7644 -0.1664
 4586SOL     OW22615   2.301   6.281   0.637 -0.4803 -0.7413 -0.7999
 4586SOL    HW122616   2.284   6.368   0.591  0.0195 -1.0146 -1.5175
 4586SOL    HW222617   2.214   6.239   0.662 -0.6954  1.3750  2.2653
 4588SOL     OW22618   9.318   8.395   1.789 -0.0863  0.2012  0.3356
 4588SOL    HW122619   9.282   8.327   1.854  0.1931 -1.6553 -1.3917
 4588SOL    HW222620   9.417   8.404   1.802  0.1282 -0.8845 -0.4316
 4589SOL     OW22621   0.550   9.903   1.785  0.0153 -0.0969 -0.6126
 4589SOL    HW122622   0.502   9.962   1.720 -0.1916 -1.1264 -1.4158
 4589SOL    HW222623   0.609   9.959   1.844 -1.8251  1.1443  0.1074
 4590SOL     OW22624   7.649   3.356   2.512 -0.1655 -0.0252  0.3795
 4590SOL    HW122625   7.705   3.297   2.455  0.2380 -0.8932  1.6645
 4590SOL    HW222626   7.557   3.317   2.519 -0.1702  0.0018  0.4589
 4591SOL     OW22627   1.608   7.530   2.749  0.2665 -0.1198 -0.3648
 4591SOL    HW122628   1.592   7.525   2.848  0.3634  1.1617 -0.2796
 4591SOL    HW222629   1.537   7.477   2.701 -0.2994 -0.0075  0.3396
 4592SOL     OW22630   0.548   7.938   5.297  0.9714 -0.4524 -0.1865
 4592SOL    HW122631   0.615   7.864   5.286 -0.0037 -1.3136 -0.3689
 4592SOL    HW222632   0.467   7.917   5.243  0.6600  0.7248 -0.1727
 4593SOL     OW22633   4.268   8.338   6.757  0.0495 -0.2725  0.3548
 4593SOL    HW122634   4.334   8.380   6.695 -1.5244  1.4739 -0.2020
 4593SOL    HW222635   4.217   8.267   6.710  0.2256 -0.3146  0.2312
 4595SOL     OW22636   9.665   9.163   7.290 -0.4741 -0.1636  0.4336
 4595SOL    HW122637   9.675   9.117   7.202 -1.4374 -0.8098  0.6498
 4595SOL    HW222638   9.678   9.097   7.364 -0.4904  0.2020  0.7606
 4596SOL     OW22639   3.520   5.826   6.236  0.2375 -0.7706  0.1339
 4596SOL    HW122640   3.488   5.886   6.309  1.7367 -0.4849  0.5660
 4596SOL    HW222641   3.559   5.743   6.275 -0.0706 -1.1692 -0.3899
 4598SOL     OW22642   9.077   4.880   4.037 -0.0523  0.5700  0.3270
 4598SOL    HW122643   9.070   4.979   4.021  1.1607  0.5489 -0.3773
 4598SOL    HW222644   9.042   4.859   4.128  2.8574  2.1140  1.8654
 4599SOL     OW22645   2.282   1.233   1.890 -0.0833  0.3272 -0.8565
 4599SOL    HW122646   2.195   1.186   1.903 -1.0038  1.9870 -0.8207
 4599SOL    HW222647   2.266   1.332   1.883  1.9338  0.7857  0.4782
 4600SOL     OW22648   2.563   5.418   4.176  0.2236 -0.0814 -0.6478
 4600SOL    HW122649   2.524   5.453   4.091 -0.4049 -2.3305 -1.3253
 4600SOL    HW222650   2.661   5.437   4.177  0.0195  1.0925 -1.2737
 4601SOL     OW22651   9.048   0.745   0.446  0.4195  0.3817  0.1708
 4601SOL    HW122652   9.143   0.721   0.467  0.1577 -0.4661  0.4137
 4601SOL    HW222653   9.036   0.844   0.455  1.7498  0.7409 -1.7973
 4602SOL     OW22654   7.919   3.633   5.006  0.5564 -0.4588  0.0628
 4602SOL    HW122655   8.000   3.642   5.063 -0.2125 -2.9278  1.6024
 4602SOL    HW222656   7.920   3.544   4.960 -0.6866 -0.0047 -0.8753
 4604SOL     OW22657   2.989   3.991   6.862 -0.0442 -0.1927 -0.2734
 4604SOL    HW122658   2.985   3.937   6.778 -0.1743  0.4833 -0.7092
 4604SOL    HW222659   3.078   4.035   6.869  0.0511 -0.4394  0.0647
 4605SOL     OW22660   1.072   9.903   0.496  0.2138  0.3687 -0.0955
 4605SOL    HW122661   0.973   9.908   0.493  0.1156 -0.6922  0.9342
 4605SOL    HW222662   1.107   9.971   0.561  0.0857 -0.0156  0.3751
 4606SOL     OW22663   4.388   6.612   3.955 -0.3246  0.4548 -0.3477
 4606SOL    HW122664   4.476   6.660   3.956 -0.0754 -0.0124  0.1240
 4606SOL    HW222665   4.344   6.625   3.866 -0.2677  1.5729 -0.2176
 4608SOL     OW22666   0.834   4.788   1.030 -0.5192  0.1932 -0.1589
 4608SOL    HW122667   0.759   4.855   1.024  0.0025  0.5917 -2.9461
 4608SOL    HW222668   0.846   4.760   1.125 -1.6309  3.0616  0.8801
 4609SOL     OW22669   3.157   8.577   4.291 -0.0351  0.5648  0.1601
 4609SOL    HW122670   3.216   8.499   4.316 -0.7213  0.2838  0.9132
 4609SOL    HW222671   3.133   8.570   4.194 -0.0199 -0.1204  0.2005
 4610SOL     OW22672   1.703   9.651   6.292 -0.6834 -0.3238 -0.2736
 4610SOL    HW122673   1.703   9.744   6.256  0.3123  0.2857  1.2247
 4610SOL    HW222674   1.780   9.640   6.355 -0.7483 -2.1911 -0.4946
 4611SOL     OW22675   5.523   2.597   4.730  0.3106  0.3905  0.1872
 4611SOL    HW122676   5.562   2.504   4.726 -0.7545 -0.0168 -0.7330
 4611SOL    HW222677   5.555   2.649   4.651  0.2294  0.5488  0.2603
 4612SOL     OW22678   2.915   4.060   4.775 -0.0009  0.2374 -0.5145
 4612SOL    HW122679   2.937   4.110   4.859  2.9403 -0.3011 -0.8987
 4612SOL    HW222680   2.862   4.119   4.715 -1.0918  1.0571  1.1978
 4613SOL     OW22681   9.305   5.999   7.187 -0.0101  0.4530 -0.1491
 4613SOL    HW122682   9.242   5.943   7.132  0.3682 -1.6549  1.5200
 4613SOL    HW222683   9.254   6.045   7.260  0.0480  0.4490 -0.1059
 4616SOL     OW22684   6.701   0.853   2.652  0.5116  0.0679  0.5887
 4616SOL    HW122685   6.746   0.936   2.687 -0.8520  0.6810  0.9061
 4616SOL    HW222686   6.615   0.878   2.609  1.1228 -0.9558 -1.2555
 4617SOL     OW22687   4.332   3.518   1.479 -0.3539 -0.0605 -0.3143
 4617SOL    HW122688   4.344   3.605   1.526  0.3794 -0.0307 -0.5539
 4617SOL    HW222689   4.362   3.526   1.384 -0.1595 -0.6100 -0.3043
 4618SOL     OW22690   8.814   8.355   2.874 -0.2232  0.3926 -0.4944
 4618SOL    HW122691   8.787   8.339   2.779 -0.2208  0.8072 -0.5657
 4618SOL    HW222692   8.750   8.418   2.917 -0.5839 -0.2832 -0.0327
 4620SOL     OW22693   2.825   4.772   1.674 -0.6236  0.2662 -0.4968
 4620SOL    HW122694   2.872   4.787   1.587  0.5007  1.0982  0.2419
 4620SOL    HW222695   2.882   4.715   1.733 -1.1438  0.1584 -0.0973
 4621SOL     OW22696   2.853   0.110   1.945 -0.7492  0.0265 -0.7581
 4621SOL    HW122697   2.861   0.048   2.023  0.9788 -0.1095 -1.0086
 4621SOL    HW222698   2.897   0.069   1.865 -2.0448  0.3856 -1.6678
 4622SOL     OW22699   4.759   0.268   4.036  0.0843 -0.4528 -0.3829
 4622SOL    HW122700   4.828   0.212   4.082  0.1424  1.3629  1.8078
 4622SOL    HW222701   4.668   0.242   4.069 -0.0545 -0.6520 -0.9109
 4623SOL     OW22702   6.882   4.784   1.272  0.2199 -0.0597  0.5838
 4623SOL    HW122703   6.884   4.881   1.247 -2.3243 -0.3816 -1.0195
 4623SOL    HW222704   6.975   4.749   1.278  1.1076  0.9077 -5.1236
 4624SOL     OW22705   9.794   8.077   5.109  0.4343  0.4872 -0.4402
 4624SOL    HW122706   9.744   8.025   5.177 -1.2537 -0.6603 -2.4919
 4624SOL    HW222707   9.751   8.166   5.095 -0.5447 -0.1561 -1.5799
 4626SOL     OW22708   1.486   9.959   3.790 -0.3935  0.2613 -0.2029
 4626SOL    HW122709   1.439   9.999   3.711 -0.9654 -1.1604 -0.5899
 4626SOL    HW222710   1.528   9.872   3.764  0.8487  0.6027  0.6351
 4628SOL     OW22711   9.975   4.531   2.940 -0.6156  0.0139  0.3788
 4628SOL    HW122712  10.015   4.581   2.864  1.9867  1.8277  2.8638
 4628SOL    HW222713   9.996   4.433   2.930  0.8094  0.4018 -0.5201
 4629SOL     OW22714   2.944   5.831   1.748 -0.0978  0.4830  0.1367
 4629SOL    HW122715   2.934   5.805   1.844  0.1610 -2.0859 -0.4880
 4629SOL    HW222716   2.878   5.780   1.693  1.4976 -0.0116 -1.3471
 4630SOL     OW22717   5.236   9.565   3.415  0.6491 -0.0078 -0.6189
 4630SOL    HW122718   5.332   9.582   3.435  0.6284  0.9782 -1.3080
 4630SOL    HW222719   5.196   9.646   3.373 -1.3231  0.7379  2.5878
 4631SOL     OW22720   6.102   0.349   7.079 -0.0685  0.5129 -0.0910
 4631SOL    HW122721   6.044   0.334   6.999  0.0533  0.1135 -0.1094
 4631SOL    HW222722   6.067   0.296   7.156  0.4596 -0.0005 -0.1961
 4632SOL     OW22723   2.654   9.562   3.857  0.0267 -0.8684  0.1012
 4632SOL    HW122724   2.736   9.505   3.865 -0.3892 -1.6044 -0.7780
 4632SOL    HW222725   2.614   9.575   3.947  1.6676  0.3305  0.6753
 4633SOL     OW22726   5.713   4.046   2.456 -0.0881 -0.0409 -0.4998
 4633SOL    HW122727   5.740   4.029   2.551  1.1624  0.5548 -0.7393
 4633SOL    HW222728   5.634   3.989   2.433  0.1037 -0.7850  0.6513
 4635SOL     OW22729   7.711   0.697   4.536  0.7825  0.0527  0.7778
 4635SOL    HW122730   7.691   0.604   4.502 -0.0212  0.4828  0.0435
 4635SOL    HW222731   7.625   0.744   4.556  1.2239  0.1301  2.5838
 4636SOL     OW22732   0.412   2.233   3.489 -0.4176  0.7760 -0.0846
 4636SOL    HW122733   0.411   2.331   3.510 -1.3918  0.1997  2.8352
 4636SOL    HW222734   0.318   2.199   3.490 -0.0828 -0.1684 -1.1801
 4637SOL     OW22735   0.398   9.851   2.008 -0.0826 -0.7529 -0.0397
 4637SOL    HW122736   0.460   9.866   2.085 -1.5832  0.3333  1.0102
 4637SOL    HW222737   0.424   9.910   1.932  0.4445 -0.6247  0.2392
 4640SOL     OW22738   9.901   8.294   1.387 -0.1481 -0.1586 -0.0572
 4640SOL    HW122739   9.864   8.204   1.406  0.1788 -0.2397  0.2164
 4640SOL    HW222740   9.885   8.354   1.466  1.3414 -0.5369  0.5512
 4641SOL     OW22741   3.950   2.982   2.666 -0.0214  0.4698 -0.5118
 4641SOL    HW122742   4.040   2.948   2.641 -0.6168 -1.4363 -0.0972
 4641SOL    HW222743   3.933   3.069   2.619  1.7072  0.4624 -1.1807
 4642SOL     OW22744   1.208   8.351   7.722 -0.0679 -0.5626  0.2624
 4642SOL    HW122745   1.207   8.451   7.734  0.5782 -0.4359 -0.6878
 4642SOL    HW222746   1.164   8.308   7.801  1.7899  0.3525  1.8524
 4644SOL     OW22747   8.024   1.652   7.009 -0.0884 -0.2099  0.4700
 4644SOL    HW122748   8.110   1.662   6.959 -0.1094  0.5880  0.6001
 4644SOL    HW222749   7.972   1.577   6.970  0.7885 -0.8809  0.5571
 4645SOL     OW22750   2.086   9.829   5.808  0.0045 -0.1005  0.7170
 4645SOL    HW122751   2.105   9.883   5.890 -1.8006  0.9448  0.4641
 4645SOL    HW222752   2.146   9.860   5.734  0.3805  0.1778  1.1296
 4646SOL     OW22753   8.902   8.790   2.393  0.6873 -0.5760 -0.0201
 4646SOL    HW122754   8.881   8.776   2.296 -0.4785  1.5204 -0.0973
 4646SOL    HW222755   8.822   8.764   2.447  0.1941  1.1746  0.1366
 4648SOL     OW22756   6.264   5.410   7.582 -0.7023 -0.3729  0.0004
 4648SOL    HW122757   6.244   5.316   7.554  2.0357 -1.3210  1.0045
 4648SOL    HW222758   6.299   5.461   7.504 -3.4092  0.2029 -0.8548
 4649SOL     OW22759   3.575   5.733   4.193 -0.3848  0.0741 -0.2181
 4649SOL    HW122760   3.561   5.647   4.242  0.3274  0.4242  0.6040
 4649SOL    HW222761   3.510   5.802   4.227 -0.2594  0.1596 -0.1524
 4650SOL     OW22762   2.644   9.753   3.678 -0.3379  0.8546  0.2546
 4650SOL    HW122763   2.638   9.679   3.744  0.4786  0.8408  0.3101
 4650SOL    HW222764   2.731   9.749   3.629 -0.3270  1.7142  0.1829
 4652SOL     OW22765   8.915   3.189   1.879  0.0368  0.0164  0.4263
 4652SOL    HW122766   8.947   3.135   1.801 -0.2617 -0.3235  0.5379
 4652SOL    HW222767   8.913   3.286   1.854  0.2102 -0.0620  0.1029
 4653SOL     OW22768   5.328   8.373   4.736 -0.9295 -0.5928 -0.0605
 4653SOL    HW122769   5.360   8.291   4.688 -0.2778 -1.9177  2.5455
 4653SOL    HW222770   5.407   8.431   4.758 -0.9580 -1.0203  1.2228
 4654SOL     OW22771   1.999   8.678   5.254  0.0061  0.5537 -0.3118
 4654SOL    HW122772   1.914   8.696   5.206  0.5134 -0.6012 -1.6704
 4654SOL    HW222773   1.980   8.666   5.352 -1.3867  0.2524 -0.6057
 4656SOL     OW22774   7.247   9.649   4.561 -0.1991 -0.1416  0.3402
 4656SOL    HW122775   7.335   9.658   4.513  0.4280  0.4408  1.5687
 4656SOL    HW222776   7.202   9.565   4.532  0.5424 -0.2054 -0.6682
 4657SOL     OW22777   2.565   4.081   7.106  0.0833 -0.1703  0.1350
 4657SOL    HW122778   2.548   4.156   7.169  1.5376 -0.8154  1.3301
 4657SOL    HW222779   2.645   4.029   7.137 -0.1022 -1.4092 -1.4031
 4658SOL     OW22780   3.502   7.603   6.070 -0.7409  0.4229 -0.0337
 4658SOL    HW122781   3.536   7.694   6.047 -1.0812  0.9140  1.3436
 4658SOL    HW222782   3.427   7.579   6.008 -0.7420  1.1369 -0.3181
 4660SOL     OW22783   9.528   3.239   2.203 -0.1020  0.0079 -0.0283
 4660SOL    HW122784   9.431   3.243   2.180 -0.3961  1.9174  1.4745
 4660SOL    HW222785   9.550   3.148   2.238 -1.6391 -0.0132  0.9186
 4661SOL     OW22786   0.729   0.224   5.441 -0.2190  0.3663  0.8313
 4661SOL    HW122787   0.813   0.258   5.400 -0.2894 -0.4468 -0.0191
 4661SOL    HW222788   0.655   0.289   5.426 -0.3905 -0.2146 -0.9315
 4662SOL     OW22789   0.596   0.289   1.607  0.2580 -0.3184  0.0952
 4662SOL    HW122790   0.503   0.255   1.619 -0.5835  2.3566  1.6843
 4662SOL    HW222791   0.637   0.306   1.697  0.5675  2.8887 -0.5758
 4663SOL     OW22792   1.020   0.863   6.176 -0.1436  0.1029 -0.0763
 4663SOL    HW122793   1.005   0.800   6.100  2.2096 -0.8262  0.1930
 4663SOL    HW222794   0.949   0.851   6.245 -0.2879 -1.5470 -0.5037
 4664SOL     OW22795   6.462   1.020   2.451 -0.4777  0.3481 -0.2649
 4664SOL    HW122796   6.419   0.989   2.366 -1.2785 -0.0677  0.2872
 4664SOL    HW222797   6.554   1.055   2.431  0.3724 -2.1750 -0.9612
 4666SOL     OW22798   8.764   9.850   6.751  0.2063 -0.0574  0.8464
 4666SOL    HW122799   8.673   9.828   6.718  1.4110 -1.3667 -1.7708
 4666SOL    HW222800   8.793   9.782   6.818 -0.2128 -0.3810  0.7012
 4667SOL     OW22801   4.254   3.099   2.714  0.0729 -0.1394 -0.5756
 4667SOL    HW122802   4.249   3.019   2.654 -2.6131  1.5715 -2.7551
 4667SOL    HW222803   4.347   3.135   2.714  0.2712 -0.5690 -3.1977
 4668SOL     OW22804   0.373   7.469   6.158  0.3589 -0.4942 -0.0500
 4668SOL    HW122805   0.392   7.376   6.129 -0.8397 -0.3503 -1.3732
 4668SOL    HW222806   0.460   7.519   6.169  0.9015 -0.6755 -3.0808
 4671SOL     OW22807   0.520   8.487   0.558  0.4223  0.6209 -0.4734
 4671SOL    HW122808   0.512   8.554   0.632  1.8356 -0.6086  0.8268
 4671SOL    HW222809   0.605   8.437   0.568  0.8065  0.6687 -3.1687
 4674SOL     OW22810   1.070   3.594   6.088 -0.2058  0.0380  0.0394
 4674SOL    HW122811   1.073   3.560   5.994 -0.5501 -1.0132  0.4005
 4674SOL    HW222812   0.992   3.554   6.136  0.3882  0.0013  0.9880
 4675SOL     OW22813   1.738   2.815   1.456  0.1629 -0.3150  0.0159
 4675SOL    HW122814   1.744   2.867   1.371 -0.5768  0.5909  0.5068
 4675SOL    HW222815   1.820   2.833   1.511 -0.7763  1.5563  0.8522
 4676SOL     OW22816   2.134   2.601   3.086  0.8676  0.3001  0.3569
 4676SOL    HW122817   2.111   2.697   3.068  1.7218  0.5413  0.5018
 4676SOL    HW222818   2.124   2.583   3.184  0.7069  0.2506  0.3299
 4677SOL     OW22819   2.885   6.234   0.447  0.6810 -0.5254 -0.2244
 4677SOL    HW122820   2.933   6.232   0.359  0.3912  0.7938 -0.4280
 4677SOL    HW222821   2.909   6.317   0.496 -2.2861  0.7646 -0.8570
 4679SOL     OW22822   8.144   2.296   4.158  0.4304 -1.1544 -0.0343
 4679SOL    HW122823   8.138   2.203   4.120 -0.6117 -0.2643 -2.1461
 4679SOL    HW222824   8.062   2.316   4.211  1.4323 -2.0344  1.8957
 4680SOL     OW22825   9.487   3.329   0.061  0.0022 -0.1501 -0.5685
 4680SOL    HW122826   9.390   3.351   0.076  0.1232  0.5608 -0.7927
 4680SOL    HW222827   9.513   3.253   0.120 -0.2208  0.8361  0.8407
 4681SOL     OW22828   2.762   2.314   2.453  0.1301  0.3110 -0.2156
 4681SOL    HW122829   2.787   2.375   2.529 -0.7235 -0.7723  0.9506
 4681SOL    HW222830   2.677   2.346   2.411  0.8887  1.2281 -1.0959
 4682SOL     OW22831   8.789   7.756   5.077 -0.1776  0.0686 -0.2170
 4682SOL    HW122832   8.794   7.664   5.037 -0.5767 -0.2853  0.5265
 4682SOL    HW222833   8.879   7.798   5.077  0.5591 -1.4330  2.0053
 4683SOL     OW22834   0.624   5.806   3.704 -0.6960  0.5375  0.4362
 4683SOL    HW122835   0.614   5.844   3.612  0.2956  0.0385  0.1156
 4683SOL    HW222836   0.536   5.768   3.734 -0.8299 -0.0154 -0.6283
 4686SOL     OW22837   1.267   1.943   6.484 -0.2190 -0.4647 -0.0205
 4686SOL    HW122838   1.246   1.888   6.404 -1.5208 -0.1496  0.0813
 4686SOL    HW222839   1.220   2.032   6.477  1.4029  0.4227  0.0642
 4687SOL     OW22840   5.713   0.195   1.475 -0.4373 -0.0177  0.6913
 4687SOL    HW122841   5.617   0.171   1.483 -1.0035  2.1088  0.5412
 4687SOL    HW222842   5.724   0.294   1.485  1.5966 -0.0920 -0.4647
 4688SOL     OW22843   3.527   4.792   1.749 -0.8990 -0.2860 -0.2738
 4688SOL    HW122844   3.574   4.762   1.831 -0.7960  1.3732  0.2983
 4688SOL    HW222845   3.515   4.715   1.687 -0.0964 -1.3408  0.8630
 4689SOL     OW22846   9.389   3.576   6.258 -0.2730 -0.7345  0.1118
 4689SOL    HW122847   9.467   3.514   6.246  0.5118  0.2730 -0.0609
 4689SOL    HW222848   9.351   3.599   6.169 -0.8083 -1.2637  0.1989
 4690SOL     OW22849   6.298   9.085   4.479  0.0917  0.3186 -0.3554
 4690SOL    HW122850   6.209   9.071   4.523  0.1495 -1.2693 -0.7109
 4690SOL    HW222851   6.369   9.039   4.531  0.5497  0.6164 -0.7036
 4691SOL     OW22852   1.542   5.065   0.266  0.2659  0.0287  0.5556
 4691SOL    HW122853   1.470   5.071   0.197  0.0461  1.1119  0.8685
 4691SOL    HW222854   1.624   5.025   0.226  0.0022  0.2614 -0.2246
 4692SOL     OW22855   9.325   3.177   4.908  0.2276 -0.0785 -0.3237
 4692SOL    HW122856   9.287   3.243   4.973  2.6565  0.1495  0.9106
 4692SOL    HW222857   9.287   3.194   4.818 -1.5699  0.9871  0.6012
 4693SOL     OW22858   6.322   4.368   0.543 -0.0220  0.4029 -0.1619
 4693SOL    HW122859   6.300   4.442   0.607  2.0397  0.6092  0.3370
 4693SOL    HW222860   6.299   4.280   0.586 -1.5550  0.6839 -0.3742
 4695SOL     OW22861   3.397   5.407   0.519  0.2110  0.1367  0.4220
 4695SOL    HW122862   3.372   5.374   0.427  2.5829  0.9215 -0.5441
 4695SOL    HW222863   3.315   5.442   0.565 -0.7730  1.0549 -1.9358
 4697SOL     OW22864   4.028   3.911   4.794  0.3069 -0.0899 -0.1815
 4697SOL    HW122865   3.947   3.946   4.747  0.4922  0.9297  0.2584
 4697SOL    HW222866   4.089   3.867   4.728  0.2441  0.7375 -0.7862
 4698SOL     OW22867   4.233   9.394   0.563 -0.3689 -0.1320  0.2178
 4698SOL    HW122868   4.244   9.295   0.560 -0.1904 -0.0739 -1.6404
 4698SOL    HW222869   4.315   9.435   0.604 -0.3702 -0.7222  0.8318
 4699SOL     OW22870   8.619   5.620   0.882  1.2999  0.7518 -0.0626
 4699SOL    HW122871   8.694   5.554   0.880  0.1528 -0.5811  0.5828
 4699SOL    HW222872   8.642   5.693   0.947  2.4759  0.9024 -0.6251
 4700SOL     OW22873   8.663   7.331   1.560  0.0643  0.3667 -0.3779
 4700SOL    HW122874   8.578   7.368   1.522 -0.4545 -0.2930  0.1263
 4700SOL    HW222875   8.688   7.384   1.642 -0.3596 -0.0187  0.0034
 4701SOL     OW22876   2.229   4.315   6.899 -0.2624 -0.3612 -0.0191
 4701SOL    HW122877   2.146   4.316   6.842 -0.1836  0.5321 -0.1254
 4701SOL    HW222878   2.302   4.265   6.851  0.1687  1.4024 -1.2306
 4702SOL     OW22879   6.131   0.327   5.361  0.5410 -0.7823 -0.3116
 4702SOL    HW122880   6.170   0.348   5.272  1.5885 -2.2701 -0.2295
 4702SOL    HW222881   6.117   0.228   5.369 -0.5381 -0.5552  0.7716
 4703SOL     OW22882   2.637   6.551   7.368 -0.8739 -0.4299 -0.0811
 4703SOL    HW122883   2.657   6.536   7.465 -1.9745 -1.9000 -0.0535
 4703SOL    HW222884   2.545   6.588   7.358 -0.2392  1.0671 -0.4984
 4704SOL     OW22885   8.278   9.032   7.868 -0.1234 -0.7240 -0.2919
 4704SOL    HW122886   8.256   8.936   7.847 -0.3215 -0.5538 -0.8774
 4704SOL    HW222887   8.335   9.070   7.795  1.5612 -0.9544  0.8807
 4705SOL     OW22888   2.350   4.656   6.821  0.5836  0.0820  0.6962
 4705SOL    HW122889   2.413   4.728   6.850  1.6879 -0.5988  0.0093
 4705SOL    HW222890   2.376   4.570   6.864 -0.2325 -0.0956  0.8540
 4706SOL     OW22891   8.822   6.217   6.286  0.6091 -0.3578 -0.3530
 4706SOL    HW122892   8.851   6.251   6.197 -0.0897  0.2857 -0.3407
 4706SOL    HW222893   8.724   6.232   6.298  0.5049 -1.3500  0.1209
 4707SOL     OW22894   8.633   1.153   7.879  0.8047 -0.6320  0.4846
 4707SOL    HW122895   8.584   1.139   7.965 -0.7229  0.0363 -0.2668
 4707SOL    HW222896   8.593   1.095   7.808  0.8809  0.1784 -0.2194
 4708SOL     OW22897   3.047   8.024   5.873  0.0232  0.5137 -0.5124
 4708SOL    HW122898   3.008   7.932   5.882  0.5524  0.2663 -0.6795
 4708SOL    HW222899   3.047   8.069   5.963 -0.5373  0.4764 -0.4912
 4709SOL     OW22900   9.286   1.816   0.754 -0.3478 -0.1802 -0.3742
 4709SOL    HW122901   9.333   1.796   0.668  0.5479  1.7461 -0.3581
 4709SOL    HW222902   9.352   1.853   0.820 -1.3616 -0.0950  0.6068
 4710SOL     OW22903   4.982   4.443   0.144 -0.3026 -0.2845 -0.1587
 4710SOL    HW122904   5.007   4.424   0.049 -1.2248  0.8808 -0.6517
 4710SOL    HW222905   5.064   4.445   0.201  0.7283  2.7169 -1.6043
 4711SOL     OW22906   3.930   9.305   2.310  0.6297  0.3636 -0.1693
 4711SOL    HW122907   3.864   9.319   2.384 -0.5379  2.1226 -1.5068
 4711SOL    HW222908   4.022   9.299   2.349 -0.2074 -1.6072  1.6752
 4713SOL     OW22909   8.883   6.021   5.718  0.3215  0.3726  0.1745
 4713SOL    HW122910   8.916   5.945   5.662 -2.6594 -1.9085  1.3636
 4713SOL    HW222911   8.789   6.042   5.694 -0.0193  1.3692  2.2429
 4715SOL     OW22912   4.842   2.360   5.986 -0.4898 -0.0593  0.0325
 4715SOL    HW122913   4.896   2.342   6.068  0.4735  0.9698 -0.3576
 4715SOL    HW222914   4.902   2.389   5.912 -1.4319 -0.2571 -0.8201
 4716SOL     OW22915   1.886   6.472   2.820  0.4325 -0.1035 -0.3102
 4716SOL    HW122916   1.914   6.508   2.731 -1.4827  2.1989 -0.0492
 4716SOL    HW222917   1.966   6.458   2.878  1.6231 -0.8126 -2.0928
 4717SOL     OW22918   0.737   5.006   1.217  0.4181 -0.0122  0.6571
 4717SOL    HW122919   0.680   4.995   1.298 -0.1100 -2.1171  0.0247
 4717SOL    HW222920   0.832   4.984   1.238  0.2174 -0.9194  0.6180
 4718SOL     OW22921   7.979   2.292   2.390  0.8566  0.0871 -0.3091
 4718SOL    HW122922   8.053   2.312   2.326  1.9788 -1.6541  0.4184
 4718SOL    HW222923   7.893   2.280   2.340  1.4673  0.0873 -1.3526
 4719SOL     OW22924   7.939   7.904   7.408 -0.1748 -0.7898  0.0771
 4719SOL    HW122925   7.987   7.875   7.490  1.3554 -0.1912 -0.5935
 4719SOL    HW222926   7.874   7.976   7.432  1.3862  0.4990  0.5344
 4720SOL     OW22927   6.664   1.365   4.278 -0.2135 -0.6169  0.7772
 4720SOL    HW122928   6.678   1.438   4.211  0.7342 -2.9714 -1.7369
 4720SOL    HW222929   6.568   1.339   4.279 -0.5062  0.4891  1.4955
 4721SOL     OW22930   7.570   2.536   5.615 -0.4747  0.3283 -0.0627
 4721SOL    HW122931   7.614   2.626   5.618  1.4561 -0.5774 -0.8453
 4721SOL    HW222932   7.604   2.479   5.690 -2.3195  0.4972  0.9490
 4722SOL     OW22933   8.553   3.135   5.234 -0.3780  0.0773  0.0380
 4722SOL    HW122934   8.557   3.035   5.232  1.3959  0.1459 -0.3907
 4722SOL    HW222935   8.644   3.173   5.220 -0.8636  1.7531  1.2069
 4723SOL     OW22936   4.295   4.860   4.849  0.3587  0.0096 -0.0722
 4723SOL    HW122937   4.353   4.941   4.844  0.2832  0.0285 -0.8484
 4723SOL    HW222938   4.221   4.875   4.914  0.2205  0.6512 -0.3665
 4724SOL     OW22939   7.975   5.027   4.625  0.2652 -0.2149  0.3324
 4724SOL    HW122940   8.002   4.940   4.665  0.3714  0.8561  2.6923
 4724SOL    HW222941   8.021   5.102   4.674 -0.4215  1.2034 -1.1365
 4725SOL     OW22942   5.728   4.762   0.584 -0.0679 -0.3154 -0.5867
 4725SOL    HW122943   5.790   4.740   0.509  0.8504  0.1437  0.0306
 4725SOL    HW222944   5.781   4.783   0.666 -0.9992  1.5917 -0.4623
 4728SOL     OW22945   3.184   1.088   1.798  0.5348  0.2602  0.7889
 4728SOL    HW122946   3.256   1.045   1.743  0.1695 -0.0467  0.5421
 4728SOL    HW222947   3.199   1.068   1.895  0.7679  0.1750  0.7340
 4729SOL     OW22948   7.178   0.299   3.862 -0.1409  0.2159 -0.2037
 4729SOL    HW122949   7.106   0.340   3.807  0.9504  0.1451 -1.6982
 4729SOL    HW222950   7.152   0.205   3.888 -0.1483 -0.1712 -1.5973
 4730SOL     OW22951   1.501   2.917   4.982  0.1027  0.2498 -0.3611
 4730SOL    HW122952   1.421   2.965   4.944  0.0822  1.2615  0.9423
 4730SOL    HW222953   1.523   2.839   4.923 -2.9863 -1.1760  0.2776
 4731SOL     OW22954   1.974   6.346   6.564 -0.2997 -0.8067  0.3600
 4731SOL    HW122955   1.877   6.344   6.540 -0.1819  0.7961 -0.3028
 4731SOL    HW222956   1.991   6.422   6.628  0.1695 -2.3276  2.0879
 4732SOL     OW22957   0.446   2.819   4.400  0.0022  0.1542  0.3732
 4732SOL    HW122958   0.355   2.792   4.368 -0.4219  1.4103  0.5154
 4732SOL    HW222959   0.515   2.765   4.352 -0.8862 -2.3316  1.7487
 4733SOL     OW22960   5.780   2.759   5.701 -0.1917 -0.0024 -0.2028
 4733SOL    HW122961   5.766   2.856   5.716  0.5273  0.4176 -2.1217
 4733SOL    HW222962   5.702   2.721   5.652  1.0356  0.3323 -2.4516
 4734SOL     OW22963   0.738   6.034   0.070  0.1173  0.7673  0.4044
 4734SOL    HW122964   0.798   6.103   0.029 -0.1380  0.2537 -0.8437
 4734SOL    HW222965   0.694   6.073   0.152  0.6996  1.7653  0.2548
 4736SOL     OW22966   1.372   7.787   2.665  0.2237  0.1330 -0.6857
 4736SOL    HW122967   1.329   7.701   2.637  3.3321 -1.7146 -0.0810
 4736SOL    HW222968   1.346   7.808   2.760 -0.2684 -0.3206 -0.7181
 4737SOL     OW22969   6.630   1.172   4.610  0.4071 -0.1813  0.0765
 4737SOL    HW122970   6.600   1.092   4.559 -0.6629 -0.3648  0.9777
 4737SOL    HW222971   6.726   1.161   4.636 -0.0178 -1.6518  1.0929
 4739SOL     OW22972   4.330   2.165   7.515  0.1932  0.1158  0.4168
 4739SOL    HW122973   4.356   2.154   7.611  2.3810  1.2000 -0.0251
 4739SOL    HW222974   4.337   2.077   7.468  2.5066  0.2637  0.4592
 4740SOL     OW22975   5.815   8.760   7.058  0.2187  0.2025  0.0601
 4740SOL    HW122976   5.858   8.707   6.985  0.2811  0.1636  0.1254
 4740SOL    HW222977   5.773   8.841   7.018 -2.1947 -1.2481 -0.4104
 4741SOL     OW22978   3.297   5.483   5.382  0.1540 -0.3824  0.4948
 4741SOL    HW122979   3.243   5.525   5.454  0.6570 -0.2636  0.7991
 4741SOL    HW222980   3.361   5.550   5.344 -0.3772 -0.3328 -0.3242
 4743SOL     OW22981   8.107   8.831   3.564  0.1874 -0.8250 -0.1096
 4743SOL    HW122982   8.023   8.789   3.598  0.4239 -0.4033  1.0194
 4743SOL    HW222983   8.166   8.856   3.641 -0.3556  2.4571 -0.6767
 4744SOL     OW22984   4.210   3.250   2.380  0.4320 -0.1943 -0.1301
 4744SOL    HW122985   4.260   3.315   2.322 -0.2028 -0.0597 -0.5229
 4744SOL    HW222986   4.195   3.291   2.470  1.1607 -0.2932  0.0459
 4745SOL     OW22987   5.929   0.594   4.337  1.0135 -0.5656 -0.6444
 4745SOL    HW122988   5.889   0.680   4.305  1.7472  0.1893  0.4259
 4745SOL    HW222989   5.900   0.520   4.278 -1.1517  0.1172 -0.4790
 4746SOL     OW22990   1.288   4.088   2.297 -0.0732  0.0337  0.1005
 4746SOL    HW122991   1.356   4.021   2.328 -0.4930 -1.3529 -1.9253
 4746SOL    HW222992   1.255   4.140   2.376 -0.0069 -2.3931  1.7817
 4747SOL     OW22993   4.406   9.707   7.274  0.2317 -0.1133 -0.4463
 4747SOL    HW122994   4.499   9.707   7.311 -0.5842 -1.2793  1.7059
 4747SOL    HW222995   4.389   9.621   7.226 -0.1010 -0.3727  0.1332
 4748SOL     OW22996   1.114   6.587   5.019  0.6791  0.2030 -0.2597
 4748SOL    HW122997   1.068   6.611   5.104  1.0171  1.0068 -0.3014
 4748SOL    HW222998   1.156   6.668   4.980 -0.6584  0.1185 -1.9263
 4749SOL     OW22999   2.105   5.118   2.863  0.1353 -0.0915  0.2856
 4749SOL    HW123000   2.073   5.194   2.919 -1.9844 -0.9000  0.2054
 4749SOL    HW223001   2.048   5.037   2.879  0.7642 -0.9333 -1.5003
 4750SOL     OW23002   3.389   5.844   1.973 -0.0245 -0.2399  0.4242
 4750SOL    HW123003   3.418   5.913   1.907 -0.7413 -0.3235  0.0252
 4750SOL    HW223004   3.375   5.887   2.062  3.2161 -0.5136  1.1262
 4752SOL     OW23005   1.626   1.948   6.853  0.5228 -0.0472 -0.0985
 4752SOL    HW123006   1.601   1.947   6.756 -0.2464  1.6432  0.0506
 4752SOL    HW223007   1.543   1.944   6.909  0.8283  1.1772  0.4595
 4754SOL     OW23008   4.627   2.230   0.604 -0.3497  0.0972 -0.1209
 4754SOL    HW123009   4.674   2.149   0.570  1.7624  0.7475  1.1762
 4754SOL    HW223010   4.644   2.307   0.543 -0.7134  0.0635 -0.2704
 4755SOL     OW23011   0.568   3.976   7.245 -0.0359  0.5725 -0.0139
 4755SOL    HW123012   0.627   3.997   7.168  0.1725 -1.7701 -0.5186
 4755SOL    HW223013   0.614   3.912   7.306 -0.7508  1.3235  1.3574
 4756SOL     OW23014   3.150   5.408   7.263  0.1499 -0.1026 -0.1650
 4756SOL    HW123015   3.128   5.423   7.359  0.5589  0.5132 -0.1638
 4756SOL    HW223016   3.176   5.495   7.220  2.1570 -0.7247 -0.2763
 4757SOL     OW23017   2.808   5.692   0.518  0.0968  0.1780  0.7125
 4757SOL    HW123018   2.719   5.726   0.547 -0.1681  0.4198 -0.3952
 4757SOL    HW223019   2.846   5.751   0.447  0.5877 -0.6141  0.3041
 4759SOL     OW23020   4.073   2.285   1.112 -0.8029 -0.6196 -0.2524
 4759SOL    HW123021   4.014   2.365   1.121 -0.4049 -0.5248  1.8112
 4759SOL    HW223022   4.068   2.230   1.195 -0.2409 -2.1858 -1.2215
 4761SOL     OW23023   0.907   0.996   2.724 -0.0019  0.6074  0.1833
 4761SOL    HW123024   0.985   0.970   2.667  0.1124  2.3516 -0.4884
 4761SOL    HW223025   0.826   1.007   2.667 -0.0130  1.8265  0.4260
 4762SOL     OW23026   9.428   1.107   4.477 -0.2585 -0.4231  0.5139
 4762SOL    HW123027   9.363   1.122   4.402  0.0291  0.1966  0.3901
 4762SOL    HW223028   9.520   1.129   4.446 -0.2188  0.4042  1.2376
 4763SOL     OW23029   5.205   9.164   7.911 -0.7627  0.0428  0.1870
 4763SOL    HW123030   5.140   9.154   7.836  0.8266  0.6074 -1.3081
 4763SOL    HW223031   5.247   9.075   7.931 -0.1030  0.1791 -0.5978
 4764SOL     OW23032   2.096   2.538   3.338  0.4315  0.5736  0.0935
 4764SOL    HW123033   2.124   2.455   3.386 -0.3598 -1.0520 -2.1609
 4764SOL    HW223034   1.998   2.552   3.351  0.2242  0.1501 -0.9985
 4765SOL     OW23035   5.887   2.062   1.265  0.1005 -0.7164  0.2444
 4765SOL    HW123036   5.895   2.094   1.359 -1.7872  1.8370 -0.3910
 4765SOL    HW223037   5.975   2.071   1.218  0.2162  1.2648  0.8119
 4767SOL     OW23038   4.618   5.700   7.719  0.1078  0.1423 -0.2187
 4767SOL    HW123039   4.710   5.664   7.737 -0.4679 -0.8439  0.8302
 4767SOL    HW223040   4.612   5.793   7.755  0.4464 -0.0859  0.4406
 4768SOL     OW23041   5.997   9.586   7.177 -0.0416 -0.3791 -0.1105
 4768SOL    HW123042   5.955   9.668   7.137 -0.1014  0.1154  0.9640
 4768SOL    HW223043   6.020   9.603   7.272 -0.7666 -1.8712  0.3500
 4769SOL     OW23044   5.672   9.699   6.437  0.1869 -0.2365  0.0513
 4769SOL    HW123045   5.733   9.700   6.358  1.5802 -1.0154  1.0954
 4769SOL    HW223046   5.656   9.604   6.465 -0.7963  0.0099  0.3401
 4770SOL     OW23047   1.159   2.638   2.730 -0.4037  0.0808 -0.1101
 4770SOL    HW123048   1.243   2.632   2.783  1.6519 -0.5411 -3.2861
 4770SOL    HW223049   1.145   2.732   2.700 -0.6395  0.1122  0.0958
 4772SOL     OW23050   2.445   4.677   6.538 -0.7553 -0.4623  1.0196
 4772SOL    HW123051   2.539   4.652   6.561 -0.6871 -0.8848  0.3223
 4772SOL    HW223052   2.393   4.693   6.622  0.4049  1.5573  1.3709
 4773SOL     OW23053   9.916   7.435   2.222  0.1557 -0.0722  0.4434
 4773SOL    HW123054   9.870   7.502   2.164  0.7532 -0.3866 -0.3928
 4773SOL    HW223055   9.982   7.481   2.280 -0.0505  0.1729  0.4839
 4774SOL     OW23056   8.290   4.313   7.040 -0.0499 -0.1535 -0.3360
 4774SOL    HW123057   8.300   4.228   6.988  2.1100 -0.2992  0.2504
 4774SOL    HW223058   8.254   4.292   7.131  0.5258 -0.4436 -0.1744
 4775SOL     OW23059   0.452   0.845   1.074 -0.2242 -0.4499 -0.2464
 4775SOL    HW123060   0.514   0.774   1.038  0.3795  0.5682 -1.2526
 4775SOL    HW223061   0.358   0.821   1.051  0.0717 -0.3499 -1.6218
 4776SOL     OW23062   8.669   1.402   3.411  0.2076  0.1076 -0.0165
 4776SOL    HW123063   8.674   1.487   3.358  1.8239  1.2355  1.8727
 4776SOL    HW223064   8.655   1.325   3.349  0.5053  1.5540 -1.9359
 4777SOL     OW23065   9.852   2.634   2.624  0.0861 -0.4162  0.0937
 4777SOL    HW123066   9.862   2.598   2.716 -0.0923  0.2270  0.3661
 4777SOL    HW223067   9.937   2.679   2.596  0.7891 -2.2352 -0.7717
 4778SOL     OW23068   6.197   0.154   7.777 -0.2696 -0.5580 -0.1736
 4778SOL    HW123069   6.108   0.117   7.805  0.9989 -2.7510  1.1081
 4778SOL    HW223070   6.189   0.197   7.688 -2.1137 -2.8167 -1.1518
 4779SOL     OW23071   7.583   5.543   0.728  0.6498  0.0510 -0.5784
 4779SOL    HW123072   7.554   5.632   0.693 -0.5062 -0.5699 -1.2233
 4779SOL    HW223073   7.539   5.527   0.816  0.3405 -0.1779 -0.7769
 4780SOL     OW23074   7.578   4.259   0.492 -0.7883 -0.4039  0.6553
 4780SOL    HW123075   7.502   4.288   0.434 -1.1590  0.4612  1.5527
 4780SOL    HW223076   7.571   4.162   0.512 -0.0208 -0.9803 -1.6877
 4781SOL     OW23077   3.339   3.926   6.553  0.0705 -0.0639 -0.3483
 4781SOL    HW123078   3.368   3.905   6.460 -2.0886 -3.0506 -0.4230
 4781SOL    HW223079   3.333   3.842   6.606 -1.9284  1.1965  1.5217
 4782SOL     OW23080   0.339   1.133   3.688 -0.6506  0.0157  0.1979
 4782SOL    HW123081   0.416   1.164   3.743 -0.4661  1.9484 -1.1352
 4782SOL    HW223082   0.358   1.147   3.591 -2.5268  0.1901 -0.1734
 4783SOL     OW23083   9.326   7.519   7.706  0.1217  0.3031 -0.1756
 4783SOL    HW123084   9.407   7.559   7.749  0.2568 -0.7281  0.5184
 4783SOL    HW223085   9.351   7.436   7.657 -0.0567  1.3548 -2.1274
 4784SOL     OW23086   0.497   1.186   4.245  0.0981 -0.5688 -0.6953
 4784SOL    HW123087   0.508   1.243   4.326 -0.3278 -1.3139 -0.1097
 4784SOL    HW223088   0.587   1.157   4.212  0.2897  0.0311 -0.7012
 4785SOL     OW23089   7.325   3.421   1.007 -0.0004 -0.2540  0.0989
 4785SOL    HW123090   7.256   3.349   1.005 -1.1433  0.8402 -1.3333
 4785SOL    HW223091   7.407   3.390   0.958 -0.7201 -0.3790 -1.0623
 4787SOL     OW23092   7.034   6.633   1.992 -0.0178 -0.7459 -0.4109
 4787SOL    HW123093   6.981   6.568   2.045  0.8428 -0.9447  0.1932
 4787SOL    HW223094   6.971   6.696   1.946 -0.7867 -1.0434  0.2197
 4788SOL     OW23095   0.235   8.335   6.586 -0.3505  0.2154 -0.0663
 4788SOL    HW123096   0.214   8.406   6.518 -0.6327 -0.1371 -0.3539
 4788SOL    HW223097   0.276   8.257   6.539 -1.5219 -0.4600  0.0089
 4789SOL     OW23098   6.237   2.077   4.209 -0.4172  0.0882  0.1330
 4789SOL    HW123099   6.164   2.011   4.227 -0.6472  0.7584  1.6316
 4789SOL    HW223100   6.198   2.167   4.190 -0.0609 -0.0017 -1.1195
 4790SOL     OW23101   2.142   8.841   5.559 -0.3219 -0.3333 -0.3149
 4790SOL    HW123102   2.184   8.826   5.470 -3.0735 -3.0553 -1.2645
 4790SOL    HW223103   2.046   8.865   5.547 -0.2438  1.2196  1.8945
 4791SOL     OW23104   8.901   0.368   0.980  0.0717 -0.3062 -0.4214
 4791SOL    HW123105   8.989   0.325   1.003 -0.5652 -0.5317  1.7615
 4791SOL    HW223106   8.828   0.323   1.032 -1.2083  0.5475 -1.4491
 4793SOL     OW23107   0.299   3.540   1.341  0.2089  0.4989  0.1202
 4793SOL    HW123108   0.299   3.473   1.267  1.2198  0.4038  0.2038
 4793SOL    HW223109   0.327   3.497   1.426  0.1311  0.8619  0.3341
 4794SOL     OW23110   0.013   7.597   7.845 -0.8571  0.2406 -0.4038
 4794SOL    HW123111  -0.048   7.519   7.857 -0.9467  0.3388 -0.2218
 4794SOL    HW223112   0.031   7.610   7.747 -0.0294 -0.6317 -0.3812
 4795SOL     OW23113   0.472   8.359   7.867 -0.1281  0.4497 -0.3036
 4795SOL    HW123114   0.406   8.429   7.891 -0.3601 -0.3968  1.5903
 4795SOL    HW223115   0.429   8.291   7.807 -0.6108  0.5566 -0.0695
 4796SOL     OW23116   9.666   5.093   5.466 -0.0440  0.4747 -0.0381
 4796SOL    HW123117   9.725   5.164   5.505  4.1539 -0.7213 -3.8268
 4796SOL    HW223118   9.661   5.104   5.367 -1.2955 -3.0958 -0.4351
 4797SOL     OW23119   2.435   9.575   6.183  0.0134  0.2902 -0.4125
 4797SOL    HW123120   2.487   9.621   6.255  0.5976 -0.8206 -0.1106
 4797SOL    HW223121   2.475   9.595   6.094  1.0152 -0.6307 -0.1740
 4799SOL     OW23122   9.116   8.945   2.003 -0.3728  0.5692 -0.6705
 4799SOL    HW123123   9.206   8.905   1.989 -0.6689 -0.8686  1.2857
 4799SOL    HW223124   9.118   9.006   2.082 -1.9443 -2.5958  1.9930
 4800SOL     OW23125   7.304   8.368   2.935 -0.2806  0.0760  0.0740
 4800SOL    HW123126   7.360   8.421   2.871 -1.5948  0.3374 -0.8796
 4800SOL    HW223127   7.307   8.410   3.026  0.2998  0.6185 -0.1951
 4802SOL     OW23128   9.002   8.055   7.938 -0.1906 -0.7848 -0.5848
 4802SOL    HW123129   9.038   8.065   8.031 -1.6077  0.2141 -0.1261
 4802SOL    HW223130   9.000   7.958   7.914  0.7768 -1.0039  0.1818
 4803SOL     OW23131   9.827   8.995   0.094  0.0276 -0.1470  0.0401
 4803SOL    HW123132   9.741   9.038   0.120  1.6329  3.4333 -0.3434
 4803SOL    HW223133   9.860   9.033   0.008  1.8970 -1.6084  0.0638
 4804SOL     OW23134   5.788   9.411   4.406  0.0749 -0.2165 -0.4804
 4804SOL    HW123135   5.886   9.393   4.399  0.3721  1.5605 -1.2005
 4804SOL    HW223136   5.743   9.384   4.321 -0.1000 -1.1839 -0.0888
 4805SOL     OW23137   6.717   9.858   3.187 -0.6612 -0.2846 -0.2312
 4805SOL    HW123138   6.638   9.804   3.218 -0.6057 -0.9778 -1.2556
 4805SOL    HW223139   6.769   9.804   3.121 -1.1712  1.4203 -2.0474
 4806SOL     OW23140   5.193   1.918   6.353  0.0404  0.1776 -0.2355
 4806SOL    HW123141   5.175   1.964   6.266 -3.6811 -0.4834  0.1250
 4806SOL    HW223142   5.198   1.986   6.427 -0.1297  0.4570 -0.4819
 4807SOL     OW23143   1.072   1.913   2.062 -0.3212 -0.1928 -0.0776
 4807SOL    HW123144   1.096   1.824   2.025  2.4774  0.3976  0.1783
 4807SOL    HW223145   1.013   1.962   1.998 -0.5115 -1.5819 -0.9665
 4808SOL     OW23146   0.223   9.195   5.704  0.5707  0.1745 -0.5910
 4808SOL    HW123147   0.281   9.214   5.783  1.8681  1.5664 -1.8511
 4808SOL    HW223148   0.231   9.269   5.638 -0.5260 -0.9572 -2.0274
 4810SOL     OW23149   2.561   0.155   4.590 -0.6922  0.0176 -0.1740
 4810SOL    HW123150   2.577   0.066   4.547 -0.0922 -0.1031  0.2780
 4810SOL    HW223151   2.481   0.199   4.549  0.3091  0.2400 -1.9228
 4811SOL     OW23152   0.518   0.391   7.242  0.0034 -0.0119  0.0160
 4811SOL    HW123153   0.509   0.382   7.341  0.1052 -0.2720 -0.0004
 4811SOL    HW223154   0.444   0.450   7.208 -0.3797 -0.4048  0.1683
 4814SOL     OW23155   2.364   1.947   6.767 -0.0549  0.2611 -0.2132
 4814SOL    HW123156   2.444   1.953   6.707  1.9186 -0.7961  2.2055
 4814SOL    HW223157   2.364   2.025   6.829  0.8081 -1.2121  1.7269
 4815SOL     OW23158   9.684   9.710   4.691 -0.1525 -0.4749 -0.0421
 4815SOL    HW123159   9.724   9.619   4.687  0.1436 -0.3486  0.0319
 4815SOL    HW223160   9.737   9.767   4.753  1.0224  0.4355 -1.8484
 4816SOL     OW23161   0.604   0.245   0.498 -0.4295  0.0031 -0.1748
 4816SOL    HW123162   0.666   0.322   0.485 -0.4032  0.2830  1.5244
 4816SOL    HW223163   0.509   0.278   0.498 -0.4304 -0.0032  0.3170
 4817SOL     OW23164   9.778   2.867   7.319 -0.2465 -0.4021  0.1653
 4817SOL    HW123165   9.840   2.861   7.397 -0.6733 -0.4011  0.5034
 4817SOL    HW223166   9.804   2.945   7.262  0.6265 -0.9340 -0.1852
 4818SOL     OW23167   3.968   2.754   3.628 -0.0206 -0.0299 -0.3402
 4818SOL    HW123168   3.975   2.816   3.706  0.8160  0.3291 -0.6932
 4818SOL    HW223169   3.884   2.774   3.577 -0.2743  0.1199  0.1304
 4819SOL     OW23170   7.978   9.650   1.249 -0.3851  0.1461  0.0488
 4819SOL    HW123171   7.891   9.696   1.231 -0.4347  0.9535  2.1050
 4819SOL    HW223172   7.961   9.558   1.284 -0.3855 -0.0973 -0.5922
 4820SOL     OW23173   3.573   2.702   4.034  0.2580  0.5157 -0.4952
 4820SOL    HW123174   3.524   2.633   4.086  0.8692  0.3365 -0.1525
 4820SOL    HW223175   3.662   2.666   4.006  0.8661  1.4073  0.2791
 4821SOL     OW23176   6.480   6.228   1.894  0.6299 -0.0831 -0.2598
 4821SOL    HW123177   6.505   6.154   1.957 -0.7748  0.1665  0.6074
 4821SOL    HW223178   6.384   6.217   1.866  0.5831  1.0842 -0.5713
 4823SOL     OW23179   3.362   9.350   4.382 -0.1252  0.1613  0.0178
 4823SOL    HW123180   3.387   9.410   4.458  1.8475  0.7499 -1.0454
 4823SOL    HW223181   3.325   9.404   4.307  0.6247 -0.0623 -0.5218
 4824SOL     OW23182   1.486   8.411   2.116 -0.2161 -0.5460 -0.8243
 4824SOL    HW123183   1.477   8.324   2.067  0.4944 -0.9139 -0.3026
 4824SOL    HW223184   1.513   8.394   2.210 -0.9438  0.1998 -0.4739
 4825SOL     OW23185   3.996   9.777   0.447 -0.1929  0.1707  0.2213
 4825SOL    HW123186   3.986   9.874   0.468 -1.1550  0.1968 -0.3537
 4825SOL    HW223187   3.965   9.759   0.354  0.4729 -0.6037  0.1438
 4827SOL     OW23188   3.675   6.304   7.640 -0.2916 -0.0313 -0.0008
 4827SOL    HW123189   3.740   6.230   7.621 -0.1573  0.4498 -1.4863
 4827SOL    HW223190   3.593   6.292   7.584 -0.3229  0.8740 -0.1618
 4828SOL     OW23191   0.363   6.793   7.922 -1.0332  0.1586 -0.1047
 4828SOL    HW123192   0.295   6.752   7.861  0.4717 -1.1451 -0.9856
 4828SOL    HW223193   0.455   6.774   7.885 -0.1732  1.1104  1.5084
 4829SOL     OW23194   9.772   1.482   4.183 -0.2966 -0.3356  0.2268
 4829SOL    HW123195   9.867   1.513   4.180 -0.1019 -0.8712  0.8259
 4829SOL    HW223196   9.740   1.482   4.278 -1.0992  0.4486 -0.0325
 4830SOL     OW23197   1.973   6.228   1.192 -0.4260 -0.1679 -0.3211
 4830SOL    HW123198   2.053   6.175   1.162  0.8782  1.5964 -0.0529
 4830SOL    HW223199   1.910   6.168   1.241  1.0117 -1.4672 -0.0166
 4831SOL     OW23200   8.730   4.061   3.059  0.4970  0.0322 -0.0722
 4831SOL    HW123201   8.733   4.124   3.136  0.9561 -0.0331 -0.0299
 4831SOL    HW223202   8.642   4.014   3.056  0.4965  0.0070  0.4369
 4832SOL     OW23203   9.758   7.263   0.413  0.2096 -0.2745  0.0596
 4832SOL    HW123204   9.736   7.348   0.462  0.2939  0.0489 -0.4627
 4832SOL    HW223205   9.853   7.238   0.430  0.2772 -0.0889 -0.0465
 4833SOL     OW23206   6.711   9.179   7.039 -0.0183  0.1413  0.2531
 4833SOL    HW123207   6.623   9.160   6.996  1.3150 -1.0594 -2.0310
 4833SOL    HW223208   6.776   9.108   7.014  1.8728  1.5264  1.1348
 4834SOL     OW23209   4.582   9.215   1.875  0.1032 -0.0710  0.1445
 4834SOL    HW123210   4.664   9.183   1.921  0.3215 -0.9797 -0.8534
 4834SOL    HW223211   4.517   9.250   1.943  1.2121  0.4343  0.9515
 4835SOL     OW23212   9.796   3.067   1.548  0.3572 -0.0976  0.2444
 4835SOL    HW123213   9.826   3.067   1.643 -1.8779  1.4032  0.9786
 4835SOL    HW223214   9.750   2.981   1.527  0.8931 -0.4472  0.4946
 4836SOL     OW23215   3.326   2.356   2.643  0.4815 -0.3347 -0.0890
 4836SOL    HW123216   3.345   2.418   2.567  0.0395 -0.0154  0.0601
 4836SOL    HW223217   3.234   2.317   2.632 -0.0953  0.6850  0.9438
 4837SOL     OW23218   1.171   7.590   0.013  0.1225 -0.8428 -0.3567
 4837SOL    HW123219   1.127   7.522   0.072  0.5051 -2.2293 -1.6336
 4837SOL    HW223220   1.270   7.580   0.020  0.1996  0.2734  0.2183
 4838SOL     OW23221   9.299   9.437   3.051 -0.2061 -0.6844  0.2890
 4838SOL    HW123222   9.250   9.352   3.068 -1.4602  0.2663  1.5381
 4838SOL    HW223223   9.273   9.505   3.120  1.0751  0.5871 -0.4546
 4840SOL     OW23224   2.304   2.825   1.834  0.0802  0.4332 -0.1497
 4840SOL    HW123225   2.296   2.732   1.798 -0.7643 -0.2845  1.8109
 4840SOL    HW223226   2.349   2.883   1.766  1.1500 -1.5300 -1.1876
 4841SOL     OW23227   9.634   3.891   5.722 -0.2462 -0.6235 -0.3339
 4841SOL    HW123228   9.639   3.888   5.822 -2.3385 -0.0787 -0.1967
 4841SOL    HW223229   9.658   3.801   5.684  2.9261 -0.1880  0.5120
 4842SOL     OW23230   2.096   2.717   7.702  0.2729 -0.1434  0.6464
 4842SOL    HW123231   2.045   2.790   7.747  1.7264  1.4981 -0.3081
 4842SOL    HW223232   2.098   2.734   7.604  1.9981 -0.5935  0.5929
 4843SOL     OW23233   2.434   1.034   5.797  0.1183  0.0566 -0.1222
 4843SOL    HW123234   2.369   1.091   5.745  1.3566  0.5064 -1.1940
 4843SOL    HW223235   2.424   1.054   5.895  0.1690  1.7347 -0.4413
 4845SOL     OW23236   2.898   2.251   3.414 -0.1803  0.1796 -0.3763
 4845SOL    HW123237   2.886   2.350   3.409  0.1669  0.1760 -1.6055
 4845SOL    HW223238   2.964   2.228   3.485  0.1812  0.8655 -0.4906
 4846SOL     OW23239   0.760   7.810   0.409  0.2533  0.2799 -0.3144
 4846SOL    HW123240   0.776   7.792   0.506 -0.1601 -1.1554 -0.5027
 4846SOL    HW223241   0.666   7.841   0.396  0.4964  1.0902 -0.1879
 4847SOL     OW23242   7.753   6.593   5.361 -0.3184  0.1608 -0.3167
 4847SOL    HW123243   7.764   6.572   5.264 -1.0807 -1.4703 -0.0633
 4847SOL    HW223244   7.811   6.532   5.416 -0.5794  0.4574  0.2982
 4848SOL     OW23245   9.689   0.173   0.362  0.5797 -0.5643  0.4271
 4848SOL    HW123246   9.726   0.234   0.432  1.2406 -0.7387  0.2347
 4848SOL    HW223247   9.678   0.224   0.277  0.1656 -0.4565  0.5451
 4849SOL     OW23248   3.233   9.768   2.219  0.2405  0.4166 -0.2693
 4849SOL    HW123249   3.268   9.856   2.185 -1.2051  1.0214 -0.2190
 4849SOL    HW223250   3.137   9.758   2.193 -0.3476  0.0093  1.9677
 4850SOL     OW23251   8.185   0.685   2.453 -0.4107 -0.1521 -0.2452
 4850SOL    HW123252   8.164   0.757   2.519  0.3889  0.7611 -0.9668
 4850SOL    HW223253   8.109   0.620   2.449 -1.1361  0.6407  0.4278
 4851SOL     OW23254   0.640   0.885   0.576  0.0736  0.2331  0.4693
 4851SOL    HW123255   0.630   0.944   0.496  0.7789 -0.8038 -0.3958
 4851SOL    HW223256   0.563   0.899   0.637 -0.6233  0.8307 -0.5302
 4852SOL     OW23257   3.979   6.131   1.332 -0.2211 -0.2408  0.2637
 4852SOL    HW123258   3.924   6.190   1.273 -0.6573 -0.2468  0.6705
 4852SOL    HW223259   3.967   6.158   1.427  2.6762  1.6427  0.1783
 4854SOL     OW23260   0.286   7.650   1.999  0.4464 -1.0057 -0.6673
 4854SOL    HW123261   0.260   7.690   1.911  1.2372 -1.5394 -1.1554
 4854SOL    HW223262   0.343   7.714   2.050 -0.3258 -0.5460 -0.3758
 4856SOL     OW23263   0.270   9.003   0.509  0.0519  0.0425 -0.0810
 4856SOL    HW123264   0.207   8.928   0.488 -2.1494  0.5573  4.2096
 4856SOL    HW223265   0.322   8.980   0.592  4.0811  0.5721 -2.3149
 4858SOL     OW23266   9.790   8.190   2.832  0.4953 -0.1517 -0.3386
 4858SOL    HW123267   9.775   8.144   2.919  0.6281  0.1541 -0.1530
 4858SOL    HW223268   9.710   8.245   2.809  1.1092  1.0693  0.3963
 4859SOL     OW23269   3.015   9.275   5.771 -0.4676  0.5722  0.1315
 4859SOL    HW123270   3.095   9.262   5.713 -0.7711 -1.0632  0.0587
 4859SOL    HW223271   2.939   9.308   5.715 -0.4929 -0.0997 -0.2384
 4861SOL     OW23272   0.756   6.574   1.498  0.0058  0.1433 -0.7765
 4861SOL    HW123273   0.801   6.495   1.540  0.7357  1.5667  1.1656
 4861SOL    HW223274   0.798   6.658   1.531 -1.2674  1.3833 -2.2454
 4862SOL     OW23275   1.102   9.339   4.683 -0.6529 -0.1190 -0.2364
 4862SOL    HW123276   1.074   9.411   4.619 -1.7163 -0.8761 -0.6263
 4862SOL    HW223277   1.027   9.321   4.747 -0.0418 -0.2197  0.4466
 4863SOL     OW23278   2.376   9.147   1.130  0.6688 -0.2431  0.1457
 4863SOL    HW123279   2.458   9.194   1.098 -0.5224  0.5638 -1.8237
 4863SOL    HW223280   2.367   9.059   1.084  1.3352 -1.1102  1.6503
 4864SOL     OW23281   0.830   0.854   6.376 -0.2595  0.0837 -0.2339
 4864SOL    HW123282   0.875   0.849   6.465  0.4681  0.4369 -0.5693
 4864SOL    HW223283   0.777   0.938   6.370  0.0181  0.2566 -0.2795
 4865SOL     OW23284   0.783   2.824   1.057  0.5024  0.2912  0.2373
 4865SOL    HW123285   0.692   2.782   1.056  0.7172 -0.1743  0.1066
 4865SOL    HW223286   0.800   2.868   0.969  0.5264  0.1015  0.1445
 4866SOL     OW23287   6.409   4.283   0.283 -0.6777  0.5717 -0.9789
 4866SOL    HW123288   6.314   4.255   0.272 -0.5401 -0.4436  0.3147
 4866SOL    HW223289   6.430   4.292   0.380  0.0585  2.5445 -1.2787
 4868SOL     OW23290   1.538   0.397   5.697  0.5566  0.2920  0.2832
 4868SOL    HW123291   1.502   0.324   5.639 -0.9197 -0.1675  1.7485
 4868SOL    HW223292   1.523   0.374   5.793  2.5702  1.2551  0.8456
 4869SOL     OW23293   4.898   9.553   4.343 -0.1655 -0.1560  0.4492
 4869SOL    HW123294   4.987   9.507   4.345 -0.5466 -1.1287 -2.6615
 4869SOL    HW223295   4.907   9.643   4.300 -0.6944 -0.2797  0.0711
 4871SOL     OW23296   3.123   6.823   0.052  0.2412  0.6056 -0.1095
 4871SOL    HW123297   3.042   6.828   0.111  1.0027  0.0906  0.9818
 4871SOL    HW223298   3.163   6.915   0.044 -0.1762  0.7762 -0.2721
 4872SOL     OW23299   4.910   1.928   0.239 -0.4513 -0.5122  0.2345
 4872SOL    HW123300   4.912   1.996   0.312 -0.0029 -0.3723  0.0950
 4872SOL    HW223301   4.983   1.948   0.173 -0.8902 -0.6049 -0.2784
 4874SOL     OW23302   9.327   8.721   2.308 -0.5055  0.3278 -1.1527
 4874SOL    HW123303   9.421   8.742   2.334 -0.5906 -0.2056 -0.3765
 4874SOL    HW223304   9.309   8.755   2.216  0.4150  0.5152 -1.2677
 4875SOL     OW23305   7.582   0.643   7.542  0.1741  0.0782 -0.0549
 4875SOL    HW123306   7.672   0.602   7.555 -0.3087  0.2973  5.4707
 4875SOL    HW223307   7.520   0.576   7.502  2.7663  0.0780 -4.3869
 4876SOL     OW23308   4.153   7.776   4.545 -0.0349  0.2281 -0.8797
 4876SOL    HW123309   4.183   7.871   4.545  3.2350 -0.7562 -0.7699
 4876SOL    HW223310   4.134   7.747   4.451  1.4678  0.2605 -1.2043
 4877SOL     OW23311   9.276   0.333   7.230 -0.3504  0.0934  0.9036
 4877SOL    HW123312   9.187   0.367   7.201 -0.1790 -0.2772 -0.0545
 4877SOL    HW223313   9.316   0.278   7.158  0.4883 -0.0672  1.4846
 4878SOL     OW23314   9.922   8.837   5.712 -0.1607  0.3365 -0.0236
 4878SOL    HW123315   9.983   8.912   5.736  0.7898 -0.4708  0.1487
 4878SOL    HW223316   9.909   8.778   5.792  0.9917 -0.9697 -0.7711
 4879SOL     OW23317   8.463   4.214   7.263 -0.0310  0.1109 -0.4579
 4879SOL    HW123318   8.388   4.252   7.317 -0.1655 -2.1115  0.9807
 4879SOL    HW223319   8.550   4.242   7.302 -0.1202 -0.2909  0.0207
 4881SOL     OW23320   0.525   4.687   1.656  0.0954  0.1213  0.0792
 4881SOL    HW123321   0.545   4.775   1.698 -2.3943  1.1667 -0.8451
 4881SOL    HW223322   0.602   4.660   1.598  1.5072  0.9447  1.5169
 4883SOL     OW23323   2.711   3.484   3.897 -0.2263 -0.0983  0.5905
 4883SOL    HW123324   2.799   3.513   3.935 -0.7315  1.9203  0.2679
 4883SOL    HW223325   2.725   3.454   3.802  0.1874 -0.2152  0.6863
 4884SOL     OW23326   2.403   0.501   2.626  0.2920 -0.1611  0.3895
 4884SOL    HW123327   2.361   0.411   2.612  1.1807 -0.7998  1.6702
 4884SOL    HW223328   2.488   0.490   2.677  1.6432  1.1893 -1.5233
 4885SOL     OW23329   8.325   2.498   0.860  0.5241 -0.4253 -0.2530
 4885SOL    HW123330   8.340   2.591   0.825  1.7469  0.0138  1.3655
 4885SOL    HW223331   8.408   2.444   0.846  0.9647 -0.2937  1.7833
 4886SOL     OW23332   4.116   4.846   2.738  0.6754 -0.5374 -0.2118
 4886SOL    HW123333   4.154   4.924   2.688 -2.2809  1.2687  0.2634
 4886SOL    HW223334   4.135   4.857   2.836  1.4282 -1.1204 -0.2889
 4887SOL     OW23335   3.751   3.030   3.172  0.0980 -0.5535  0.6036
 4887SOL    HW123336   3.769   3.011   3.075 -2.0290  2.4501 -0.4782
 4887SOL    HW223337   3.835   3.061   3.216  0.3720  1.5701 -1.2812
 4888SOL     OW23338   5.436   4.943   1.257  0.0674 -0.0333  0.4857
 4888SOL    HW123339   5.419   4.957   1.159 -1.1366 -0.6833  0.5958
 4888SOL    HW223340   5.397   5.019   1.309 -0.6777 -0.4769  0.5786
 4889SOL     OW23341   7.228   0.310   3.452 -0.6552 -0.3089  0.0557
 4889SOL    HW123342   7.294   0.298   3.378  3.9195  1.5225  3.5854
 4889SOL    HW223343   7.213   0.223   3.498  0.0816 -0.5830 -0.2119
 4890SOL     OW23344   1.500   0.930   6.423  0.1849  0.1957 -0.0666
 4890SOL    HW123345   1.474   0.943   6.518  2.1034  2.7182  0.1382
 4890SOL    HW223346   1.589   0.886   6.418  0.7370  1.3622 -0.6765
 4891SOL     OW23347   1.845   5.832   0.420  0.6434 -0.5000  0.3160
 4891SOL    HW123348   1.785   5.822   0.500  2.0627  1.3629  1.6504
 4891SOL    HW223349   1.940   5.837   0.450  1.2002  0.1796 -1.4968
 4892SOL     OW23350   1.898   6.034   7.188 -0.5628 -0.0765  0.3838
 4892SOL    HW123351   1.875   6.001   7.280  0.9859 -1.2672  0.3652
 4892SOL    HW223352   1.843   5.986   7.120 -1.2314  0.3278  0.6353
 4893SOL     OW23353   5.727   1.277   7.950 -0.2153 -0.1401 -0.0520
 4893SOL    HW123354   5.716   1.311   7.856 -2.4033  1.5375  0.7715
 4893SOL    HW223355   5.648   1.222   7.974  0.4537 -0.7578  0.7418
 4894SOL     OW23356   4.951   7.251   4.510 -0.5173 -0.0456  0.8624
 4894SOL    HW123357   4.944   7.156   4.477  2.1328  0.3198 -0.8792
 4894SOL    HW223358   4.860   7.293   4.508 -1.6596 -2.4017  1.2153
 4895SOL     OW23359   6.065   9.874   7.552  0.1822  0.5438  0.3810
 4895SOL    HW123360   6.009   9.906   7.476  1.7816  0.1008 -1.0374
 4895SOL    HW223361   6.162   9.892   7.532  0.7626 -1.1170  1.5580
 4897SOL     OW23362   8.584   4.681   6.165  0.1629 -0.0447 -0.0985
 4897SOL    HW123363   8.631   4.608   6.214 -0.4710 -0.8863 -0.7253
 4897SOL    HW223364   8.592   4.665   6.066 -0.7379  0.2489 -0.2245
 4899SOL     OW23365   8.910   3.873   3.086  0.1738 -0.0307  0.2635
 4899SOL    HW123366   8.835   3.938   3.070  0.3235  0.0620 -0.0721
 4899SOL    HW223367   8.873   3.783   3.106 -0.0237 -0.0467 -0.1775
 4900SOL     OW23368   2.806   5.443   4.939  0.3197  0.2352 -0.4658
 4900SOL    HW123369   2.862   5.367   4.970  0.2254  0.5434  0.5071
 4900SOL    HW223370   2.852   5.491   4.864  0.8517 -0.1545 -0.3914
 4901SOL     OW23371   8.018   9.130   4.970 -0.4444 -0.6980 -0.4707
 4901SOL    HW123372   7.957   9.135   5.049 -0.0188  0.7982 -0.2207
 4901SOL    HW223373   8.072   9.214   4.964  0.9712 -1.6250 -1.1889
 4902SOL     OW23374   3.448   5.501   7.547  0.1803  0.6728 -0.1517
 4902SOL    HW123375   3.367   5.483   7.602 -0.1866 -0.0253 -0.9133
 4902SOL    HW223376   3.472   5.598   7.553  0.4515  0.5086  1.6422
 4904SOL     OW23377   6.545   3.437   2.499 -0.4502  0.0376 -0.4713
 4904SOL    HW123378   6.520   3.534   2.491  0.9859  0.3347 -1.6256
 4904SOL    HW223379   6.518   3.403   2.589 -0.7676  1.5719  0.0391
 4905SOL     OW23380   1.496   1.834   1.023 -0.3986 -0.6123  0.1038
 4905SOL    HW123381   1.440   1.897   1.076 -0.3471  0.9636 -1.6769
 4905SOL    HW223382   1.441   1.794   0.949  0.0092 -1.3854  0.2132
 4906SOL     OW23383   3.886   4.364   6.694  0.1087  0.1498  0.2956
 4906SOL    HW123384   3.934   4.431   6.639  2.5797  0.7594  3.0679
 4906SOL    HW223385   3.812   4.409   6.744 -2.8723 -0.6093 -3.2230
 4908SOL     OW23386   2.983   2.219   4.020 -0.2783  0.1490 -0.4715
 4908SOL    HW123387   2.948   2.167   4.098  0.6499  0.1496 -0.0571
 4908SOL    HW223388   3.050   2.286   4.051  0.0802  0.1617 -1.2633
 4909SOL     OW23389   7.476   0.907   7.629 -0.1976  0.1780 -0.5580
 4909SOL    HW123390   7.398   0.869   7.678 -0.1508  0.5442 -0.2033
 4909SOL    HW223391   7.542   0.834   7.610  0.8290  0.4108  1.8694
 4911SOL     OW23392   5.406   3.808   7.663  0.5444 -0.2217  0.6344
 4911SOL    HW123393   5.395   3.768   7.572 -1.0474 -4.0466  2.4181
 4911SOL    HW223394   5.494   3.856   7.668  1.2059 -1.0050 -2.4916
 4913SOL     OW23395   7.662   9.384   2.120  0.0510  0.1049 -0.7366
 4913SOL    HW123396   7.659   9.419   2.026 -0.8338 -1.3735 -1.2857
 4913SOL    HW223397   7.749   9.337   2.135 -0.4056 -0.9639 -1.3327
 4914SOL     OW23398   8.067   6.817   4.596  0.1183 -0.3032  0.0736
 4914SOL    HW123399   8.147   6.776   4.552  1.2080  0.6985  1.0715
 4914SOL    HW223400   8.081   6.821   4.695 -0.4360  1.3999  0.1047
 4917SOL     OW23401   1.818   8.492   1.442 -0.7791 -0.6179 -0.0690
 4917SOL    HW123402   1.900   8.439   1.419 -1.4773 -1.9944  0.5274
 4917SOL    HW223403   1.830   8.537   1.530 -0.1094  0.3726 -0.6651
 4918SOL     OW23404   0.237   0.418   2.946  0.4120 -0.3633 -0.0145
 4918SOL    HW123405   0.207   0.510   2.922 -1.1102 -1.3157 -1.9453
 4918SOL    HW223406   0.178   0.380   3.017  0.5420 -0.1354  0.2131
 4919SOL     OW23407   3.076   9.105   1.219 -0.3338  0.1867  0.2709
 4919SOL    HW123408   3.050   9.034   1.284 -1.8900 -1.0627 -1.6645
 4919SOL    HW223409   3.156   9.075   1.167 -1.3505 -0.4215 -0.9582
 4920SOL     OW23410   2.996   2.437   5.022 -0.5339  0.2345  0.0531
 4920SOL    HW123411   2.940   2.515   4.993 -1.2861 -0.2025  0.3216
 4920SOL    HW223412   2.945   2.383   5.090  0.4097  0.1195  0.6779
 4923SOL     OW23413   3.714   4.400   2.006  0.5139  0.3933 -0.1878
 4923SOL    HW123414   3.705   4.414   1.908 -2.0032 -1.4297 -0.2518
 4923SOL    HW223415   3.640   4.446   2.054 -0.3900 -1.7426  0.5443
 4924SOL     OW23416   5.820   4.903   1.854 -0.4082  0.0281 -0.4239
 4924SOL    HW123417   5.813   5.003   1.851 -1.9317 -0.0464  0.2214
 4924SOL    HW223418   5.759   4.868   1.925  0.5807 -1.3256 -0.2334
 4925SOL     OW23419   3.388   5.038   5.513  0.5033  0.1519 -0.3319
 4925SOL    HW123420   3.440   4.999   5.589  1.1748  0.1288 -0.8043
 4925SOL    HW223421   3.348   5.125   5.542  1.3002  0.4640 -0.1553
 4926SOL     OW23422   0.641   1.470   5.950 -0.1567  0.4706  0.0943
 4926SOL    HW123423   0.606   1.504   5.863 -0.2305  0.9969  0.3276
 4926SOL    HW223424   0.736   1.501   5.962  0.0600 -0.1160 -0.0798
 4929SOL     OW23425   1.042   5.632   1.030  0.2421  0.0173 -0.5423
 4929SOL    HW123426   1.071   5.683   1.111 -0.2748 -3.8570  2.2623
 4929SOL    HW223427   0.969   5.682   0.984  0.2088  2.1172  1.6656
 4930SOL     OW23428   4.542   0.062   3.023  0.1191 -0.8542 -0.4401
 4930SOL    HW123429   4.481   0.025   3.093 -1.4272  0.5139 -1.0099
 4930SOL    HW223430   4.579   0.150   3.054  0.7092 -1.0236 -0.6642
 4931SOL     OW23431   9.576   1.981   0.088  0.1396 -0.5141  0.2414
 4931SOL    HW123432   9.484   1.966   0.051  0.5281  1.0200 -1.4098
 4931SOL    HW223433   9.621   1.893   0.102 -1.2211 -1.2383  0.1371
 4933SOL     OW23434   0.152   6.979   4.597 -0.1501 -0.1557  0.0408
 4933SOL    HW123435   0.229   6.915   4.589 -0.3573 -0.4282  0.2103
 4933SOL    HW223436   0.076   6.947   4.541 -0.8586 -0.9613  1.4232
 4934SOL     OW23437   1.599   9.367   2.599  0.5942 -0.3062 -0.1348
 4934SOL    HW123438   1.661   9.349   2.676  1.1497  0.1304 -0.4756
 4934SOL    HW223439   1.649   9.357   2.513 -0.0111 -0.7269 -0.4415
 4936SOL     OW23440   6.636   8.697   5.608  0.1037  0.4689  0.6313
 4936SOL    HW123441   6.709   8.737   5.665  0.3274 -2.1302  2.2327
 4936SOL    HW223442   6.547   8.730   5.639  0.1907 -1.2888  2.8580
 4937SOL     OW23443   3.479   8.035   2.310 -0.3114 -0.2899 -0.2846
 4937SOL    HW123444   3.537   7.956   2.295 -1.2320 -1.5793  2.6191
 4937SOL    HW223445   3.519   8.094   2.380 -1.6512 -0.3214  0.5251
 4938SOL     OW23446   7.794   3.200   2.346 -0.0610  0.1472 -0.9316
 4938SOL    HW123447   7.730   3.127   2.319  0.7192 -0.3366 -1.4783
 4938SOL    HW223448   7.820   3.252   2.265 -0.5476  0.9800 -0.5509
 4940SOL     OW23449   7.230   5.822   4.237  0.3589  0.3099 -0.0290
 4940SOL    HW123450   7.205   5.742   4.291 -2.0441  0.5638 -0.7165
 4940SOL    HW223451   7.228   5.798   4.140  0.7391  0.9156 -0.1905
 4941SOL     OW23452   3.972   4.852   1.013  0.0993  0.0105 -0.4963
 4941SOL    HW123453   4.015   4.762   1.007 -1.9189 -0.9274 -1.3700
 4941SOL    HW223454   3.975   4.896   0.923 -1.1671 -0.2594 -0.6732
 4943SOL     OW23455   2.890   7.850   5.526 -0.4190 -0.5154 -0.1934
 4943SOL    HW123456   2.986   7.853   5.498 -0.6162 -0.0718 -0.8460
 4943SOL    HW223457   2.837   7.802   5.456 -0.9122  0.5384 -0.5510
 4946SOL     OW23458   1.598   9.420   6.268  0.5224  0.1355 -0.3343
 4946SOL    HW123459   1.645   9.504   6.294 -0.7071  1.4739 -2.2431
 4946SOL    HW223460   1.526   9.401   6.334 -0.4813  1.7162 -0.9198
 4948SOL     OW23461   9.554   2.891   7.729 -0.2412 -0.0569  0.1508
 4948SOL    HW123462   9.527   2.859   7.638  1.4861 -1.0678 -0.0336
 4948SOL    HW223463   9.650   2.867   7.745 -0.2140  1.0948  1.8075
 4949SOL     OW23464   2.311   2.010   5.714  0.2117  0.0626 -0.0733
 4949SOL    HW123465   2.215   2.001   5.739  0.2625  1.0014  0.5064
 4949SOL    HW223466   2.352   1.920   5.704 -1.0218 -0.3456 -1.4647
 4950SOL     OW23467   0.109   7.965   6.562  0.5819  0.2285  0.1343
 4950SOL    HW123468   0.189   8.023   6.552  0.4289  0.3494 -0.4003
 4950SOL    HW223469   0.072   7.942   6.471  0.4054 -0.3685  0.3505
 4951SOL     OW23470   6.265   9.191   1.868 -0.4872 -0.5150 -0.2321
 4951SOL    HW123471   6.219   9.108   1.839 -0.7794 -0.5600  0.3561
 4951SOL    HW223472   6.353   9.198   1.822 -1.1064 -0.3945 -1.4196
 4952SOL     OW23473   3.748   3.847   1.787  0.3706 -0.2367  0.6924
 4952SOL    HW123474   3.653   3.829   1.810  0.8474 -0.8050  2.3343
 4952SOL    HW223475   3.785   3.916   1.849  1.4237 -1.0707  1.0101
 4953SOL     OW23476   7.466   2.913   1.590  0.1771  0.0911  0.5207
 4953SOL    HW123477   7.389   2.850   1.580  0.2454  0.1430 -0.3562
 4953SOL    HW223478   7.433   2.999   1.629 -0.3790  0.4500 -0.7309
 4954SOL     OW23479   7.313   7.255   6.110  0.3219 -0.0265 -0.0688
 4954SOL    HW123480   7.329   7.157   6.102  2.6468  0.0648  2.8436
 4954SOL    HW223481   7.392   7.305   6.075  0.7613  0.7110  1.9152
 4955SOL     OW23482   0.038   0.540   1.533  0.3786  0.2044 -0.9358
 4955SOL    HW123483  -0.048   0.514   1.579  0.1673  2.0861 -0.2108
 4955SOL    HW223484   0.101   0.462   1.534 -2.2904 -2.1216 -3.8958
 4956SOL     OW23485   3.138   8.139   7.714 -0.6641 -0.0376  0.2804
 4956SOL    HW123486   3.215   8.132   7.778 -0.7024 -0.1115  0.3181
 4956SOL    HW223487   3.143   8.065   7.647 -0.2302  0.4503 -0.2366
 4957SOL     OW23488   0.559   7.999   7.024  0.1829  0.0208  0.5126
 4957SOL    HW123489   0.512   8.069   7.079  0.0346 -0.7702  1.4136
 4957SOL    HW223490   0.507   7.983   6.940 -0.0514  0.6250  0.5332
 4959SOL     OW23491   1.788   5.908   7.411 -0.3129  0.4097  0.6524
 4959SOL    HW123492   1.840   5.825   7.433 -1.4379  0.2328  2.7653
 4959SOL    HW223493   1.695   5.882   7.384 -0.5053  0.9504  0.8014
 4960SOL     OW23494   8.996   8.820   7.296 -0.5350 -0.3063  0.3171
 4960SOL    HW123495   9.090   8.787   7.308 -0.4093  0.1985  0.7292
 4960SOL    HW223496   8.997   8.912   7.256 -0.8147  0.1945  1.4355
 4962SOL     OW23497   1.451   2.452   0.134 -0.1506 -0.4009 -0.3040
 4962SOL    HW123498   1.438   2.445   0.233 -0.3773 -0.7329 -0.3567
 4962SOL    HW223499   1.544   2.423   0.111 -0.0340 -0.1403 -0.1693
 4963SOL     OW23500   4.103   0.888   6.235  0.1537 -0.0486 -0.1005
 4963SOL    HW123501   4.073   0.889   6.330  0.2536  0.2371 -0.0714
 4963SOL    HW223502   4.191   0.840   6.229 -0.1517 -0.6028 -0.1391
 4964SOL     OW23503   2.319   6.599   6.557  0.2537  0.1020  0.2226
 4964SOL    HW123504   2.328   6.548   6.642 -0.3760  0.1988  0.3512
 4964SOL    HW223505   2.277   6.541   6.488 -0.2447  0.3721  0.2991
 4966SOL     OW23506   8.003   6.175   0.855 -0.0645  0.7135  0.1857
 4966SOL    HW123507   7.905   6.159   0.846  0.0915 -1.1237  1.3886
 4966SOL    HW223508   8.021   6.273   0.866 -1.9391  0.8798  2.0322
 4967SOL     OW23509   2.438   3.032   3.258 -0.0384 -0.1689  0.0641
 4967SOL    HW123510   2.356   3.077   3.221 -1.8640 -1.4729  2.3583
 4967SOL    HW223511   2.477   2.972   3.188 -0.5587  1.1113 -1.3409
 4969SOL     OW23512   1.662   9.975   2.910 -0.1378  0.1598 -0.1647
 4969SOL    HW123513   1.578   9.935   2.874 -0.4010  0.2345  0.3674
 4969SOL    HW223514   1.652  10.075   2.912  0.3956  0.2400 -1.1856
 4970SOL     OW23515   5.865   8.233   3.906 -0.7261  0.5873  0.1059
 4970SOL    HW123516   5.789   8.174   3.876  0.0659  0.0007 -0.7926
 4970SOL    HW223517   5.891   8.208   3.999 -0.3316 -0.5777 -0.3019
 4971SOL     OW23518   9.260   6.743   6.723  0.0401  0.2167  0.1252
 4971SOL    HW123519   9.244   6.781   6.632  1.1757  0.0974 -0.1265
 4971SOL    HW223520   9.230   6.648   6.726  2.3532 -0.5707 -0.8831
 4972SOL     OW23521   1.159   2.774   3.600  0.3441 -0.3495  0.4101
 4972SOL    HW123522   1.083   2.777   3.535  0.3723  2.3149  0.4696
 4972SOL    HW223523   1.238   2.732   3.557 -0.3964 -0.8735 -0.4540
 4973SOL     OW23524   2.183   1.463   3.984  0.1802 -0.5219 -0.1186
 4973SOL    HW123525   2.109   1.452   4.050 -1.7440  0.6218 -2.0130
 4973SOL    HW223526   2.166   1.406   3.904  1.7716 -0.8538 -0.2438
 4975SOL     OW23527   2.997   0.014   1.732  0.3013 -0.0421 -0.4246
 4975SOL    HW123528   3.080   0.068   1.745  1.4722 -1.5746 -1.2884
 4975SOL    HW223529   3.005  -0.039   1.647 -0.8894 -1.3777  0.2765
 4976SOL     OW23530   2.144   0.903   7.252  0.7563  0.1335  0.1817
 4976SOL    HW123531   2.095   0.823   7.287 -0.5472  0.6821 -0.3821
 4976SOL    HW223532   2.236   0.905   7.291  0.2174 -0.7069  1.5238
 4977SOL     OW23533   8.738   1.677   2.688 -0.4544 -0.1109 -0.0037
 4977SOL    HW123534   8.682   1.710   2.764  1.8573  1.0853  1.2377
 4977SOL    HW223535   8.762   1.581   2.704  1.3660  0.5862  1.6471
 4978SOL     OW23536   4.330   8.017   5.842 -0.2720  0.0666 -0.4380
 4978SOL    HW123537   4.279   8.103   5.833 -0.2619  0.1736  0.4701
 4978SOL    HW223538   4.318   7.962   5.759  2.0529  2.1690 -2.2029
 4979SOL     OW23539   4.922   8.928   6.578 -0.1028 -0.0891 -0.3086
 4979SOL    HW123540   4.893   8.904   6.671 -0.0866  2.2916  0.3276
 4979SOL    HW223541   5.018   8.956   6.579  0.6263 -2.3759 -1.4811
 4980SOL     OW23542   9.701   1.335   5.731 -0.0269  0.4632 -0.5449
 4980SOL    HW123543   9.665   1.429   5.730 -1.3047 -0.0110  0.3075
 4980SOL    HW223544   9.667   1.285   5.652  1.0021  0.8400 -1.2323
 4981SOL     OW23545   1.129   3.305   5.741  0.1094 -0.0518  0.2803
 4981SOL    HW123546   1.177   3.275   5.824  0.6170  0.2597  0.0990
 4981SOL    HW223547   1.104   3.401   5.750  2.7937  0.8270 -1.1347
 4986SOL     OW23548   0.635   5.118   1.680 -0.1579 -0.1636  1.0378
 4986SOL    HW123549   0.704   5.189   1.665 -0.9534  0.2413 -0.8017
 4986SOL    HW223550   0.547   5.149   1.644 -0.7859 -1.6000  1.3154
 4987SOL     OW23551   8.344   4.087   4.198 -0.3583  0.2141  0.2048
 4987SOL    HW123552   8.419   4.061   4.137 -0.3410  1.1854 -0.1816
 4987SOL    HW223553   8.259   4.089   4.146 -0.5614 -0.3043  0.5161
 4989SOL     OW23554   8.724   9.697   3.681  0.7744 -0.0202 -0.0402
 4989SOL    HW123555   8.677   9.772   3.727 -0.0293 -0.6909  0.2495
 4989SOL    HW223556   8.775   9.643   3.748  0.1166 -0.6200 -0.0092
 4990SOL     OW23557   8.781   2.953   4.950 -0.3498  0.6791  0.3093
 4990SOL    HW123558   8.824   2.971   4.861  2.3468  0.7111  1.5444
 4990SOL    HW223559   8.708   2.886   4.940 -0.9263  1.6191 -2.1147
 4991SOL     OW23560   3.623   9.640   1.771  0.7924 -0.3356  0.2067
 4991SOL    HW123561   3.543   9.615   1.716  0.7077 -1.3209  0.7614
 4991SOL    HW223562   3.595   9.700   1.845  0.6209 -0.3795  0.1787
 4992SOL     OW23563   0.392   0.335   0.294 -0.4204 -0.4506  0.4994
 4992SOL    HW123564   0.400   0.237   0.272 -1.0588 -0.0007 -1.8174
 4992SOL    HW223565   0.483   0.377   0.291 -0.4157 -0.5256 -0.7651
 4993SOL     OW23566   1.113   3.426   3.867 -0.2771 -0.0490 -0.1122
 4993SOL    HW123567   1.192   3.374   3.899 -0.7534 -0.3149  0.6415
 4993SOL    HW223568   1.065   3.465   3.945  0.0868  1.5475 -0.6680
 4994SOL     OW23569   6.519   3.525   0.605  0.3068  0.2446  0.2535
 4994SOL    HW123570   6.451   3.454   0.591  1.1053 -0.3608 -0.6334
 4994SOL    HW223571   6.512   3.592   0.531 -0.3169  0.9918  0.9812
 4997SOL     OW23572   1.150   7.134   1.348  0.1003  0.4567 -0.2398
 4997SOL    HW123573   1.068   7.077   1.351  0.5200 -0.1571 -0.3957
 4997SOL    HW223574   1.169   7.159   1.253  0.3073  0.2855 -0.2440
 4999SOL     OW23575   3.708   5.095   3.092 -0.3250 -0.0087  0.3281
 4999SOL    HW123576   3.745   5.045   3.013 -0.9369 -1.2895  0.8367
 4999SOL    HW223577   3.679   5.030   3.162 -1.4781  1.0585  0.8639
 5000SOL     OW23578   8.543   2.030   0.654 -0.2748  0.0403  0.0387
 5000SOL    HW123579   8.622   1.969   0.662  0.5244  1.0480 -0.1355
 5000SOL    HW223580   8.486   2.020   0.735  0.3448 -0.2446  0.4475
 5001SOL     OW23581   1.330   4.036   2.705 -0.0534  0.0432 -0.1927
 5001SOL    HW123582   1.231   4.043   2.719 -0.3028  0.5253 -2.0033
 5001SOL    HW223583   1.354   3.940   2.691  0.1764 -0.4213  3.0535
 5002SOL     OW23584   8.909   4.103   1.982 -0.0276  0.6972  0.2093
 5002SOL    HW123585   8.958   4.157   1.914 -1.7564  2.7217  0.4794
 5002SOL    HW223586   8.812   4.100   1.958  0.2156 -3.6317 -0.5962
 5004SOL     OW23587   3.515   0.543   1.701 -0.3288  0.7776  0.2252
 5004SOL    HW123588   3.503   0.594   1.616 -1.1180 -0.9132 -0.7055
 5004SOL    HW223589   3.458   0.582   1.773 -3.2282 -0.5686 -1.2731
 5006SOL     OW23590   1.972   5.667   5.800  0.4097  0.2594 -0.3663
 5006SOL    HW123591   1.923   5.642   5.883  0.0029  0.4724 -0.5411
 5006SOL    HW223592   1.912   5.653   5.721  0.6850  0.3641 -0.5929
 5007SOL     OW23593   3.776   6.339   3.651 -0.1768  0.3031 -0.3304
 5007SOL    HW123594   3.765   6.397   3.570 -1.8489  0.6451  0.1236
 5007SOL    HW223595   3.699   6.275   3.657  0.6931 -0.7089  0.1986
 5008SOL     OW23596   1.808   5.175   1.265  0.3235 -0.0508 -0.1661
 5008SOL    HW123597   1.751   5.189   1.184 -0.4954  0.1713  0.4305
 5008SOL    HW223598   1.877   5.246   1.271  0.9028 -0.5311 -1.0983
 5009SOL     OW23599   9.053   1.068   4.462 -0.1293 -0.1339 -0.5500
 5009SOL    HW123600   9.037   0.998   4.531  2.4757  0.6118  0.8669
 5009SOL    HW223601   9.116   1.034   4.393  3.1531  1.5234  1.4831
 5010SOL     OW23602   1.569   3.395   6.256  0.2129 -0.3191 -0.1739
 5010SOL    HW123603   1.600   3.350   6.173  0.2641  2.6900 -1.8492
 5010SOL    HW223604   1.469   3.396   6.258  0.1841  1.3966 -1.2659
 5011SOL     OW23605   2.506   7.932   3.647  0.1105  0.1443  0.1593
 5011SOL    HW123606   2.586   7.924   3.588  0.0012  1.7463 -0.2326
 5011SOL    HW223607   2.426   7.956   3.592 -0.2031  0.6160  0.8032
 5012SOL     OW23608   5.757   8.810   7.540  1.0594  0.3494 -0.1221
 5012SOL    HW123609   5.702   8.737   7.580  2.0628 -0.0625  0.5526
 5012SOL    HW223610   5.716   8.899   7.561  0.6938  0.0526  0.4179
 5013SOL     OW23611   0.085   3.910   5.182 -0.5780 -0.2230  0.5052
 5013SOL    HW123612  -0.011   3.939   5.183 -0.7757 -0.8402 -0.0869
 5013SOL    HW223613   0.133   3.957   5.108 -0.6642 -0.6431  0.1761
 5014SOL     OW23614   2.493   2.498   2.709  0.3811  0.4912 -0.1800
 5014SOL    HW123615   2.471   2.513   2.806 -0.6035  1.3489 -0.5299
 5014SOL    HW223616   2.475   2.582   2.658  2.4502  0.5622 -0.8517
 5015SOL     OW23617   3.793   2.269   0.146  0.5206 -0.2233 -0.4431
 5015SOL    HW123618   3.845   2.297   0.065  2.4996 -1.4284  0.3693
 5015SOL    HW223619   3.806   2.336   0.219 -0.0431  0.0845 -0.6220
 5016SOL     OW23620   8.770   7.374   5.953  0.0853 -0.2279  0.1245
 5016SOL    HW123621   8.686   7.338   5.994 -0.2278  0.6551  0.2818
 5016SOL    HW223622   8.805   7.310   5.885 -1.7295  0.2132 -1.2599
 5017SOL     OW23623   9.019   9.279   6.885  0.2805 -0.3097 -0.2983
 5017SOL    HW123624   9.016   9.360   6.944  2.1664  0.8597 -1.7522
 5017SOL    HW223625   9.113   9.248   6.875 -0.1530 -1.2484 -1.6800
 5018SOL     OW23626   3.051   7.344   1.641  0.2311  0.4131  0.0974
 5018SOL    HW123627   3.092   7.358   1.731 -0.2216 -0.0572  0.3804
 5018SOL    HW223628   3.059   7.248   1.614  0.9109  0.6697 -0.6380
 5020SOL     OW23629   4.933   7.150   1.430 -0.1838  0.2470 -0.0464
 5020SOL    HW123630   4.912   7.245   1.406  1.6793  1.3634  2.4495
 5020SOL    HW223631   5.028   7.130   1.405 -0.0204 -0.3734  1.0408
 5021SOL     OW23632   8.324   7.655   4.794  0.0484  0.3546 -0.0636
 5021SOL    HW123633   8.366   7.665   4.884 -1.5555  1.5531  0.5859
 5021SOL    HW223634   8.246   7.593   4.800  1.1024 -1.0901 -1.0488
 5023SOL     OW23635   1.376   4.709   6.004  0.0355  0.0661  0.1394
 5023SOL    HW123636   1.406   4.805   6.007 -0.5921  0.3050 -0.7737
 5023SOL    HW223637   1.379   4.677   5.909 -1.3801 -0.2827  0.1944
 5024SOL     OW23638   0.396   2.188   2.143  0.0942  0.4235  0.8544
 5024SOL    HW123639   0.481   2.141   2.122  0.4372  0.9167  1.1332
 5024SOL    HW223640   0.319   2.134   2.110  0.5200  0.0283  0.5062
 5026SOL     OW23641   1.041   9.331   6.161  0.0832 -0.3077 -0.1630
 5026SOL    HW123642   1.013   9.380   6.078  1.1297  0.2841 -0.1679
 5026SOL    HW223643   0.959   9.303   6.212 -0.6011 -1.7970 -2.0219
 5027SOL     OW23644   1.753   0.830   0.173  0.4002 -0.2832  0.5450
 5027SOL    HW123645   1.785   0.919   0.204 -0.3151  0.2704 -0.3014
 5027SOL    HW223646   1.741   0.770   0.252 -1.0736  1.0054  1.3156
 5028SOL     OW23647   2.199   5.143   3.484 -0.1410 -0.2762  0.7038
 5028SOL    HW123648   2.194   5.237   3.520  2.6907  0.7361 -1.3830
 5028SOL    HW223649   2.216   5.080   3.560  1.8636  1.3693  1.6811
 5029SOL     OW23650   7.434   9.676   6.427 -0.7540 -0.1736  0.0728
 5029SOL    HW123651   7.406   9.754   6.370  1.1290 -0.1393 -0.8224
 5029SOL    HW223652   7.496   9.618   6.375 -0.0239 -0.8322  1.6696
 5030SOL     OW23653   0.078   3.892   4.347 -0.1277  0.3721  0.0073
 5030SOL    HW123654   0.061   3.795   4.364  0.6310  0.0154 -1.2421
 5030SOL    HW223655   0.009   3.927   4.283  0.6986  0.2047 -0.9779
 5033SOL     OW23656   9.812   5.830   1.434 -0.6203  0.0513  0.4844
 5033SOL    HW123657   9.829   5.784   1.521 -0.0959  1.2700  1.0295
 5033SOL    HW223658   9.895   5.827   1.378 -0.8259 -0.3531  0.1978
 5034SOL     OW23659   9.555   3.191   7.145  0.6787 -0.0430  0.5184
 5034SOL    HW123660   9.532   3.169   7.240 -1.6182 -0.0105  0.0140
 5034SOL    HW223661   9.561   3.290   7.134  0.5542 -0.0307  0.5564
 5035SOL     OW23662   9.657   1.935   6.703 -0.0749  0.0863 -0.4609
 5035SOL    HW123663   9.587   1.947   6.632  0.1621 -0.0927 -0.7287
 5035SOL    HW223664   9.612   1.919   6.791 -0.3737 -0.4025 -0.6972
 5040SOL     OW23665   1.000   7.205   2.590 -0.4902 -0.2939  0.3258
 5040SOL    HW123666   0.942   7.182   2.511  0.1676  2.1581 -0.8985
 5040SOL    HW223667   1.088   7.158   2.581  0.0726  0.9822 -1.1067
 5041SOL     OW23668   3.828   0.895   7.318 -0.0078 -0.1643 -0.3501
 5041SOL    HW123669   3.864   0.890   7.225 -0.6771  0.9084 -0.6816
 5041SOL    HW223670   3.777   0.812   7.339  0.5524 -0.6200 -0.7550
 5042SOL     OW23671   9.956   4.375   6.582  0.0668 -0.3282  0.5519
 5042SOL    HW123672  10.043   4.366   6.535  0.2554  0.4653  0.7418
 5042SOL    HW223673   9.962   4.332   6.672  1.0741  1.9343  1.6060
 5044SOL     OW23674   0.911   2.227   5.472 -0.3260 -0.2710 -0.0430
 5044SOL    HW123675   0.984   2.217   5.404 -0.6316  1.8308 -0.7456
 5044SOL    HW223676   0.908   2.322   5.503 -1.8612 -0.6421  1.0181
 5045SOL     OW23677   2.558   7.247   3.015 -0.8316 -0.3180  0.4805
 5045SOL    HW123678   2.650   7.207   3.021 -0.7219 -0.2654 -0.6318
 5045SOL    HW223679   2.564   7.335   2.967 -1.3164  0.1808  1.3394
 5046SOL     OW23680   7.187   1.294   2.345 -0.2177 -0.0597 -0.1968
 5046SOL    HW123681   7.235   1.249   2.421 -0.2967  1.8660  1.0298
 5046SOL    HW223682   7.253   1.320   2.275  0.0601 -0.5413 -0.1164
 5047SOL     OW23683   5.959   5.420   1.738 -0.1919  0.0189 -0.1045
 5047SOL    HW123684   6.012   5.438   1.656  2.7072  1.5030  2.0202
 5047SOL    HW223685   5.950   5.321   1.752  1.6987 -0.2503 -0.7158
 5048SOL     OW23686   8.397   0.238   5.913 -0.1833 -0.1313  0.1724
 5048SOL    HW123687   8.350   0.309   5.860  0.5223  1.3157  1.4218
 5048SOL    HW223688   8.476   0.204   5.861 -0.4022  0.1527 -0.3506
 5049SOL     OW23689   1.501   7.656   3.812 -0.4136  0.3053  0.0618
 5049SOL    HW123690   1.496   7.564   3.776  0.6343  0.7285 -1.1847
 5049SOL    HW223691   1.589   7.670   3.858 -0.2444  0.9239 -0.4400
 5050SOL     OW23692   4.952   6.480   2.123  0.4711  0.3510  0.5113
 5050SOL    HW123693   4.994   6.561   2.163  0.3203  1.6229 -1.7836
 5050SOL    HW223694   4.852   6.487   2.129  0.4718  0.1000  0.7866
 5051SOL     OW23695   2.850   7.681   4.095  0.3076 -0.0326  0.4151
 5051SOL    HW123696   2.812   7.695   4.187  0.6232 -1.6449  0.8187
 5051SOL    HW223697   2.796   7.733   4.029  0.1653  1.2677  1.5255
 5052SOL     OW23698   7.212   1.364   7.609  0.2959  0.3638 -0.1135
 5052SOL    HW123699   7.129   1.374   7.553  0.5529 -0.2943 -0.6205
 5052SOL    HW223700   7.267   1.289   7.574  1.5096  1.3032 -0.2738
 5053SOL     OW23701   9.315   0.921   5.145  0.2675 -0.1589 -0.1951
 5053SOL    HW123702   9.378   0.915   5.067  0.4213 -1.0226 -0.0101
 5053SOL    HW223703   9.327   0.840   5.204 -0.3341  0.1485  0.3534
 5056SOL     OW23704   8.681   8.020   5.219 -0.8155 -0.8976  0.8094
 5056SOL    HW123705   8.738   8.101   5.204  0.2888 -1.9675 -0.9438
 5056SOL    HW223706   8.668   7.972   5.132 -1.4096 -2.6338  1.8388
 5057SOL     OW23707   4.981   9.652   3.921 -0.0117  0.9741  0.1561
 5057SOL    HW123708   4.922   9.583   3.878  0.0315  0.7475  0.4550
 5057SOL    HW223709   5.077   9.626   3.909 -0.0157  0.4658  1.0997
 5058SOL     OW23710   0.844   3.514   7.943 -0.3498 -0.0033 -0.6325
 5058SOL    HW123711   0.758   3.464   7.931 -0.4655 -0.2849  1.3167
 5058SOL    HW223712   0.900   3.501   7.861 -1.7363 -0.6263 -1.5198
 5060SOL     OW23713   9.660   6.190   6.240  0.5564  0.0304  0.1071
 5060SOL    HW123714   9.721   6.136   6.182 -0.8635 -1.6691  0.1517
 5060SOL    HW223715   9.574   6.207   6.191  0.6703  1.5562  0.4161
 5061SOL     OW23716   5.253   3.827   1.749 -0.6421 -0.7962 -0.0663
 5061SOL    HW123717   5.281   3.851   1.842  0.5629 -1.7351 -0.1769
 5061SOL    HW223718   5.227   3.909   1.700  0.5841 -0.0671  0.4905
 5062SOL     OW23719   2.221   4.869   2.043 -0.4523  0.0424  0.5642
 5062SOL    HW123720   2.184   4.776   2.045 -2.0020  0.6298 -0.3032
 5062SOL    HW223721   2.149   4.934   2.067  0.1233  1.1717 -0.7287
 5063SOL     OW23722   8.394   5.737   4.599  0.4412  0.1412  0.1990
 5063SOL    HW123723   8.354   5.742   4.691 -0.4967  1.1440 -0.2512
 5063SOL    HW223724   8.363   5.653   4.555 -0.4561  0.4619  0.1972
 5066SOL     OW23725   2.512   5.596   4.653 -0.2947  0.0690  0.4166
 5066SOL    HW123726   2.538   5.543   4.573  0.9378  0.6158  0.4438
 5066SOL    HW223727   2.509   5.537   4.733 -1.7857 -0.5342 -0.0628
 5067SOL     OW23728   0.434   2.797   7.746 -0.1468  0.2696 -0.8885
 5067SOL    HW123729   0.525   2.811   7.706  0.5282 -1.0821  0.1513
 5067SOL    HW223730   0.419   2.865   7.818  1.5696 -1.8185  1.4998
 5070SOL     OW23731   4.512   4.832   2.802  0.6493  0.5886 -0.6503
 5070SOL    HW123732   4.606   4.834   2.835  0.3488 -1.3912  0.4535
 5070SOL    HW223733   4.509   4.855   2.705  2.3661 -0.0056 -0.8497
 5071SOL     OW23734   9.817   6.026   3.396 -0.2958 -0.1120  0.0482
 5071SOL    HW123735   9.899   6.063   3.440  1.3565 -1.7940 -1.5494
 5071SOL    HW223736   9.779   5.953   3.453  0.4636 -0.6667 -0.1474
 5072SOL     OW23737   5.406   7.718   4.555 -0.8389  0.4520 -0.1141
 5072SOL    HW123738   5.442   7.713   4.461 -0.6716 -0.2845 -0.0175
 5072SOL    HW223739   5.410   7.627   4.596  1.9177  1.3149  1.6584
 5073SOL     OW23740   0.664   0.695   5.638 -0.4626 -0.1847 -0.0760
 5073SOL    HW123741   0.656   0.604   5.679 -0.1495  0.2395  0.9599
 5073SOL    HW223742   0.757   0.730   5.651 -0.7062  0.4735 -0.0449
 5074SOL     OW23743   2.637   0.769   4.337 -0.3450  0.0111 -0.4184
 5074SOL    HW123744   2.620   0.766   4.436  0.1315  0.8189 -0.3100
 5074SOL    HW223745   2.703   0.699   4.312 -1.4368 -1.0574 -0.3633
 5075SOL     OW23746   1.506   3.144   4.034 -0.6271 -0.6638  0.3284
 5075SOL    HW123747   1.603   3.159   4.017 -0.8591 -0.2611 -0.7185
 5075SOL    HW223748   1.479   3.055   3.999 -1.1544  0.2576 -1.6780
 5076SOL     OW23749   8.774   4.522   2.996  0.1715  0.3528 -0.6573
 5076SOL    HW123750   8.804   4.437   3.038  0.3308  0.9780  0.5150
 5076SOL    HW223751   8.675   4.521   2.983 -0.1661  1.0439  1.7783
 5077SOL     OW23752   4.322   0.721   6.146 -0.0906 -0.0162  0.4639
 5077SOL    HW123753   4.341   0.626   6.170  1.8901  0.4362  0.7227
 5077SOL    HW223754   4.407   0.774   6.146 -1.0180  1.5226 -0.7547
 5078SOL     OW23755   4.041   4.372   4.923  0.2505 -0.1255 -0.3998
 5078SOL    HW123756   4.049   4.320   5.007 -1.1407 -1.6054 -1.1478
 5078SOL    HW223757   3.971   4.330   4.864  1.4112  0.6891 -2.4115
 5079SOL     OW23758   4.360   3.737   4.859 -0.2072 -0.0115 -0.7709
 5079SOL    HW123759   4.318   3.783   4.780 -0.7150  0.9043  0.0176
 5079SOL    HW223760   4.446   3.782   4.881 -0.9977  0.9956  0.3816
 5080SOL     OW23761   5.553   5.504   1.000  0.1250 -0.5178 -0.3441
 5080SOL    HW123762   5.552   5.410   1.034 -3.7199 -0.3964  0.0066
 5080SOL    HW223763   5.533   5.505   0.902  0.6024 -0.0812 -0.4392
 5081SOL     OW23764   5.594   4.548   7.674  0.2603  0.3030  0.1843
 5081SOL    HW123765   5.514   4.501   7.711  0.6206  0.1266  0.7536
 5081SOL    HW223766   5.575   4.577   7.581 -0.9398  1.4307  0.7671
 5083SOL     OW23767   7.075   6.989   3.067  0.7436  0.0517 -0.3344
 5083SOL    HW123768   7.159   6.942   3.095  0.0823 -1.3114 -0.5888
 5083SOL    HW223769   7.068   7.077   3.114  1.9026 -0.1943  0.3126
 5085SOL     OW23770   2.293   0.167   1.919  0.1996  0.3585 -0.0133
 5085SOL    HW123771   2.201   0.205   1.922 -0.8315 -1.8321 -2.2310
 5085SOL    HW223772   2.320   0.150   1.824  1.7878 -1.5549  0.7324
 5086SOL     OW23773   7.791   0.255   3.648  0.4383 -0.1665  0.7492
 5086SOL    HW123774   7.797   0.339   3.595 -1.1862  1.0136  2.4199
 5086SOL    HW223775   7.695   0.227   3.657  0.8002 -1.1045  1.8917
 5088SOL     OW23776   9.278   1.090   4.246  0.2393 -0.1478  0.1882
 5088SOL    HW123777   9.211   1.131   4.184  1.1630  0.1905 -0.6032
 5088SOL    HW223778   9.299   0.997   4.214  2.0915  0.6973 -1.0767
 5089SOL     OW23779   5.396   8.494   7.402 -0.2710 -1.0223  0.2492
 5089SOL    HW123780   5.325   8.431   7.432 -0.4462 -0.7064  0.5118
 5089SOL    HW223781   5.357   8.565   7.344 -0.3261 -0.3805  1.0515
 5090SOL     OW23782   4.962   0.657   7.753  0.2833 -0.1379  0.3207
 5090SOL    HW123783   5.026   0.590   7.716 -0.7393  0.0970 -1.9183
 5090SOL    HW223784   4.870   0.639   7.717 -0.5570  0.6844  2.0161
 5091SOL     OW23785   5.956   8.655   2.373 -0.0611 -0.0759  0.4744
 5091SOL    HW123786   5.999   8.604   2.299  1.5903  0.2146  1.1998
 5091SOL    HW223787   5.903   8.593   2.431 -1.0005 -0.3703 -0.6767
 5092SOL     OW23788   1.301   0.366   2.975  0.1269  0.4405 -0.3109
 5092SOL    HW123789   1.248   0.437   2.930  0.7857  1.9626  1.2900
 5092SOL    HW223790   1.399   0.388   2.968  0.3315 -0.2757  0.2509
 5094SOL     OW23791   1.457   1.668   7.100  0.0019 -0.7785  0.2736
 5094SOL    HW123792   1.554   1.648   7.089  0.0476  0.2863 -1.4851
 5094SOL    HW223793   1.445   1.766   7.119 -0.7986 -0.6679 -0.7676
 5095SOL     OW23794   0.605   2.893   7.298  0.4057  0.1051  0.1711
 5095SOL    HW123795   0.534   2.960   7.320  0.2202 -0.1198  0.2548
 5095SOL    HW223796   0.694   2.939   7.296  0.1837  0.5087 -0.5628
 5096SOL     OW23797   1.789   1.735   7.431 -0.0937  1.3621  0.1220
 5096SOL    HW123798   1.847   1.740   7.350 -0.2432  1.4416  0.0201
 5096SOL    HW223799   1.816   1.656   7.486 -2.4466 -0.9583 -1.9155
 5097SOL     OW23800   3.670   5.723   4.498  0.3383  0.2482  0.3675
 5097SOL    HW123801   3.700   5.803   4.447  0.9910 -0.7734 -0.8894
 5097SOL    HW223802   3.703   5.729   4.593  1.3794  0.8831 -0.0335
 5098SOL     OW23803   6.976   3.115   7.927 -0.2128  0.3418  0.2531
 5098SOL    HW123804   7.048   3.184   7.926 -0.3566  0.5177  1.2163
 5098SOL    HW223805   6.965   3.075   7.836 -1.4590  2.9888 -0.8004
 5101SOL     OW23806   4.160   2.158   5.284  0.8887  0.1377  0.0467
 5101SOL    HW123807   4.178   2.061   5.295 -0.2560 -0.0691  0.2339
 5101SOL    HW223808   4.103   2.190   5.360  0.5369  0.7534 -0.4718
 5102SOL     OW23809   8.518   0.921   6.926  0.4677  0.2353  0.1331
 5102SOL    HW123810   8.489   0.855   6.857  0.5324  1.1038 -0.7263
 5102SOL    HW223811   8.541   1.008   6.883  0.4690  0.8056  1.2470
 5103SOL     OW23812   8.608   9.395   3.200 -0.0526 -0.0259  0.1003
 5103SOL    HW123813   8.618   9.495   3.204  0.0516 -0.0681  1.1371
 5103SOL    HW223814   8.511   9.371   3.199 -0.1174  0.0413  1.9246
 5105SOL     OW23815   3.256   7.122   0.804  0.3795  0.3975  0.2397
 5105SOL    HW123816   3.243   7.203   0.747  0.4305 -0.1237 -0.5312
 5105SOL    HW223817   3.276   7.149   0.898  0.0142  1.2683  0.0665
 5106SOL     OW23818   2.144   5.042   6.222 -0.2247 -0.0720  0.5253
 5106SOL    HW123819   2.095   5.127   6.203 -0.6832 -0.9338 -2.4680
 5106SOL    HW223820   2.078   4.968   6.234  0.2357 -0.9985 -2.2622
 5107SOL     OW23821   3.301   1.993   7.463  0.0847  0.4518  0.2738
 5107SOL    HW123822   3.237   1.942   7.406  1.1017 -0.6405  0.0931
 5107SOL    HW223823   3.384   2.015   7.410  1.1113 -0.7237  1.3558
 5108SOL     OW23824   5.121   8.550   3.203  0.4702  0.0523 -0.9679
 5108SOL    HW123825   5.129   8.643   3.167  0.7892 -0.4538 -2.2509
 5108SOL    HW223826   5.180   8.489   3.150 -0.7008 -1.1039 -0.9714
 5109SOL     OW23827   5.397   1.234   7.124  0.7515 -0.0076  0.2676
 5109SOL    HW123828   5.494   1.209   7.130  0.3778 -1.7768 -1.0003
 5109SOL    HW223829   5.381   1.283   7.038  0.2894 -0.7013 -0.0359
 5110SOL     OW23830   3.247   8.556   6.288 -0.7510 -0.2263 -0.4001
 5110SOL    HW123831   3.166   8.519   6.332 -1.1512 -0.8578 -1.6364
 5110SOL    HW223832   3.263   8.508   6.201  1.3469 -0.6090  0.1596
 5111SOL     OW23833   8.817   4.665   6.469  0.0024  0.3226 -0.1750
 5111SOL    HW123834   8.771   4.735   6.523 -1.0188 -0.0208 -0.5759
 5111SOL    HW223835   8.915   4.666   6.489 -0.5224 -0.7252  2.7074
 5112SOL     OW23836   8.751   6.548   1.107 -0.1345  0.2676 -0.3179
 5112SOL    HW123837   8.791   6.460   1.130 -1.5627  0.2349  2.1640
 5112SOL    HW223838   8.798   6.621   1.156 -1.3936  0.4930  0.5685
 5113SOL     OW23839   7.035   5.702   2.461  0.3309  0.5586 -0.1329
 5113SOL    HW123840   6.958   5.743   2.413 -0.7496 -1.7956 -0.4747
 5113SOL    HW223841   7.107   5.770   2.473 -0.6131  1.9951 -2.3674
 5115SOL     OW23842   5.001   3.594   4.916 -0.1283  0.2993  0.4234
 5115SOL    HW123843   4.947   3.672   4.949 -0.0794  0.4178  0.2232
 5115SOL    HW223844   4.969   3.568   4.825 -0.7611 -0.5024  0.8751
 5116SOL     OW23845   0.917   5.229   6.068  1.1256  0.7491 -0.4273
 5116SOL    HW123846   0.931   5.291   5.991  0.9938 -0.5163 -1.4790
 5116SOL    HW223847   0.819   5.221   6.087  1.0991  0.3415 -0.7284
 5117SOL     OW23848   6.758   9.872   4.685 -0.1976  0.3505 -0.0119
 5117SOL    HW123849   6.696   9.950   4.686  0.0732  0.5688 -0.2137
 5117SOL    HW223850   6.845   9.898   4.728 -0.6208 -0.2652  1.2369
 5118SOL     OW23851   4.402   5.041   1.796 -0.6496  0.0189 -0.1397
 5118SOL    HW123852   4.355   4.957   1.823 -0.3600 -0.0565  0.1300
 5118SOL    HW223853   4.417   5.040   1.697 -2.0477  0.4688 -0.3784
 5119SOL     OW23854   0.553   7.858   0.708  0.0670 -0.0391 -0.1449
 5119SOL    HW123855   0.505   7.935   0.751  0.1263 -0.7735  1.2573
 5119SOL    HW223856   0.517   7.772   0.744  1.4157 -0.6329 -0.1881
 5120SOL     OW23857   0.574   9.199   1.789  0.2372 -0.8873  0.6094
 5120SOL    HW123858   0.582   9.104   1.818  0.1429 -0.6449  1.4205
 5120SOL    HW223859   0.533   9.202   1.697  1.3674 -1.6756  0.0657
 5121SOL     OW23860   4.072   6.907   1.073  0.5401 -0.4941 -0.5707
 5121SOL    HW123861   4.171   6.918   1.061  0.8109 -0.0560  1.6782
 5121SOL    HW223862   4.026   6.993   1.052  0.6700 -0.6357 -1.4219
 5122SOL     OW23863   3.282   3.734   3.142 -0.1221  0.1649 -0.5284
 5122SOL    HW123864   3.295   3.817   3.196 -2.6421  0.9286 -0.9979
 5122SOL    HW223865   3.277   3.655   3.202  0.8902  0.5212  0.0361
 5123SOL     OW23866   7.400   3.633   2.183  0.3650 -0.4504 -0.2001
 5123SOL    HW123867   7.481   3.677   2.221 -0.4856  0.3878  0.6635
 5123SOL    HW223868   7.416   3.612   2.086  2.6670 -2.9082  0.6509
 5124SOL     OW23869   8.514   0.681   4.711 -0.1944  0.2967  0.1583
 5124SOL    HW123870   8.537   0.674   4.614 -2.5453  0.7093 -0.4636
 5124SOL    HW223871   8.453   0.758   4.725 -0.4769 -0.2111  1.8711
 5125SOL     OW23872   9.310   9.980   6.137  0.0529 -0.3452 -0.1198
 5125SOL    HW123873   9.310   9.884   6.166  1.3454 -0.1308  0.6171
 5125SOL    HW223874   9.366  10.034   6.200 -1.4129  1.0663  0.0066
 5127SOL     OW23875   0.269   9.787   2.766  0.1907  0.3751  0.3174
 5127SOL    HW123876   0.362   9.789   2.802  0.1476 -1.9861  0.5849
 5127SOL    HW223877   0.210   9.847   2.821  1.0589  0.1183  1.5409
 5130SOL     OW23878   9.388   5.313   0.984 -0.1117  0.1294  0.0890
 5130SOL    HW123879   9.388   5.223   0.940  1.5864  0.1545 -0.0050
 5130SOL    HW223880   9.442   5.309   1.068  3.0007  1.8556 -1.7057
 5131SOL     OW23881   2.330   9.949   4.603  0.6092 -0.5512 -0.0212
 5131SOL    HW123882   2.384   9.864   4.605  1.3094 -0.1203 -0.4810
 5131SOL    HW223883   2.332   9.992   4.694  1.3796 -0.3286 -0.1414
 5132SOL     OW23884   1.986   8.388   7.793  0.7560 -0.2211 -0.5491
 5132SOL    HW123885   2.006   8.291   7.782 -3.7778 -1.2088 -1.2139
 5132SOL    HW223886   1.963   8.428   7.704 -3.6142 -0.1801  0.4827
 5133SOL     OW23887   5.545   0.270   6.304 -0.1684  0.4651  0.1690
 5133SOL    HW123888   5.505   0.268   6.213  0.0514 -1.5530  0.1085
 5133SOL    HW223889   5.489   0.214   6.366 -0.0634  1.4608  1.1736
 5134SOL     OW23890   2.856   7.008   1.327 -0.2692 -0.3720  0.1833
 5134SOL    HW123891   2.853   7.053   1.416 -0.3328  0.5056 -0.2581
 5134SOL    HW223892   2.947   7.021   1.286 -0.5410  0.0354 -0.2932
 5135SOL     OW23893   4.465   9.976   7.219 -0.3967  0.0927 -0.1518
 5135SOL    HW123894   4.497   9.943   7.130  0.6689  1.7711 -0.4172
 5135SOL    HW223895   4.411   9.905   7.264  0.9002 -1.5765 -1.1865
 5136SOL     OW23896   2.243   2.095   3.004  0.4346 -0.4958  0.5126
 5136SOL    HW123897   2.281   2.002   3.007  1.2204 -0.1415  2.0401
 5136SOL    HW223898   2.271   2.145   3.086 -0.7255  0.8109  0.1249
 5137SOL     OW23899   4.705   6.382   0.985  0.0776  0.2416  0.5813
 5137SOL    HW123900   4.722   6.288   1.014  2.7181  0.8670  1.1502
 5137SOL    HW223901   4.723   6.444   1.061  0.9774  1.4187 -0.5785
 5138SOL     OW23902   4.526   8.486   1.474 -0.4343 -0.5204 -0.1803
 5138SOL    HW123903   4.431   8.460   1.494 -0.7215  0.2210 -0.5568
 5138SOL    HW223904   4.527   8.553   1.400  0.2417  0.9592  1.1468
 5139SOL     OW23905   1.666   5.616   0.011  0.7123  0.3954  0.2823
 5139SOL    HW123906   1.731   5.625   0.086  2.1865 -1.7745 -0.6991
 5139SOL    HW223907   1.592   5.554   0.038  0.4684  0.7335  0.4118
 5140SOL     OW23908   9.165   3.936   5.095  0.6648  0.0006  0.2689
 5140SOL    HW123909   9.114   3.957   5.012 -0.5704 -2.4658  0.3827
 5140SOL    HW223910   9.159   4.014   5.158 -4.0960 -0.6440  0.7984
 5141SOL     OW23911   9.714   9.052   6.469 -0.4242  0.8779 -0.5682
 5141SOL    HW123912   9.700   9.146   6.438 -1.2694  0.6639 -0.8575
 5141SOL    HW223913   9.651   8.992   6.420  2.0510 -0.2505 -2.4312
 5143SOL     OW23914   8.760   1.925   2.939 -0.1300 -0.2681 -0.0535
 5143SOL    HW123915   8.823   1.867   2.991 -1.0325 -1.7901 -0.6241
 5143SOL    HW223916   8.812   1.979   2.872  0.8897  0.7761  1.5522
 5144SOL     OW23917   7.453   1.204   5.481  0.2624  0.4296  0.2088
 5144SOL    HW123918   7.368   1.256   5.477 -0.7073 -1.1769 -0.6246
 5144SOL    HW223919   7.517   1.249   5.544 -1.3747  1.3879  1.2219
 5145SOL     OW23920   3.284   2.388   3.357 -0.4023  0.1669 -0.0650
 5145SOL    HW123921   3.263   2.372   3.454 -0.8275 -1.3794 -0.3977
 5145SOL    HW223922   3.372   2.435   3.350  0.1275 -0.6104  1.0523
 5146SOL     OW23923   4.084   2.985   0.630  0.2821  0.8800 -0.4398
 5146SOL    HW123924   4.099   2.917   0.558  0.0464  0.8510 -0.4623
 5146SOL    HW223925   4.172   3.025   0.657  0.3885  0.7734 -0.6271
 5147SOL     OW23926   3.360   6.514   5.449 -0.3931  0.0462 -0.2143
 5147SOL    HW123927   3.401   6.599   5.416 -1.0610  0.0573 -1.0318
 5147SOL    HW223928   3.429   6.460   5.497  0.4228  0.3322 -1.0614
 5148SOL     OW23929   2.298   1.676   1.028 -0.6095  0.0111 -0.1955
 5148SOL    HW123930   2.317   1.727   0.944  1.3314 -1.6632 -0.8060
 5148SOL    HW223931   2.378   1.676   1.086 -1.8242  0.8332  1.5153
 5150SOL     OW23932   1.364   5.341   1.232  0.1984 -0.5191  0.1070
 5150SOL    HW123933   1.287   5.386   1.187  0.2433 -1.6095 -1.0808
 5150SOL    HW223934   1.397   5.398   1.307 -1.9206 -0.1503  0.7852
 5151SOL     OW23935   2.962   8.891   5.596 -0.2855  0.6086  0.7425
 5151SOL    HW123936   2.983   8.893   5.693 -1.2711  0.5923  0.9634
 5151SOL    HW223937   3.047   8.889   5.543  0.2378 -0.4504  1.6180
 5153SOL     OW23938   1.904   0.272   4.263 -0.1208 -0.0315 -0.1524
 5153SOL    HW123939   1.965   0.197   4.236  0.5443  0.4388  0.0268
 5153SOL    HW223940   1.934   0.308   4.352 -0.5302  0.3521 -0.1683
 5154SOL     OW23941   4.229   5.508   0.076 -0.8636  0.0195  0.1778
 5154SOL    HW123942   4.154   5.515   0.142 -1.1415 -2.8741  0.2345
 5154SOL    HW223943   4.313   5.482   0.124 -0.2575  1.2599 -0.1752
 5155SOL     OW23944   7.762   8.528   5.713  0.5200 -0.4164  0.3651
 5155SOL    HW123945   7.730   8.622   5.727  2.8100  0.3147  0.8498
 5155SOL    HW223946   7.834   8.527   5.644 -0.6696 -2.0786 -0.8961
 5156SOL     OW23947   1.594   9.527   6.676 -0.4685  0.3779 -0.2729
 5156SOL    HW123948   1.660   9.460   6.710 -0.0298  1.8497  1.7848
 5156SOL    HW223949   1.503   9.485   6.674 -0.4038  0.0551  2.1299
 5157SOL     OW23950   5.602   8.766   2.166  0.5584 -0.8719 -0.2851
 5157SOL    HW123951   5.540   8.756   2.244 -0.4883  0.8058 -0.8609
 5157SOL    HW223952   5.556   8.734   2.083  0.3188  0.6812 -0.7689
 5158SOL     OW23953   3.086   5.779   2.374 -0.3602 -0.0751 -0.8106
 5158SOL    HW123954   3.073   5.680   2.366  1.0449 -0.4119  0.8398
 5158SOL    HW223955   3.182   5.801   2.355 -0.3608  0.8064  0.1938
 5159SOL     OW23956   0.805   0.648   4.276 -0.7747 -0.0205 -0.1684
 5159SOL    HW123957   0.822   0.694   4.189 -0.5773  0.1297 -0.0485
 5159SOL    HW223958   0.786   0.716   4.347  0.0111 -0.0977  0.1205
 5160SOL     OW23959   7.533   9.526   6.210  0.2023  0.0101 -0.4695
 5160SOL    HW123960   7.462   9.537   6.141  1.4883  0.3735 -1.7482
 5160SOL    HW223961   7.558   9.429   6.219  1.5945  0.1917 -2.1255
 5162SOL     OW23962   9.682   7.522   5.899  0.7194 -0.7931  0.0439
 5162SOL    HW123963   9.675   7.520   5.999  0.4256  0.3055  0.0548
 5162SOL    HW223964   9.778   7.531   5.872  0.7531 -0.5526  0.2416
 5163SOL     OW23965   0.511   2.443   3.749  0.5062 -0.6876 -0.0706
 5163SOL    HW123966   0.532   2.351   3.782  0.6342 -0.7427 -0.3012
 5163SOL    HW223967   0.427   2.439   3.695 -0.5382 -0.3284  1.5002
 5164SOL     OW23968   3.976   2.511   3.484  0.7131 -0.0117 -0.4417
 5164SOL    HW123969   3.979   2.451   3.564 -1.0779  0.8481  0.3096
 5164SOL    HW223970   4.016   2.600   3.509  1.4738 -0.2029 -0.9485
 5165SOL     OW23971   2.808   5.465   6.093 -0.0824 -0.0050 -0.0966
 5165SOL    HW123972   2.749   5.546   6.086 -0.8171 -0.5706 -0.5269
 5165SOL    HW223973   2.767   5.400   6.156  0.5633  0.0018  0.3270
 5166SOL     OW23974   5.318   1.389   5.281  0.1598  0.0212  0.3025
 5166SOL    HW123975   5.364   1.438   5.355  0.5341 -1.3564  0.9949
 5166SOL    HW223976   5.381   1.325   5.238 -0.2931  0.2170 -0.6618
 5167SOL     OW23977   0.959   6.090   4.974 -0.1775 -0.6621 -0.1822
 5167SOL    HW123978   0.990   5.996   4.970  1.9453  0.0459 -1.2317
 5167SOL    HW223979   0.968   6.132   4.884  1.3314  1.2651  0.8244
 5168SOL     OW23980   4.078   4.347   7.687 -0.4303 -0.3668 -0.2477
 5168SOL    HW123981   4.123   4.365   7.775  0.0356 -1.7948 -0.1743
 5168SOL    HW223982   4.147   4.324   7.618 -0.6834  2.0426 -1.3456
 5169SOL     OW23983   7.323   2.940   3.669 -0.2097 -0.1751  0.0380
 5169SOL    HW123984   7.401   2.975   3.720 -1.0723  0.2441  1.0817
 5169SOL    HW223985   7.266   3.016   3.637 -1.1828 -0.5459  0.8729
 5170SOL     OW23986   1.505   8.738   7.906 -0.9531  0.0728 -0.3590
 5170SOL    HW123987   1.583   8.741   7.844  0.1145  0.0684  0.9768
 5170SOL    HW223988   1.455   8.825   7.900  0.5862  1.0433  0.6042
 5171SOL     OW23989   4.243   3.798   6.069  0.0260  0.0879 -0.0477
 5171SOL    HW123990   4.330   3.847   6.077  0.6964 -0.9333 -0.9321
 5171SOL    HW223991   4.247   3.713   6.121 -0.0563 -0.4835 -0.9595
 5172SOL     OW23992   6.499   0.794   7.397 -0.5931  0.1421  0.0106
 5172SOL    HW123993   6.581   0.742   7.373  0.5084  2.1678 -0.7511
 5172SOL    HW223994   6.421   0.759   7.347  0.3798  0.0380 -1.4551
 5173SOL     OW23995   1.442   7.897   7.723  0.4088 -0.5091  0.1630
 5173SOL    HW123996   1.496   7.813   7.716  1.5585  0.1452  1.0541
 5173SOL    HW223997   1.503   7.974   7.740 -0.7435  0.3477  0.4149
 5176SOL     OW23998   2.174   5.825   3.365  0.2589 -0.7567  0.2976
 5176SOL    HW123999   2.111   5.888   3.409  0.0862 -1.2551  0.7682
 5176SOL    HW224000   2.127   5.777   3.291  0.5375  0.0495 -0.4092
 5177SOL     OW24001   0.285   6.356   6.706 -0.5798  0.1764 -0.0468
 5177SOL    HW124002   0.316   6.268   6.669  2.1768  1.5416 -1.1056
 5177SOL    HW224003   0.347   6.429   6.676 -0.7767  1.9975  3.7088
 5178SOL     OW24004   3.721   2.317   6.484 -0.1709 -0.4597 -0.1453
 5178SOL    HW124005   3.703   2.221   6.465  1.3764 -0.8493  0.2748
 5178SOL    HW224006   3.813   2.327   6.521 -0.4573  1.1419  0.1857
 5179SOL     OW24007   1.335   3.291   5.984 -0.2230  0.2888  0.3523
 5179SOL    HW124008   1.308   3.316   6.077  0.0026  1.3809  0.1379
 5179SOL    HW224009   1.387   3.205   5.985 -0.3483  0.2257  1.2141
 5180SOL     OW24010   5.246   3.060   7.371  0.3778 -0.5634  0.0328
 5180SOL    HW124011   5.228   3.005   7.290 -0.7330 -0.5631  0.2669
 5180SOL    HW224012   5.311   3.013   7.431 -0.7317 -1.7334  0.3372
 5181SOL     OW24013   2.336   9.583   0.715 -0.5318  0.2977  0.3493
 5181SOL    HW124014   2.298   9.500   0.756  1.8193 -1.4987 -0.9580
 5181SOL    HW224015   2.310   9.587   0.618  2.0530 -0.6843 -0.4285
 5183SOL     OW24016   2.174   6.250   7.815 -0.3718  0.0079 -0.3196
 5183SOL    HW124017   2.186   6.339   7.860 -0.9156 -0.4123  0.6869
 5183SOL    HW224018   2.210   6.254   7.722  1.5701  0.6652  0.4358
 5184SOL     OW24019   6.812   7.960   4.225 -0.1799  0.2163  0.4290
 5184SOL    HW124020   6.896   7.914   4.196  0.7937  1.6513  0.9229
 5184SOL    HW224021   6.813   7.970   4.325 -0.6440  0.8043  0.3707
 5185SOL     OW24022   2.270   7.823   1.798 -0.1278 -0.2951  0.3801
 5185SOL    HW124023   2.262   7.797   1.701 -1.2625 -2.1756  0.9399
 5185SOL    HW224024   2.365   7.814   1.827  0.3062  0.7195 -0.6636
 5187SOL     OW24025   3.235   9.156   7.627 -0.5638 -0.4807 -0.6926
 5187SOL    HW124026   3.291   9.116   7.554 -0.3008  0.2400 -0.8923
 5187SOL    HW224027   3.209   9.249   7.601 -0.9515 -0.4310 -0.1192
 5189SOL     OW24028   4.073   5.780   0.363 -0.0676 -0.2906  0.0274
 5189SOL    HW124029   4.170   5.761   0.376  0.6152  0.5492 -3.4447
 5189SOL    HW224030   4.024   5.693   0.351  0.5418 -0.6101 -0.1790
 5191SOL     OW24031   8.452   8.819   2.626  0.1582  0.3112  0.5134
 5191SOL    HW124032   8.449   8.872   2.711 -1.4231 -1.5455  1.6564
 5191SOL    HW224033   8.360   8.787   2.603  0.7755 -0.2891 -1.2136
 5192SOL     OW24034   0.905   6.760   7.446  0.2071  0.4240 -0.1210
 5192SOL    HW124035   0.894   6.698   7.368  0.4330  0.7320 -0.3978
 5192SOL    HW224036   0.984   6.731   7.501 -0.4423 -0.2794  0.4540
 5194SOL     OW24037   8.747   8.223   7.515 -0.1541 -0.2425 -0.1099
 5194SOL    HW124038   8.775   8.209   7.610  1.4915 -0.3389 -0.5936
 5194SOL    HW224039   8.721   8.135   7.475  2.6765 -0.8358 -0.8080
 5195SOL     OW24040   6.750   4.819   0.866 -0.6920 -0.5172 -0.1518
 5195SOL    HW124041   6.755   4.752   0.940 -1.0300 -2.1777 -1.5889
 5195SOL    HW224042   6.833   4.815   0.811 -1.4647 -1.0296 -1.3045
 5196SOL     OW24043   7.341   4.340   1.600 -0.2206  0.6152  0.0102
 5196SOL    HW124044   7.327   4.408   1.672  1.7398  1.0924 -0.0270
 5196SOL    HW224045   7.375   4.255   1.641  0.1363  0.6280 -0.2550
 5198SOL     OW24046   0.821   9.941   7.300 -0.0024  0.1746  0.2871
 5198SOL    HW124047   0.777   9.862   7.257 -3.5127  1.0225  2.1303
 5198SOL    HW224048   0.827  10.016   7.234 -0.9135 -0.1222 -0.1404
 5200SOL     OW24049   3.551   4.834   0.857  0.7230 -0.5920 -0.0108
 5200SOL    HW124050   3.560   4.737   0.834  0.7272 -0.1658 -1.8972
 5200SOL    HW224051   3.468   4.848   0.910  0.4179 -1.5585 -0.2270
 5202SOL     OW24052   0.665   1.165   4.541 -0.1692  0.4166  0.3651
 5202SOL    HW124053   0.575   1.206   4.558 -1.1014 -1.5460  0.3347
 5202SOL    HW224054   0.699   1.125   4.625  0.8183  1.4140  0.4408
 5203SOL     OW24055   8.451   5.358   4.641  0.6332  0.1042  0.1976
 5203SOL    HW124056   8.395   5.398   4.714 -0.3155  0.9914 -0.9870
 5203SOL    HW224057   8.481   5.267   4.668  0.3543  0.4451  1.7210
 5207SOL     OW24058   4.755   2.170   7.275  0.0158  0.2146 -0.0843
 5207SOL    HW124059   4.768   2.220   7.189  0.0782  1.6112  0.7327
 5207SOL    HW224060   4.839   2.174   7.329 -0.6171  0.8793  0.8454
 5208SOL     OW24061   3.444   6.079   1.851 -0.2186  0.2941 -0.3548
 5208SOL    HW124062   3.486   6.122   1.931  0.2306 -0.3478 -0.2430
 5208SOL    HW224063   3.376   6.141   1.812 -0.9960  0.3260  0.9851
 5209SOL     OW24064   6.094   2.484   5.080  0.0440  0.0522 -0.5286
 5209SOL    HW124065   6.097   2.574   5.036 -1.3740  0.2052 -0.3354
 5209SOL    HW224066   6.104   2.412   5.012  1.0402  0.3466 -0.7012
 5210SOL     OW24067   4.802   7.818   4.314  0.0472  0.4765  0.2968
 5210SOL    HW124068   4.789   7.730   4.267  0.5614 -0.2241  1.4580
 5210SOL    HW224069   4.879   7.811   4.376 -0.1122  1.6651  0.6285
 5211SOL     OW24070   7.792   7.767   6.307  0.2600  0.0745  0.0322
 5211SOL    HW124071   7.708   7.760   6.362 -0.3149 -1.4339 -1.0076
 5211SOL    HW224072   7.774   7.822   6.226  0.6221  0.7935  0.4370
 5213SOL     OW24073   0.003   7.525   3.059  0.1864 -0.0142 -0.5850
 5213SOL    HW124074   0.063   7.446   3.049 -0.2997 -0.6429  1.2858
 5213SOL    HW224075   0.058   7.606   3.079  0.4866 -0.5012  0.6643
 5214SOL     OW24076   3.047   1.082   5.824  0.0384  0.8176  0.3286
 5214SOL    HW124077   3.045   1.035   5.913  1.2723  0.2705  0.0872
 5214SOL    HW224078   3.142   1.089   5.793 -0.3532  1.3717 -0.7585
 5215SOL     OW24079   3.299   2.739   4.562 -0.0334 -0.0448  0.1757
 5215SOL    HW124080   3.280   2.654   4.612  1.9198 -0.2431  0.5967
 5215SOL    HW224081   3.365   2.721   4.489  1.0486  1.2696  0.8142
 5216SOL     OW24082   2.846   7.781   0.668 -1.0286  0.4625 -0.1436
 5216SOL    HW124083   2.780   7.824   0.608 -0.5515  1.4427  0.0311
 5216SOL    HW224084   2.896   7.851   0.719 -0.2326 -0.2874  0.1208
 5217SOL     OW24085   4.754   5.918   1.904  0.4007 -0.0174  0.0945
 5217SOL    HW124086   4.733   5.914   2.001  0.8150 -1.3079  0.1490
 5217SOL    HW224087   4.755   6.013   1.873 -0.7403  0.3417  1.1236
 5218SOL     OW24088   6.270   0.434   7.295  0.4790 -0.1865  0.5052
 5218SOL    HW124089   6.357   0.463   7.255 -0.1532 -0.3984 -1.0379
 5218SOL    HW224090   6.197   0.440   7.226 -0.8028  0.3054  1.8714
 5219SOL     OW24091   1.667   7.794   5.303  0.0521  0.0267 -0.2068
 5219SOL    HW124092   1.703   7.878   5.263 -0.6447  0.1119 -0.6575
 5219SOL    HW224093   1.582   7.769   5.257 -1.1426  0.5293  1.6793
 5220SOL     OW24094   8.240   5.952   7.511  0.0520  0.1512  0.1414
 5220SOL    HW124095   8.291   5.880   7.559 -1.6595 -1.4517 -0.3996
 5220SOL    HW224096   8.163   5.981   7.567 -0.1376  0.5046 -0.3027
 5221SOL     OW24097   5.445   4.044   2.388  0.2714 -0.1020 -0.2949
 5221SOL    HW124098   5.391   4.078   2.312  1.2950  0.0702 -0.9632
 5221SOL    HW224099   5.486   4.121   2.438 -0.9937 -0.1782  0.8916
 5222SOL     OW24100   3.915   2.880   6.602 -0.4413  0.4847 -0.4132
 5222SOL    HW124101   4.013   2.876   6.621 -0.6883 -3.0728  0.3772
 5222SOL    HW224102   3.900   2.906   6.506  1.1886  2.8387 -0.0644
 5223SOL     OW24103   1.645   0.476   5.011 -0.5836 -0.3319  0.2375
 5223SOL    HW124104   1.649   0.562   4.959 -3.9336 -0.8267 -0.9497
 5223SOL    HW224105   1.565   0.477   5.071 -0.6474 -2.6327  0.2253
 5224SOL     OW24106   3.467   0.310   4.838 -0.0413 -0.2823 -0.0322
 5224SOL    HW124107   3.469   0.281   4.934  0.6173 -3.0578 -0.8736
 5224SOL    HW224108   3.391   0.265   4.791 -1.5582  2.5247 -0.4130
 5225SOL     OW24109   7.349   9.280   6.293 -0.2671 -0.3503 -0.5237
 5225SOL    HW124110   7.295   9.204   6.259 -1.0506  0.2250 -0.5608
 5225SOL    HW224111   7.444   9.250   6.303 -0.7178 -1.5722  0.2450
 5226SOL     OW24112   3.633   3.448   0.911  0.3050 -0.4199  0.2570
 5226SOL    HW124113   3.537   3.476   0.907  0.3518 -0.1469  0.9678
 5226SOL    HW224114   3.689   3.523   0.947  0.5170 -1.1783  1.5597
 5227SOL     OW24115   0.124   8.107   7.393  0.1486 -0.0679 -0.1555
 5227SOL    HW124116   0.025   8.093   7.396  0.0090  1.0601  0.7346
 5227SOL    HW224117   0.170   8.025   7.427 -0.5307 -0.0169  0.9115
 5228SOL     OW24118   4.218   0.315   6.791  0.4939  0.4182 -0.6546
 5228SOL    HW124119   4.268   0.361   6.718 -0.7081  0.2555 -1.6066
 5228SOL    HW224120   4.209   0.218   6.768  1.2805  0.0989  0.3707
 5230SOL     OW24121   4.239   9.338   6.566 -0.4590 -0.7950 -0.0159
 5230SOL    HW124122   4.163   9.295   6.615 -0.3804 -1.0550 -0.1195
 5230SOL    HW224123   4.239   9.436   6.585 -2.8545 -0.2168 -2.6332
 5231SOL     OW24124   2.801   0.376   4.465 -0.0168 -0.4147 -0.0465
 5231SOL    HW124125   2.874   0.356   4.532  0.2697  1.2877  0.1528
 5231SOL    HW224126   2.725   0.421   4.511 -0.7104 -1.1025 -0.4973
 5232SOL     OW24127   2.507   9.935   2.610  0.0925  0.5048 -0.2519
 5232SOL    HW124128   2.431   9.924   2.547 -0.2103 -0.8531  0.3152
 5232SOL    HW224129   2.524  10.032   2.627  0.3318  0.8933 -2.5758
 5233SOL     OW24130   4.583   8.073   2.269 -0.2061  0.1044  0.0091
 5233SOL    HW124131   4.503   8.114   2.225 -1.0156  0.3811  1.7090
 5233SOL    HW224132   4.663   8.129   2.253 -0.7771  0.9344  0.0558
 5235SOL     OW24133   2.178   3.466   6.697  0.0172 -0.3767  0.1146
 5235SOL    HW124134   2.156   3.369   6.708 -1.2037 -0.2709 -1.1885
 5235SOL    HW224135   2.182   3.489   6.599 -0.7157  1.0936  0.4101
 5236SOL     OW24136   5.643   9.381   3.393  0.5645 -0.0274  0.0990
 5236SOL    HW124137   5.695   9.307   3.434  2.8261  1.2521 -0.3776
 5236SOL    HW224138   5.653   9.378   3.293 -1.9950 -1.0007 -0.1580
 5237SOL     OW24139   1.964   1.341   4.113 -0.6240 -0.1945 -0.2585
 5237SOL    HW124140   1.871   1.341   4.149  0.2482 -0.3650  2.0609
 5237SOL    HW224141   1.968   1.281   4.032 -2.6100  0.1827 -0.6553
 5238SOL     OW24142   2.645   2.298   0.696 -0.1820  0.3626 -0.2004
 5238SOL    HW124143   2.613   2.360   0.624  1.1428  0.2736 -0.8630
 5238SOL    HW224144   2.711   2.234   0.659  2.4791  1.9530  1.6417
 5239SOL     OW24145   3.774   0.681   4.818 -0.2089 -0.1308 -0.2878
 5239SOL    HW124146   3.679   0.670   4.786 -0.2819 -0.0115 -0.1121
 5239SOL    HW224147   3.777   0.748   4.892  0.0527  0.0516 -0.4637
 5240SOL     OW24148   7.595   0.330   7.292 -0.1531 -0.1308 -0.3401
 5240SOL    HW124149   7.641   0.297   7.374  0.5547  1.5109 -0.0554
 5240SOL    HW224150   7.523   0.393   7.317 -1.6968 -1.6565 -0.8653
 5241SOL     OW24151   0.906   0.111   6.865  0.0768  0.4147 -0.2885
 5241SOL    HW124152   0.860   0.061   6.791  0.0500 -0.8280  0.5671
 5241SOL    HW224153   0.987   0.061   6.895 -1.1699 -0.2549  2.0783
 5243SOL     OW24154   6.899   4.409   2.685 -0.0204  0.2988  0.0763
 5243SOL    HW124155   6.948   4.324   2.705 -0.0126  0.2937  0.0341
 5243SOL    HW224156   6.807   4.404   2.725 -0.3005 -0.0462 -0.6039
 5244SOL     OW24157   1.644   9.953   6.193 -0.3224  0.4127 -0.1203
 5244SOL    HW124158   1.678   9.953   6.099 -0.8833  2.1141 -0.3258
 5244SOL    HW224159   1.678  10.033   6.242  1.4044 -1.3421  1.6802
 5245SOL     OW24160   9.341   6.078   2.453  0.7758  0.2496  0.7878
 5245SOL    HW124161   9.270   6.045   2.516  0.4126 -0.2121  0.1404
 5245SOL    HW224162   9.355   6.176   2.467 -0.8017  0.5782  0.1304
 5246SOL     OW24163   1.274   4.586   0.917  0.3045 -0.4003 -0.2110
 5246SOL    HW124164   1.199   4.652   0.909 -0.8890 -1.5514  1.0609
 5246SOL    HW224165   1.316   4.573   0.828 -0.3231  1.0470 -0.7493
 5247SOL     OW24166   2.159   7.031   0.911 -0.0914  0.1844 -0.6637
 5247SOL    HW124167   2.258   7.031   0.924 -0.2165  2.6415  0.6338
 5247SOL    HW224168   2.118   6.956   0.963  0.7676  1.3957  1.8181
 5248SOL     OW24169   0.787   5.782   2.530  0.4052  0.3424  0.1332
 5248SOL    HW124170   0.801   5.708   2.463 -0.5291  0.5993 -0.3518
 5248SOL    HW224171   0.817   5.750   2.620  2.5166  0.3046 -0.5534
 5250SOL     OW24172   7.699   6.555   0.742  0.0523  0.2672 -0.1727
 5250SOL    HW124173   7.778   6.553   0.803 -1.2266  3.8918  1.7717
 5250SOL    HW224174   7.724   6.600   0.656  0.3973  0.3950 -0.0037
 5251SOL     OW24175   0.310   3.413   0.715 -0.1149  0.4792  0.0436
 5251SOL    HW124176   0.228   3.382   0.762 -1.0032 -0.1239 -1.8552
 5251SOL    HW224177   0.298   3.508   0.685  0.4971  0.9041  1.1073
 5253SOL     OW24178   9.508   4.903   0.266  0.1094 -0.2879  0.2981
 5253SOL    HW124179   9.551   4.814   0.254  2.8171  0.9239  0.5976
 5253SOL    HW224180   9.474   4.936   0.178 -2.5838 -2.3764  0.4899
 5254SOL     OW24181   8.338   8.961   1.036 -0.1655  0.0006  0.7377
 5254SOL    HW124182   8.357   9.056   1.014  1.0129 -0.4305 -0.1546
 5254SOL    HW224183   8.422   8.916   1.067 -0.6598 -0.8134  0.9236
 5255SOL     OW24184   6.920   4.476   0.079 -0.8090 -0.4113  0.1868
 5255SOL    HW124185   6.970   4.389   0.082  0.9313  0.5647 -0.0060
 5255SOL    HW224186   6.829   4.463   0.118 -0.4780 -2.2585  0.4065
 5256SOL     OW24187   2.207   7.738   6.285 -1.1070  0.2782 -0.2417
 5256SOL    HW124188   2.169   7.661   6.336 -0.6229  0.5088  0.4721
 5256SOL    HW224189   2.307   7.736   6.292 -1.0239  0.1722 -1.3776
 5257SOL     OW24190   4.911   7.481   5.765 -0.7518 -0.0713 -0.0307
 5257SOL    HW124191   4.961   7.477   5.852  0.2160  0.0801 -0.5752
 5257SOL    HW224192   4.967   7.444   5.692 -1.0845  0.9327 -0.8130
 5258SOL     OW24193   8.752   8.397   2.548  0.2164  0.4198  0.1715
 5258SOL    HW124194   8.679   8.328   2.542  0.3702  0.2183  0.5308
 5258SOL    HW224195   8.712   8.488   2.556  0.0092  0.3857 -0.4656
 5259SOL     OW24196   0.943   5.519   6.715  0.4242 -0.1071  0.3716
 5259SOL    HW124197   0.910   5.574   6.793  1.1523  0.0552  0.5707
 5259SOL    HW224198   0.886   5.538   6.635 -0.7530 -0.7770  1.0378
 5260SOL     OW24199   5.693   9.369   3.111  0.2370 -0.3913  0.5642
 5260SOL    HW124200   5.748   9.288   3.090 -2.3988 -1.3048 -3.4375
 5260SOL    HW224201   5.702   9.436   3.036 -3.5568 -0.3715  0.0297
 5261SOL     OW24202   0.952   9.648   6.574  0.0407  0.2878 -0.3966
 5261SOL    HW124203   0.906   9.711   6.511  1.3915  0.4519 -1.2350
 5261SOL    HW224204   0.998   9.576   6.522  1.8462  0.8730  0.3313
 5262SOL     OW24205   7.099   3.671   2.499 -0.5067  0.2234  0.3359
 5262SOL    HW124206   7.062   3.639   2.412  0.3465 -0.7455  0.3215
 5262SOL    HW224207   7.126   3.767   2.490  0.4211 -0.1237 -0.7536
 5263SOL     OW24208   4.612   0.849   5.326 -0.4642 -0.2398  0.0068
 5263SOL    HW124209   4.567   0.794   5.397 -3.2293  2.2038  0.2513
 5263SOL    HW224210   4.617   0.944   5.356  1.5262  0.1995 -1.6585
 5264SOL     OW24211   0.237   8.595   5.374  0.0372  0.1395  0.3106
 5264SOL    HW124212   0.241   8.517   5.438 -0.2160 -0.1137  0.0170
 5264SOL    HW224213   0.168   8.660   5.406  0.1647  0.1868  0.4916
 5265SOL     OW24214   0.995   5.588   1.960  0.0276  0.3676  0.0803
 5265SOL    HW124215   0.962   5.567   1.868 -0.2426  1.1375 -0.0021
 5265SOL    HW224216   0.919   5.625   2.014 -0.2583 -1.7190  1.1504
 5266SOL     OW24217   9.275   7.441   6.349 -0.5725  0.8187 -0.1125
 5266SOL    HW124218   9.280   7.535   6.316  0.5122  0.7794 -0.0768
 5266SOL    HW224219   9.188   7.400   6.321 -0.8066  1.6467 -0.6039
 5267SOL     OW24220   0.802   1.248   2.123 -0.8409 -0.7658 -0.3397
 5267SOL    HW124221   0.813   1.333   2.071 -1.4867 -1.1063 -1.0388
 5267SOL    HW224222   0.892   1.209   2.143 -0.5837 -0.5939 -1.1410
 5270SOL     OW24223   4.109   9.091   5.946 -0.1670  0.0031 -0.2496
 5270SOL    HW124224   4.101   9.191   5.952 -2.6725 -0.1784  0.1707
 5270SOL    HW224225   4.188   9.067   5.890  1.2560  2.2028  0.7654
 5271SOL     OW24226   4.131   3.801   0.796  0.1039 -0.1445 -0.2395
 5271SOL    HW124227   4.193   3.724   0.780  1.1084  0.1729  1.8394
 5271SOL    HW224228   4.049   3.769   0.842  1.3494  0.2275  2.3579
 5272SOL     OW24229   0.686   2.297   2.554  0.4643  0.2957  0.7717
 5272SOL    HW124230   0.616   2.348   2.604  0.3114  0.1129  0.7453
 5272SOL    HW224231   0.700   2.337   2.464  1.2432  1.0581  1.2264
 5273SOL     OW24232   0.677   5.257   4.350 -0.3577 -0.4579 -0.1900
 5273SOL    HW124233   0.641   5.192   4.417 -0.9183 -1.5490 -1.5403
 5273SOL    HW224234   0.617   5.260   4.270  1.7463 -1.1699 -1.8298
 5274SOL     OW24235   0.842   0.631   4.990 -0.5144  0.1383 -0.2200
 5274SOL    HW124236   0.811   0.651   5.083  0.0954 -0.2642  0.0685
 5274SOL    HW224237   0.820   0.709   4.931 -2.0188 -0.0984 -0.0096
 5275SOL     OW24238   4.469   5.199   0.411 -0.0206  0.1384  0.4230
 5275SOL    HW124239   4.548   5.250   0.446  1.2542 -2.5049  1.5852
 5275SOL    HW224240   4.483   5.177   0.315 -0.3366  1.5380  0.0587
 5276SOL     OW24241   3.953   8.925   3.724  0.7230  0.2569  0.5386
 5276SOL    HW124242   3.901   9.009   3.709 -0.4619 -0.7924 -1.4678
 5276SOL    HW224243   4.050   8.943   3.711  0.4299  1.2282 -0.3343
 5277SOL     OW24244   4.717   8.313   1.085 -0.3515 -0.2223  0.0203
 5277SOL    HW124245   4.715   8.213   1.078  0.1476 -0.4249  2.2211
 5277SOL    HW224246   4.626   8.347   1.109 -1.0141  0.0667 -2.7660
 5279SOL     OW24247   7.193   7.797   5.833  0.9537  0.4754 -0.0957
 5279SOL    HW124248   7.189   7.701   5.807  0.7198  0.5198 -0.2183
 5279SOL    HW224249   7.288   7.822   5.855  1.1375  0.4300 -0.8505
 5282SOL     OW24250   0.087   2.743   7.257  0.7445 -0.2879 -0.5094
 5282SOL    HW124251   0.078   2.652   7.215 -1.1225 -0.1020 -0.5576
 5282SOL    HW224252   0.126   2.807   7.191  0.2639 -0.6149 -1.1166
 5283SOL     OW24253   4.721   9.902   2.367 -0.1838  0.0972 -0.0336
 5283SOL    HW124254   4.821   9.897   2.358 -0.1242  0.3838  0.4886
 5283SOL    HW224255   4.679   9.888   2.277  0.3445  0.5623 -0.3554
 5284SOL     OW24256   4.191   5.215   4.984  0.2488 -0.4235  0.5895
 5284SOL    HW124257   4.105   5.263   5.002  0.2214  0.0165 -0.6707
 5284SOL    HW224258   4.244   5.265   4.915  0.7643 -1.5506  0.1495
 5286SOL     OW24259   0.711   6.243   6.631  0.1711  0.4190  0.4127
 5286SOL    HW124260   0.619   6.204   6.635  0.7325 -1.0143 -0.2170
 5286SOL    HW224261   0.744   6.242   6.536  0.5783  1.5484  0.5336
 5288SOL     OW24262   8.764   6.762   4.038 -0.2111 -0.3470 -0.7053
 5288SOL    HW124263   8.724   6.850   4.014 -0.4653 -0.9227 -2.4733
 5288SOL    HW224264   8.863   6.771   4.049 -0.3370  0.3086 -0.1194
 5290SOL     OW24265   3.917   2.297   7.680 -0.0225 -0.6117 -0.3065
 5290SOL    HW124266   3.964   2.295   7.591 -1.4291  1.4655 -1.1213
 5290SOL    HW224267   3.854   2.219   7.685 -0.1021 -0.6214 -1.2538
 5291SOL     OW24268   8.023   1.398   1.454 -0.6416  0.3890  1.1569
 5291SOL    HW124269   8.111   1.422   1.495 -0.6659  0.3011  1.2608
 5291SOL    HW224270   8.030   1.403   1.354 -0.0359 -1.3101  1.0985
 5293SOL     OW24271   5.997   3.535   2.741 -0.0948 -0.4503  0.1886
 5293SOL    HW124272   5.903   3.540   2.708 -0.1210 -1.7331  0.0094
 5293SOL    HW224273   6.059   3.529   2.662 -0.0494 -1.9696  0.3098
 5294SOL     OW24274   2.961   0.725   4.532  0.2143 -0.1514 -0.9044
 5294SOL    HW124275   2.979   0.692   4.439 -1.2215 -1.1783 -0.8395
 5294SOL    HW224276   2.891   0.796   4.529  0.0742 -0.2759 -0.5885
 5295SOL     OW24277   9.172   2.608   7.391 -0.1502  0.4329 -0.5411
 5295SOL    HW124278   9.112   2.686   7.376 -0.6319 -0.3437 -2.8512
 5295SOL    HW224279   9.117   2.526   7.410  0.1879 -0.0754 -1.6981
 5297SOL     OW24280   2.482   6.433   6.228  0.6317  0.1189  0.4700
 5297SOL    HW124281   2.521   6.349   6.191 -2.8474 -0.7373 -1.4212
 5297SOL    HW224282   2.555   6.487   6.271  3.5128 -2.2106 -1.2953
 5298SOL     OW24283   8.586   9.315   2.103 -0.4558 -0.3984  0.2895
 5298SOL    HW124284   8.522   9.389   2.081  0.1067  0.7834  2.4333
 5298SOL    HW224285   8.622   9.276   2.019 -1.9196  0.7554 -0.9052
 5299SOL     OW24286   8.086   9.043   7.169  0.2092  0.1286 -0.2532
 5299SOL    HW124287   8.105   9.060   7.072 -1.4694 -0.5211 -0.7098
 5299SOL    HW224288   8.062   9.130   7.214 -2.0986 -0.0203 -1.1460
 5301SOL     OW24289   9.020   9.850   0.952 -0.2812 -0.3630 -0.0480
 5301SOL    HW124290   9.007   9.913   1.029  0.7411 -0.5941  0.3275
 5301SOL    HW224291   8.949   9.866   0.883 -0.8581  0.2422  0.6797
 5302SOL     OW24292   0.910   9.793   6.333  0.2719 -0.4284 -0.3317
 5302SOL    HW124293   0.887   9.890   6.335  0.4105 -0.3873 -0.6457
 5302SOL    HW224294   1.009   9.782   6.325  0.2420 -0.5917 -0.4973
 5303SOL     OW24295   7.367   4.474   2.176 -0.1248  0.3124  0.2907
 5303SOL    HW124296   7.457   4.431   2.179 -0.4452 -0.3252  0.9924
 5303SOL    HW224297   7.301   4.416   2.225 -0.4403  1.8661  1.7713
 5304SOL     OW24298   9.947   1.138   6.586 -0.5078  0.2116 -0.0577
 5304SOL    HW124299   9.972   1.063   6.647  2.9665  0.0497 -1.5308
 5304SOL    HW224300   9.985   1.120   6.495 -1.0073  3.0059 -0.8588
 5305SOL     OW24301   0.660   3.230   6.196  0.2748 -0.1949 -0.1621
 5305SOL    HW124302   0.615   3.281   6.123  1.5332  1.8445  0.4514
 5305SOL    HW224303   0.606   3.148   6.217 -1.3873  0.4650 -1.6713
 5306SOL     OW24304   5.093   4.929   1.481  0.9094 -0.1060 -0.5280
 5306SOL    HW124305   5.070   4.988   1.404  0.9616 -0.4179 -0.7840
 5306SOL    HW224306   5.150   4.979   1.546  1.0668  0.0789 -0.8121
 5307SOL     OW24307   3.700   0.718   1.036  0.3437  0.5097 -0.1955
 5307SOL    HW124308   3.784   0.759   1.001  1.0839  0.3064  1.2941
 5307SOL    HW224309   3.664   0.774   1.111 -0.7591  0.4989 -0.7049
 5308SOL     OW24310   6.050   7.867   2.332  0.0051 -0.0590 -1.2110
 5308SOL    HW124311   6.123   7.921   2.376 -0.8568  0.7608 -0.7754
 5308SOL    HW224312   5.963   7.884   2.378 -0.3838 -1.4215 -1.4225
 5309SOL     OW24313   9.973   1.655   6.088 -0.4941  0.5192  0.4559
 5309SOL    HW124314  10.053   1.653   6.027 -1.0413 -0.0978 -0.2598
 5309SOL    HW224315   9.959   1.564   6.126 -1.7420  0.2581 -0.6022
 5310SOL     OW24316   0.752   8.173   6.914  0.1923 -0.1709 -0.1195
 5310SOL    HW124317   0.703   8.092   6.947  0.9595  0.0144  1.5448
 5310SOL    HW224318   0.694   8.254   6.928  0.0363 -0.2432 -0.3459
 5312SOL     OW24319   9.312   7.820   6.893 -0.2358  0.3490  0.2253
 5312SOL    HW124320   9.221   7.782   6.878 -1.7344  3.7732  0.1274
 5312SOL    HW224321   9.347   7.856   6.806  1.6803 -1.8180  0.0535
 5313SOL     OW24322   2.694   4.476   3.545  0.1932  0.7418  0.6569
 5313SOL    HW124323   2.754   4.550   3.575 -0.2750  0.7359  1.6255
 5313SOL    HW224324   2.662   4.424   3.625  1.5086 -1.2707 -0.0857
 5314SOL     OW24325   9.568   4.272   5.188 -0.1305  0.8402 -0.2539
 5314SOL    HW124326   9.542   4.369   5.193  0.2665  0.8802  1.2547
 5314SOL    HW224327   9.531   4.224   5.267  3.3273  0.6618  1.3220
 5315SOL     OW24328   0.404   5.827   6.146  0.3501 -1.0639 -0.0327
 5315SOL    HW124329   0.469   5.852   6.075 -0.0655 -1.5643 -0.5861
 5315SOL    HW224330   0.427   5.876   6.231 -0.5661  1.3638 -1.1394
 5316SOL     OW24331   9.031   1.412   4.459  0.3692  0.4592  0.0981
 5316SOL    HW124332   8.970   1.448   4.530 -0.6335 -0.2528 -0.3950
 5316SOL    HW224333   9.062   1.321   4.484 -0.8937 -0.2670 -0.8892
 5319SOL     OW24334   9.085   9.416   2.258 -0.5463  0.5729 -0.1915
 5319SOL    HW124335   9.028   9.433   2.339  1.0627 -0.5368  1.2054
 5319SOL    HW224336   9.180   9.437   2.279  0.2028 -1.6695 -1.1466
 5320SOL     OW24337   0.137   2.494   7.131 -0.1256  0.0105  0.3579
 5320SOL    HW124338   0.154   2.406   7.086  0.0735 -0.3903  1.2079
 5320SOL    HW224339   0.096   2.557   7.065  0.8382 -0.3327 -0.5864
 5321SOL     OW24340   0.591   4.838   4.637  0.2381  0.1912  0.1557
 5321SOL    HW124341   0.683   4.808   4.615 -0.0749  0.1841 -1.2068
 5321SOL    HW224342   0.525   4.778   4.592 -0.4228  0.3516  0.9052
 5323SOL     OW24343   0.542   6.681   0.666  0.2870 -0.7259 -0.2510
 5323SOL    HW124344   0.544   6.777   0.639 -0.1160  0.0454  2.3268
 5323SOL    HW224345   0.490   6.628   0.599 -0.8235  1.1238 -0.8720
 5324SOL     OW24346   7.654   6.851   7.514 -0.3961  0.4386 -0.5225
 5324SOL    HW124347   7.700   6.937   7.534 -0.7612  0.6985 -0.8099
 5324SOL    HW224348   7.606   6.819   7.595  1.0109 -0.2783  0.0447
 5325SOL     OW24349   8.638   6.761   1.350  0.1649  0.1080 -0.2391
 5325SOL    HW124350   8.549   6.755   1.395 -0.0884 -0.2769 -0.7944
 5325SOL    HW224351   8.705   6.709   1.403  0.1733  0.8175  0.4553
 5326SOL     OW24352   1.740   6.443   1.811 -0.4557 -0.0848 -0.2742
 5326SOL    HW124353   1.803   6.471   1.739 -0.4953  0.0492 -0.2569
 5326SOL    HW224354   1.647   6.474   1.788 -0.4949 -0.1803 -0.2437
 5327SOL     OW24355   3.332   0.378   3.869 -0.0146  0.0388  0.4141
 5327SOL    HW124356   3.288   0.402   3.955  2.2426 -0.9764  1.9187
 5327SOL    HW224357   3.365   0.284   3.873  0.2946  0.0396 -1.4835
 5328SOL     OW24358   6.208   1.343   6.743 -0.0074  0.2723  0.2167
 5328SOL    HW124359   6.306   1.359   6.756 -0.1193  0.0988  1.3151
 5328SOL    HW224360   6.163   1.430   6.724  0.0836  0.6204  1.5625
 5330SOL     OW24361   8.320   8.582   3.608 -0.2679 -0.3523  0.5652
 5330SOL    HW124362   8.404   8.555   3.560 -0.4583  0.6560 -0.3515
 5330SOL    HW224363   8.250   8.607   3.541 -0.1209  2.3673  1.3625
 5331SOL     OW24364   9.230   9.991   2.438 -0.4413 -0.1566  0.3890
 5331SOL    HW124365   9.213  10.008   2.535  0.1408 -0.5300  0.5597
 5331SOL    HW224366   9.295  10.058   2.403  0.9744 -1.2985  0.7825
 5332SOL     OW24367   9.991   9.931   4.104 -0.1392 -0.0464  0.0380
 5332SOL    HW124368   9.991   9.900   4.009  0.0635 -1.3431  0.4391
 5332SOL    HW224369  10.018  10.027   4.108  0.6116 -0.1920 -1.1484
 5333SOL     OW24370   1.195   1.214   0.057 -0.3105 -0.1563 -0.2287
 5333SOL    HW124371   1.202   1.116   0.076 -1.6849 -0.1721  0.2726
 5333SOL    HW224372   1.254   1.237  -0.020  0.9245 -1.1614  0.3934
 5334SOL     OW24373   5.101   4.549   7.676  0.6431  0.3308  0.1613
 5334SOL    HW124374   5.138   4.478   7.617  0.8891  0.1915  0.4824
 5334SOL    HW224375   5.071   4.627   7.621 -0.3050 -0.3252 -0.2528
 5336SOL     OW24376   6.878   0.404   5.311  0.3719  0.2391 -0.1675
 5336SOL    HW124377   6.869   0.304   5.311  0.7497  0.2048 -0.3370
 5336SOL    HW224378   6.788   0.445   5.294  0.7726 -0.1138 -3.2474
 5337SOL     OW24379   4.429   0.474   3.283  0.3711 -0.4107  0.1029
 5337SOL    HW124380   4.398   0.562   3.248  0.0904 -0.9991 -1.1889
 5337SOL    HW224381   4.422   0.472   3.383 -2.9305 -0.1906 -0.0812
 5338SOL     OW24382   9.813   3.003   5.372  0.1919  0.6331 -0.7095
 5338SOL    HW124383   9.823   2.957   5.460  1.8557 -0.4220 -1.4188
 5338SOL    HW224384   9.798   3.101   5.387 -2.2132  0.0825  0.7909
 5339SOL     OW24385   2.633   2.844   1.858 -0.2839 -0.3525 -0.2305
 5339SOL    HW124386   2.618   2.752   1.893 -1.2252  0.1720  0.7629
 5339SOL    HW224387   2.569   2.862   1.783  1.8494 -1.5384 -2.3828
 5340SOL     OW24388   2.277   3.319   0.630  0.8628  0.1706  0.0952
 5340SOL    HW124389   2.294   3.259   0.707  1.3010 -0.7831 -0.7395
 5340SOL    HW224390   2.338   3.296   0.554  0.4333  1.0827 -0.5509
 5342SOL     OW24391   4.120   3.505   0.230  0.3859  0.3151 -0.3044
 5342SOL    HW124392   4.193   3.447   0.266 -0.5566 -2.1058 -2.1560
 5342SOL    HW224393   4.160   3.581   0.179  1.6805 -1.8824 -2.6858
 5343SOL     OW24394   7.758   0.472   3.252 -0.1848 -0.4018 -0.1125
 5343SOL    HW124395   7.784   0.504   3.161 -3.0084  0.1241 -0.7829
 5343SOL    HW224396   7.752   0.372   3.252  0.4356 -0.4439 -0.3009
 5344SOL     OW24397   2.717   6.703   1.532  0.1163 -0.2483 -0.1768
 5344SOL    HW124398   2.721   6.703   1.432 -0.7882  0.4210 -0.2234
 5344SOL    HW224399   2.797   6.751   1.569 -0.0736  0.4015 -0.6099
 5345SOL     OW24400   2.844   7.224   2.784 -0.1318 -0.5435 -0.1311
 5345SOL    HW124401   2.844   7.159   2.708 -1.6545 -0.9768  0.2206
 5345SOL    HW224402   2.812   7.179   2.867 -1.3621  0.6639  0.0781
 5346SOL     OW24403   2.113   5.044   4.985  0.2401 -0.1816  0.4701
 5346SOL    HW124404   2.096   5.105   4.908  0.6427  0.2019  0.6866
 5346SOL    HW224405   2.211   5.034   4.999  0.1629  0.1410  1.2524
 5347SOL     OW24406   9.062   2.849   0.943  0.2360  0.1660  0.3694
 5347SOL    HW124407   9.059   2.943   0.976  0.4737  0.0617  0.6932
 5347SOL    HW224408   9.126   2.796   0.999 -2.1965 -0.9642  2.1827
 5348SOL     OW24409   8.030   7.539   5.766  0.0902  0.1881 -0.8540
 5348SOL    HW124410   7.974   7.621   5.754 -2.0780 -0.9718  1.0530
 5348SOL    HW224411   8.055   7.503   5.676 -0.6394  1.7762 -1.7240
 5349SOL     OW24412   1.639   8.994   0.114 -0.3369  0.4290  0.1508
 5349SOL    HW124413   1.651   9.014   0.211 -1.4314  0.3546  0.3014
 5349SOL    HW224414   1.631   8.895   0.100 -0.0671  0.4300 -0.0359
 5351SOL     OW24415   8.880   4.905   6.013 -0.2471 -0.0182  0.1350
 5351SOL    HW124416   8.893   4.810   5.986 -1.8837  0.0689 -1.0502
 5351SOL    HW224417   8.854   4.959   5.933  0.1787  1.3299  0.8935
 5352SOL     OW24418   8.995   5.368   5.081  0.0456 -0.0281  0.0768
 5352SOL    HW124419   9.090   5.337   5.079  0.3021  0.5934  1.8568
 5352SOL    HW224420   8.992   5.464   5.110 -1.0775  0.1497 -0.6175
 5353SOL     OW24421   7.747   9.820   7.872 -0.0188  0.3738 -0.0817
 5353SOL    HW124422   7.761   9.784   7.965  1.5169  1.0992 -0.0111
 5353SOL    HW224423   7.662   9.784   7.835 -0.7387  0.2165  1.6788
 5354SOL     OW24424   1.891   4.401   0.694 -0.3302  0.3812 -0.2878
 5354SOL    HW124425   1.817   4.442   0.641 -0.9471 -0.2589  0.0785
 5354SOL    HW224426   1.867   4.307   0.718  2.1866 -1.1138 -3.3684
 5355SOL     OW24427   9.959   0.898   5.366  0.1386  0.0892  0.6009
 5355SOL    HW124428  10.050   0.879   5.331  0.3576  1.5087  0.3641
 5355SOL    HW224429   9.919   0.814   5.404  1.5700 -0.5048  0.7994
 5356SOL     OW24430   1.987   7.059   7.859 -0.5137 -0.0043 -0.0261
 5356SOL    HW124431   1.941   7.147   7.852 -0.2515  0.1111 -0.2913
 5356SOL    HW224432   2.062   7.054   7.793  0.1362 -0.0160  0.6961
 5357SOL     OW24433   8.043   6.501   2.574  0.0552  0.0538 -0.5095
 5357SOL    HW124434   8.066   6.567   2.502 -1.1878 -0.9141 -1.8164
 5357SOL    HW224435   7.969   6.441   2.542 -0.3449 -0.5399  1.4978
 5358SOL     OW24436   6.466   7.523   4.576 -0.1799  0.7093 -0.4939
 5358SOL    HW124437   6.526   7.598   4.548 -0.3140  1.1700  0.4395
 5358SOL    HW224438   6.402   7.556   4.645 -1.2495  0.1265 -1.1911
 5359SOL     OW24439   3.085   5.960   0.614  0.6787 -0.7120  0.3494
 5359SOL    HW124440   3.131   5.952   0.525  1.7604 -2.0506  1.0110
 5359SOL    HW224441   2.987   5.943   0.601  0.8040 -0.7538 -0.6170
 5361SOL     OW24442   8.649   2.401   3.645  0.0788 -0.2264  0.6712
 5361SOL    HW124443   8.742   2.383   3.678  0.9223  1.6074 -0.5712
 5361SOL    HW224444   8.648   2.395   3.545 -1.4907 -1.6750  0.7550
 5362SOL     OW24445   0.985   1.775   7.702 -0.4852  0.5924 -0.4541
 5362SOL    HW124446   0.932   1.831   7.639  0.1524  1.7503  0.0147
 5362SOL    HW224447   0.982   1.816   7.794  0.6332  0.2972 -0.2794
 5363SOL     OW24448   7.039   0.649   0.392 -0.1456 -0.7810  0.9437
 5363SOL    HW124449   7.057   0.562   0.346 -0.3155 -0.8506  1.0086
 5363SOL    HW224450   6.958   0.640   0.450 -1.0509 -0.1702 -0.1745
 5364SOL     OW24451   5.517   9.981   7.737 -0.0350  0.3466 -0.3217
 5364SOL    HW124452   5.564   9.933   7.663  3.1075  0.5996  1.4483
 5364SOL    HW224453   5.493   9.915   7.809  1.7561  0.9527  0.8457
 5365SOL     OW24454   4.636   8.371   3.115  0.2279  0.8755  0.6093
 5365SOL    HW124455   4.706   8.372   3.043  0.8970  0.0825  1.2397
 5365SOL    HW224456   4.558   8.428   3.086 -0.3588 -0.9603 -1.5932
 5366SOL     OW24457   2.066   5.251   1.630  1.1444  0.7164 -0.0017
 5366SOL    HW124458   2.084   5.301   1.545  2.4997 -0.6117 -0.5072
 5366SOL    HW224459   2.051   5.155   1.610 -0.6435  0.7425  1.0639
 5368SOL     OW24460   6.963   1.871   2.807 -0.2011 -0.2050 -0.1908
 5368SOL    HW124461   6.967   1.838   2.713  2.4571 -1.2658  0.2449
 5368SOL    HW224462   6.956   1.971   2.808  0.7095 -0.1204 -1.5057
 5371SOL     OW24463   0.019   6.859   4.345  0.2251  0.3639 -0.2574
 5371SOL    HW124464   0.099   6.889   4.294  0.5218 -0.6925 -0.4244
 5371SOL    HW224465   0.030   6.764   4.372 -0.1724  0.7426  1.2961
 5372SOL     OW24466   7.997   0.198   1.485  0.3371 -0.4221  0.1370
 5372SOL    HW124467   7.974   0.109   1.445 -0.6702 -1.4372  2.8514
 5372SOL    HW224468   8.095   0.202   1.503  0.7296 -0.1316 -1.8942
 5374SOL     OW24469   9.475   6.548   6.381  0.3456 -0.6674 -0.0478
 5374SOL    HW124470   9.430   6.636   6.364 -1.2766 -1.0076  2.1892
 5374SOL    HW224471   9.550   6.535   6.316 -0.2336  1.7629 -1.2479
 5375SOL     OW24472   9.733   9.152   5.087  0.3196 -0.5270 -0.1434
 5375SOL    HW124473   9.736   9.236   5.031 -0.8486 -0.0094  0.5564
 5375SOL    HW224474   9.675   9.084   5.042  0.7129 -0.7111 -0.3731
 5377SOL     OW24475   3.842   7.657   6.354  0.6298  0.1652 -0.0416
 5377SOL    HW124476   3.861   7.710   6.437 -0.2387 -0.4091  0.5402
 5377SOL    HW224477   3.841   7.560   6.377  0.5006 -0.0031 -0.7581
 5378SOL     OW24478   8.254   8.017   2.980  0.5974 -0.0221  0.2119
 5378SOL    HW124479   8.243   7.965   2.895 -0.6885 -0.1609  0.4508
 5378SOL    HW224480   8.349   8.011   3.011  0.8071 -0.9430 -0.5890
 5379SOL     OW24481   0.863   6.204   4.234 -0.4482  0.1783  0.3718
 5379SOL    HW124482   0.946   6.148   4.240 -0.5990 -0.0693  0.1579
 5379SOL    HW224483   0.851   6.235   4.139 -0.4800  0.3972  0.4473
 5380SOL     OW24484   1.692   6.427   6.844 -0.0598 -0.3996  0.1542
 5380SOL    HW124485   1.681   6.474   6.757 -2.7791 -2.0516 -0.4486
 5380SOL    HW224486   1.752   6.348   6.832  1.7783  0.9142  0.4314
 5381SOL     OW24487   1.090   5.010   1.204 -0.4491  0.2064 -0.0737
 5381SOL    HW124488   1.115   5.015   1.107 -0.7913 -1.7257 -0.2831
 5381SOL    HW224489   1.173   5.008   1.260 -0.2465  1.1311 -0.3439
 5382SOL     OW24490   8.465   2.755   1.770  0.1634 -0.5056  0.2679
 5382SOL    HW124491   8.439   2.829   1.833  0.8924 -0.9893  1.1361
 5382SOL    HW224492   8.386   2.733   1.712 -0.7893 -0.6532  1.5929
 5384SOL     OW24493   8.873   2.249   3.678  0.1574  0.8971 -0.7265
 5384SOL    HW124494   8.854   2.158   3.715 -1.3429  0.4628 -2.4716
 5384SOL    HW224495   8.963   2.249   3.636  0.4425  0.4106 -0.1287
 5385SOL     OW24496   8.262   9.647   7.232 -0.1505  0.0954  0.4100
 5385SOL    HW124497   8.274   9.612   7.325  0.9729 -1.9319 -0.4717
 5385SOL    HW224498   8.351   9.673   7.194 -0.4599 -0.1545 -0.5071
 5388SOL     OW24499   8.081   1.962   6.228  0.3874  0.1276 -0.0555
 5388SOL    HW124500   7.985   1.988   6.237  0.0880 -1.4357  1.5525
 5388SOL    HW224501   8.088   1.862   6.225  2.0709  0.1874  1.3546
 5389SOL     OW24502   1.681   4.980   6.328  0.0379 -0.5415  0.2238
 5389SOL    HW124503   1.618   5.048   6.292 -0.0804 -0.4801  0.5438
 5389SOL    HW224504   1.683   4.985   6.428  0.2231 -0.8322  0.2375
 5390SOL     OW24505   7.538   9.994   3.904 -0.0466 -1.2042  0.0227
 5390SOL    HW124506   7.491  10.079   3.879  0.1534 -1.5627 -1.6130
 5390SOL    HW224507   7.521   9.974   4.000 -0.2902  0.5693  0.3752
 5391SOL     OW24508   8.680   2.244   7.258  0.2974  0.2571 -0.1650
 5391SOL    HW124509   8.680   2.145   7.246  0.3410  0.5366 -2.7500
 5391SOL    HW224510   8.641   2.267   7.347  1.2898 -2.1185  0.9131
 5392SOL     OW24511   2.817   6.664   3.505  0.1535  0.8517 -0.0741
 5392SOL    HW124512   2.778   6.742   3.456 -0.5074 -0.0507 -1.0078
 5392SOL    HW224513   2.837   6.591   3.441 -0.7509 -0.3624  0.9927
 5393SOL     OW24514   4.931   6.255   1.969  0.2032 -0.0389 -0.0734
 5393SOL    HW124515   5.006   6.196   1.998 -0.1584 -0.7551 -0.5902
 5393SOL    HW224516   4.921   6.331   2.034 -0.8862 -1.8575  1.9311
 5394SOL     OW24517   8.357   6.146   7.762  0.5701 -0.2785  0.0257
 5394SOL    HW124518   8.400   6.107   7.844  1.4074  0.8054  0.1031
 5394SOL    HW224519   8.417   6.133   7.684  0.0673 -0.6991 -0.2977
 5395SOL     OW24520   6.721   9.807   5.227 -0.4819  0.2998  0.0222
 5395SOL    HW124521   6.691   9.848   5.142 -3.4903  0.1808  0.9807
 5395SOL    HW224522   6.722   9.877   5.299  1.5414  0.2886  0.0279
 5396SOL     OW24523   6.745   2.027   3.441 -0.0393 -0.0951 -0.5705
 5396SOL    HW124524   6.666   2.028   3.380  0.1615  0.4998 -0.8235
 5396SOL    HW224525   6.714   2.027   3.536 -0.3440  2.3288 -0.6443
 5397SOL     OW24526   2.416   8.158   2.363  0.5697 -0.3745 -0.2977
 5397SOL    HW124527   2.483   8.088   2.337 -0.4648 -2.0092  1.2574
 5397SOL    HW224528   2.363   8.185   2.283 -1.0412 -3.6270 -0.4025
 5398SOL     OW24529   8.787   1.077   4.434 -0.2034 -0.0869 -0.6478
 5398SOL    HW124530   8.749   1.118   4.517 -1.4024 -0.8185 -0.8358
 5398SOL    HW224531   8.887   1.087   4.436 -0.0032 -2.0807  1.9549
 5399SOL     OW24532   2.668   2.373   7.102  0.3338  0.2303  0.1913
 5399SOL    HW124533   2.697   2.354   7.195 -1.1903  2.1601  1.0880
 5399SOL    HW224534   2.578   2.332   7.086  0.3765  0.3139 -0.2813
 5400SOL     OW24535   0.755   6.647   7.675  0.2389  0.0503 -0.1477
 5400SOL    HW124536   0.842   6.620   7.717  0.1227 -0.2594 -0.1122
 5400SOL    HW224537   0.772   6.722   7.611  0.5501 -0.0737 -0.2138
 5401SOL     OW24538   2.831   8.405   3.011  0.7241 -0.3144  0.3307
 5401SOL    HW124539   2.900   8.369   3.074 -2.6377 -2.7625  2.7872
 5401SOL    HW224540   2.787   8.329   2.963  0.3382  1.2686 -1.8898
 5402SOL     OW24541   9.868   3.335   1.121  0.3278  0.4056 -0.2013
 5402SOL    HW124542   9.819   3.421   1.110 -2.4658 -1.0428  0.5540
 5402SOL    HW224543   9.877   3.314   1.218 -0.5917 -1.0135 -0.4040
 5403SOL     OW24544   8.146   4.393   3.434 -0.2079 -0.1741  0.0240
 5403SOL    HW124545   8.209   4.410   3.357  0.6076  0.4600  0.8265
 5403SOL    HW224546   8.097   4.307   3.418  1.9103 -1.4301  0.0545
 5404SOL     OW24547   3.442   2.943   4.321  0.6843  0.1818 -0.5799
 5404SOL    HW124548   3.512   3.013   4.333  0.1457  0.1360  3.6171
 5404SOL    HW224549   3.477   2.855   4.354 -0.4172 -0.4509 -1.0500
 5405SOL     OW24550   3.130   5.445   4.225 -0.5723  0.0054  0.1803
 5405SOL    HW124551   3.105   5.488   4.311  1.8859  0.0241  0.9350
 5405SOL    HW224552   3.174   5.357   4.242  1.1729  0.6198 -0.9505
 5406SOL     OW24553   5.284   4.111   2.152 -0.4242 -0.0870 -0.0300
 5406SOL    HW124554   5.189   4.124   2.126 -0.9502 -2.1798  0.7707
 5406SOL    HW224555   5.336   4.195   2.132 -2.4489  1.1312 -0.2909
 5407SOL     OW24556   7.775   2.409   0.484  0.6944 -0.1460  0.0626
 5407SOL    HW124557   7.817   2.355   0.556 -0.8656 -1.6238 -0.1126
 5407SOL    HW224558   7.825   2.396   0.399  0.1058 -1.6209 -0.0652
 5408SOL     OW24559   2.083   9.296   1.724 -0.1925 -0.1741  0.4246
 5408SOL    HW124560   2.158   9.361   1.737 -0.0495 -0.3461  0.4584
 5408SOL    HW224561   2.059   9.293   1.627 -0.6648  0.4478  0.5173
 5409SOL     OW24562   5.493   6.687   0.606  0.1030 -0.2478  0.0858
 5409SOL    HW124563   5.504   6.784   0.585  4.4608 -0.7115 -0.0938
 5409SOL    HW224564   5.473   6.676   0.703 -1.6770  0.8514 -0.1292
 5410SOL     OW24565   4.703   4.698   5.015 -0.4877 -0.2670 -0.0725
 5410SOL    HW124566   4.722   4.728   4.922 -1.7363 -1.6153 -0.7840
 5410SOL    HW224567   4.610   4.725   5.041 -0.2098 -0.0450  0.7348
 5411SOL     OW24568   8.107   7.166   6.970  0.7073  0.1251 -0.2013
 5411SOL    HW124569   8.023   7.132   6.929  1.0340  0.5627 -1.2541
 5411SOL    HW224570   8.158   7.090   7.011  0.2934 -0.2896 -0.4628
 5412SOL     OW24571   8.250   2.023   1.681  0.3622 -0.5296  0.3574
 5412SOL    HW124572   8.275   1.938   1.727 -1.2348 -1.2496 -0.0790
 5412SOL    HW224573   8.183   2.073   1.737  0.3296 -0.1865  0.0135
 5413SOL     OW24574   0.555   5.772   6.917  0.0895 -0.5275  0.1957
 5413SOL    HW124575   0.501   5.833   6.976  2.6664  1.9379  0.0715
 5413SOL    HW224576   0.649   5.805   6.911  0.6832 -2.5388 -2.7489
 5414SOL     OW24577   3.450   5.959   5.418 -0.1453  0.0710  0.3598
 5414SOL    HW124578   3.520   5.999   5.477 -0.2568  2.2058 -0.9207
 5414SOL    HW224579   3.470   5.862   5.404  1.2820  0.1284  1.8407
 5416SOL     OW24580   5.801   9.457   2.175  0.4746  0.6165  0.6558
 5416SOL    HW124581   5.720   9.418   2.132  0.2429  2.4170 -0.5753
 5416SOL    HW224582   5.880   9.397   2.158  0.0385  0.4427 -0.8419
 5417SOL     OW24583   2.200   3.097   0.018 -0.1259 -0.2255  0.0325
 5417SOL    HW124584   2.158   3.181   0.054 -0.5730  0.1222 -1.2741
 5417SOL    HW224585   2.297   3.096   0.042  0.0781  1.0932 -0.6732
 5418SOL     OW24586   0.711   8.714   5.869 -0.1687  0.3135 -0.0832
 5418SOL    HW124587   0.661   8.796   5.839 -4.2405 -2.5014 -1.3649
 5418SOL    HW224588   0.722   8.652   5.792  1.4256 -1.1215  1.2614
 5419SOL     OW24589   8.656   0.001   2.860  0.3632 -0.1510  0.3811
 5419SOL    HW124590   8.687   0.088   2.900  1.5776 -0.9273  1.1567
 5419SOL    HW224591   8.564  -0.018   2.893 -0.8219  1.9350 -1.5598
 5420SOL     OW24592   8.497   8.651   6.362  0.1833  0.2780  0.2459
 5420SOL    HW124593   8.515   8.624   6.457  1.3242 -0.5772 -0.2041
 5420SOL    HW224594   8.462   8.745   6.360  1.5446  0.8225  1.3982
 5421SOL     OW24595   3.202   2.718   0.332 -0.3626 -0.1393 -0.0260
 5421SOL    HW124596   3.276   2.700   0.267 -0.3374 -1.4317  0.3416
 5421SOL    HW224597   3.229   2.687   0.423 -0.3375  1.8081  0.6599
 5423SOL     OW24598   3.642   4.184   0.961  0.2220  0.5021 -0.3505
 5423SOL    HW124599   3.726   4.129   0.964 -0.5440 -0.6122  1.9313
 5423SOL    HW224600   3.640   4.245   1.041 -0.3356  1.7562 -1.3092
 5425SOL     OW24601   3.133   3.536   2.874  0.0565  0.3383 -0.6853
 5425SOL    HW124602   3.139   3.628   2.913  1.4412  0.0735 -0.2616
 5425SOL    HW224603   3.182   3.532   2.787 -1.0622  0.3183 -1.3274
 5427SOL     OW24604   5.142   2.873   7.178  0.1441 -0.0501  0.1594
 5427SOL    HW124605   5.097   2.931   7.109 -0.3221 -0.7960 -0.1780
 5427SOL    HW224606   5.226   2.834   7.140  0.5861  0.5998  0.4705
 5428SOL     OW24607   3.381   6.647   0.911  0.1121  0.4534 -0.3466
 5428SOL    HW124608   3.420   6.687   0.993 -1.8613  1.9399 -0.1001
 5428SOL    HW224609   3.332   6.563   0.934 -0.8964  1.1594  0.0804
 5429SOL     OW24610   1.578   2.570   6.719  0.2318 -0.0003 -0.1531
 5429SOL    HW124611   1.548   2.511   6.794  0.5507 -2.2072 -1.7272
 5429SOL    HW224612   1.505   2.577   6.651  0.9904 -0.3494 -1.0140
 5430SOL     OW24613   9.853   6.293   6.433 -0.2566  0.2708 -0.1248
 5430SOL    HW124614   9.783   6.262   6.369 -0.0906  1.6105 -0.9650
 5430SOL    HW224615   9.843   6.244   6.520 -1.0240 -0.9204 -0.8768
 5432SOL     OW24616   7.783   5.687   1.217  0.5702 -0.4028 -0.1347
 5432SOL    HW124617   7.758   5.679   1.121 -0.6725 -1.1526  0.2336
 5432SOL    HW224618   7.847   5.615   1.242  1.4290  0.2032 -0.5531
 5433SOL     OW24619   0.463   9.258   4.515 -0.0315  0.5691 -0.1026
 5433SOL    HW124620   0.527   9.258   4.591 -0.7875  0.6420  0.5350
 5433SOL    HW224621   0.401   9.180   4.523  0.1809  0.3169 -0.8873
 5434SOL     OW24622  -0.003   0.589   4.022 -0.1301  0.2984  0.3371
 5434SOL    HW124623   0.030   0.526   3.952  0.9750  2.3911 -1.0987
 5434SOL    HW224624   0.072   0.649   4.051 -0.7795 -0.0107  2.7477
 5435SOL     OW24625   3.925   0.853   0.915  0.5782  0.2751 -0.0572
 5435SOL    HW124626   3.884   0.941   0.892  0.9001  0.4630  0.0804
 5435SOL    HW224627   4.011   0.869   0.965  0.3407 -0.1188  0.4716
 5437SOL     OW24628   7.757   7.830   1.634 -0.3781  0.3079 -0.2829
 5437SOL    HW124629   7.664   7.868   1.638 -0.2203  0.9102 -2.1781
 5437SOL    HW224630   7.756   7.737   1.672 -1.6018  0.5820  0.3952
 5438SOL     OW24631   5.788   9.748   3.758  0.1499 -0.6053 -0.2425
 5438SOL    HW124632   5.786   9.781   3.664 -0.7679 -1.2817 -0.4604
 5438SOL    HW224633   5.737   9.663   3.765  0.1554 -0.5258  0.8878
 5440SOL     OW24634   5.195   8.013   2.711  0.4182 -0.3895 -0.4975
 5440SOL    HW124635   5.113   8.052   2.752  1.3431  1.4889 -0.3697
 5440SOL    HW224636   5.255   7.979   2.784  1.1285  1.0660 -0.3791
 5441SOL     OW24637   2.223   0.972   4.073 -0.0195  0.1851 -0.5332
 5441SOL    HW124638   2.213   0.951   4.171 -0.5676 -2.0911 -1.0623
 5441SOL    HW224639   2.291   1.045   4.062  0.8676 -0.3073  1.4754
 5442SOL     OW24640   2.117   7.837   3.139  0.3647  0.1125 -0.9424
 5442SOL    HW124641   2.178   7.767   3.176  0.1808 -0.9144 -2.5334
 5442SOL    HW224642   2.149   7.927   3.167  1.1735 -0.5369  0.3072
 5443SOL     OW24643   2.674   5.635   1.871 -0.3212  0.4113 -0.1045
 5443SOL    HW124644   2.684   5.666   1.966  1.4118  0.0422 -0.1373
 5443SOL    HW224645   2.679   5.535   1.868 -1.0753  0.3814 -0.5206
 5444SOL     OW24646   1.398   4.554   7.415 -0.0601  0.4086 -0.2480
 5444SOL    HW124647   1.357   4.631   7.465 -0.2789  0.9696 -1.2651
 5444SOL    HW224648   1.341   4.473   7.426 -0.4541  0.7009 -0.1249
 5445SOL     OW24649   9.940   9.218   2.609 -0.0388  0.5894  0.0418
 5445SOL    HW124650   9.931   9.246   2.704  0.8413  1.7544 -0.2161
 5445SOL    HW224651  10.033   9.185   2.592 -0.4321 -0.4121 -0.2066
 5446SOL     OW24652   9.290   8.606   3.236  0.6860  0.0250 -0.9281
 5446SOL    HW124653   9.262   8.623   3.141 -3.1297  0.6831  0.2013
 5446SOL    HW224654   9.332   8.516   3.243  0.4760 -0.2808 -3.1189
 5447SOL     OW24655   1.092   8.112   5.213  0.6083 -0.3299  0.2616
 5447SOL    HW124656   1.015   8.074   5.263  0.5374 -0.3196  0.1596
 5447SOL    HW224657   1.083   8.091   5.116  0.3254  0.3522  0.1385
 5448SOL     OW24658   1.951   4.391   6.140 -0.0370  0.1860 -0.0851
 5448SOL    HW124659   1.855   4.388   6.114 -0.3706  0.5153  1.0698
 5448SOL    HW224660   1.963   4.346   6.229  0.5001  2.0851  0.8504
 5449SOL     OW24661   8.583   7.332   2.182 -0.3990 -0.1292  0.2024
 5449SOL    HW124662   8.552   7.381   2.263  0.2652 -0.0772  0.4252
 5449SOL    HW224663   8.670   7.286   2.202 -0.9803 -1.3562 -0.0134
 5450SOL     OW24664   6.720   0.127   1.950  0.4894 -0.1660  0.8053
 5450SOL    HW124665   6.717   0.188   1.870  1.0240 -0.9747  0.1643
 5450SOL    HW224666   6.719   0.182   2.033  0.5601  0.7084  0.2387
 5451SOL     OW24667   0.594   8.963   5.477  0.7243 -0.4866  0.0161
 5451SOL    HW124668   0.541   8.911   5.544  1.3624 -1.1827 -0.0237
 5451SOL    HW224669   0.586   9.061   5.498 -1.4190 -0.4996 -0.5999
 5453SOL     OW24670   9.444   9.074   5.390 -0.2517 -0.3805 -0.1614
 5453SOL    HW124671   9.515   9.045   5.455  0.2082 -1.6287 -1.2042
 5453SOL    HW224672   9.381   9.136   5.436  1.4466  0.6704  0.8215
 5454SOL     OW24673   0.456   9.332   7.783  0.0895 -0.3037  0.0346
 5454SOL    HW124674   0.441   9.411   7.723 -2.4443 -1.4176 -0.8883
 5454SOL    HW224675   0.473   9.364   7.877  0.0653  1.3547 -0.5113
 5457SOL     OW24676   3.984   3.959   0.595  0.3083  0.0363  0.4429
 5457SOL    HW124677   4.016   3.958   0.501  0.2215  1.5829  0.3926
 5457SOL    HW224678   4.038   3.893   0.649  1.0536 -0.0987 -0.4518
 5458SOL     OW24679   1.179   9.270   5.042 -0.2321  0.3088 -0.1308
 5458SOL    HW124680   1.237   9.351   5.029 -1.6515  1.0997 -1.7519
 5458SOL    HW224681   1.101   9.275   4.980 -1.1856 -1.5411  0.8834
 5460SOL     OW24682   9.798   2.887   0.810  0.1614  0.1494 -0.0078
 5460SOL    HW124683   9.808   2.816   0.740  1.1168  1.0744 -0.8234
 5460SOL    HW224684   9.797   2.844   0.900 -0.5466 -1.0106 -0.5550
 5461SOL     OW24685   9.517   3.621   7.724 -0.4406 -0.1630  0.2474
 5461SOL    HW124686   9.515   3.571   7.638 -0.0399 -4.0999  2.4082
 5461SOL    HW224687   9.446   3.586   7.785 -0.1740  1.9674  1.8586
 5462SOL     OW24688   3.778   7.080   1.987 -0.2264 -0.3846  0.0119
 5462SOL    HW124689   3.685   7.088   1.950  0.2218 -0.8014 -1.2514
 5462SOL    HW224690   3.833   7.158   1.957 -0.4745  0.4623  1.7197
 5463SOL     OW24691   8.246   5.594   0.785  0.1868  0.3287 -0.1252
 5463SOL    HW124692   8.333   5.638   0.764 -0.0730 -0.1545 -2.3385
 5463SOL    HW224693   8.174   5.633   0.727 -0.5469 -1.1938 -0.2683
 5464SOL     OW24694   7.122   7.174   5.316 -0.3925  0.4433 -0.3394
 5464SOL    HW124695   7.218   7.146   5.319 -0.8063 -0.9497  0.4663
 5464SOL    HW224696   7.073   7.117   5.249 -1.1536 -0.4828  0.9905
 5465SOL     OW24697   3.857   1.026   4.569 -0.1129 -0.3385 -0.1860
 5465SOL    HW124698   3.807   1.034   4.483 -0.1931 -1.6750 -0.2757
 5465SOL    HW224699   3.884   0.930   4.584  2.6179  0.3591 -0.2709
 5466SOL     OW24700   0.881   1.660   4.334  0.6105 -0.1393 -0.2538
 5466SOL    HW124701   0.878   1.576   4.387 -1.0836  0.1697  0.1522
 5466SOL    HW224702   0.883   1.637   4.236  3.3211 -0.6917 -0.1051
 5467SOL     OW24703   5.705   1.097   0.290  0.2290 -0.0288  0.2588
 5467SOL    HW124704   5.794   1.066   0.255 -0.2770 -1.5889  0.3254
 5467SOL    HW224705   5.719   1.145   0.376  1.2790  2.0920 -1.0526
 5468SOL     OW24706   8.080   3.888   2.413  0.5514 -0.0172  0.1256
 5468SOL    HW124707   8.015   3.814   2.422  0.2005  0.1363 -1.0250
 5468SOL    HW224708   8.168   3.861   2.452  0.1729 -0.7076  0.4951
 5469SOL     OW24709   1.579   2.737   7.624  0.1119 -0.0841 -0.1760
 5469SOL    HW124710   1.609   2.810   7.563  1.4538 -0.3918  0.0938
 5469SOL    HW224711   1.659   2.698   7.670 -0.8590  0.0738  1.6849
 5470SOL     OW24712   1.700   8.687   6.616 -0.0846 -0.0264  0.2806
 5470SOL    HW124713   1.678   8.597   6.578 -2.6853  0.8598 -0.4254
 5470SOL    HW224714   1.792   8.713   6.587  0.1842 -1.8789 -0.6314
 5472SOL     OW24715   2.209   5.316   5.729  0.1588  0.4678 -0.1009
 5472SOL    HW124716   2.231   5.372   5.649 -0.4456  0.3516 -0.3480
 5472SOL    HW224717   2.220   5.371   5.812 -2.5477  1.6159 -0.4737
 5474SOL     OW24718   0.537   3.192   1.825  0.3995 -0.4222  0.0510
 5474SOL    HW124719   0.439   3.174   1.820  0.1467  0.9229 -0.0803
 5474SOL    HW224720   0.559   3.235   1.912  0.6510  0.5582 -0.4926
 5475SOL     OW24721   6.998   6.783   5.879 -0.1606  0.2653  0.2747
 5475SOL    HW124722   7.010   6.735   5.792  0.2482 -0.1539  0.5575
 5475SOL    HW224723   6.912   6.833   5.878 -0.6241 -0.5443  0.0151
 5476SOL     OW24724   3.198   7.365   7.813  0.1997 -0.0611  0.3860
 5476SOL    HW124725   3.203   7.460   7.784  0.4845 -0.1808  0.0276
 5476SOL    HW224726   3.192   7.360   7.913 -0.0684  0.3371  0.3922
 5477SOL     OW24727   3.198   1.672   0.184  0.3715 -0.6610 -0.0134
 5477SOL    HW124728   3.099   1.661   0.189  0.2515  0.4864  0.1149
 5477SOL    HW224729   3.221   1.736   0.111  1.0443 -1.1726 -0.2618
 5478SOL     OW24730   1.797   7.468   7.637 -0.2575  0.1155  0.0016
 5478SOL    HW124731   1.739   7.402   7.590 -1.4643  0.9368  0.3129
 5478SOL    HW224732   1.881   7.481   7.586  0.3836 -2.2887  0.3613
 5479SOL     OW24733   6.568   2.372   2.765  0.0340 -0.0675  0.1078
 5479SOL    HW124734   6.597   2.397   2.673  2.2287 -1.3307  0.4285
 5479SOL    HW224735   6.486   2.315   2.760 -0.3716  0.6108 -1.0162
 5480SOL     OW24736   1.050   6.468   4.768  0.2567  0.1541 -0.2212
 5480SOL    HW124737   1.056   6.528   4.688  2.1696  0.4424  0.1222
 5480SOL    HW224738   1.061   6.522   4.851 -1.2447 -0.2231  0.2402
 5481SOL     OW24739   4.267   1.058   1.789 -0.2393 -0.0205 -0.3491
 5481SOL    HW124740   4.255   1.124   1.863 -0.4371 -0.8193  0.3495
 5481SOL    HW224741   4.267   0.965   1.828  1.4098 -0.3633 -1.1281
 5482SOL     OW24742   8.458   4.747   3.654  0.1048 -0.1705 -0.1924
 5482SOL    HW124743   8.373   4.799   3.654 -0.7468 -1.5490 -0.0856
 5482SOL    HW224744   8.499   4.750   3.746 -1.6626 -2.4599  0.6963
 5483SOL     OW24745   5.757   5.532   1.216  0.4577  0.1912 -0.0113
 5483SOL    HW124746   5.699   5.582   1.152  0.9550  0.9966  0.1602
 5483SOL    HW224747   5.703   5.460   1.260  0.9469 -2.7183 -3.8645
 5484SOL     OW24748   7.082   1.696   3.216  0.1746 -0.2723 -0.2930
 5484SOL    HW124749   7.025   1.702   3.298 -2.6194 -3.3271 -1.8708
 5484SOL    HW224750   7.034   1.739   3.139  2.0668  1.1616 -0.6959
 5485SOL     OW24751   3.496   2.264   6.735 -0.0004  0.2026  0.1140
 5485SOL    HW124752   3.440   2.211   6.799 -0.7762 -0.0247 -0.7439
 5485SOL    HW224753   3.569   2.311   6.785 -0.0870 -0.6477  1.0530
 5486SOL     OW24754   7.389   6.952   4.720  0.2518  0.0746  0.0474
 5486SOL    HW124755   7.338   7.002   4.649  1.1770  0.1415 -0.5788
 5486SOL    HW224756   7.433   7.018   4.781 -0.7934  0.0171  0.8763
 5487SOL     OW24757   0.249   1.867   2.936  0.0146  0.4119  0.5987
 5487SOL    HW124758   0.178   1.901   2.875  0.7367 -1.9257 -1.6462
 5487SOL    HW224759   0.320   1.936   2.947 -0.5973  1.2232 -0.4515
 5489SOL     OW24760   9.108   9.575   0.174  0.2715  0.0033  0.1194
 5489SOL    HW124761   9.124   9.540   0.082 -0.3254 -2.0334  0.7650
 5489SOL    HW224762   9.062   9.505   0.229 -1.3182  1.9598  1.3420
 5490SOL     OW24763   5.103   9.536   3.681 -0.5665  0.0699  0.4145
 5490SOL    HW124764   5.055   9.460   3.639 -1.4998  0.6114  0.4944
 5490SOL    HW224765   5.147   9.591   3.609 -1.9973  0.8810  0.1338
 5492SOL     OW24766   3.867   1.927   1.410  0.4376 -0.4229 -0.0437
 5492SOL    HW124767   3.924   1.987   1.353 -0.2846  0.0972 -0.2145
 5492SOL    HW224768   3.792   1.890   1.355  0.0233 -0.3061  0.4499
 5493SOL     OW24769   4.960   8.754   4.673 -0.5760 -0.2050 -0.0989
 5493SOL    HW124770   4.996   8.847   4.681  0.3582 -0.6360  0.9262
 5493SOL    HW224771   4.861   8.757   4.658 -0.5690  0.9385  0.0392
 5494SOL     OW24772   1.124   0.704   4.298 -0.4004  0.5682  0.1739
 5494SOL    HW124773   1.026   0.702   4.283 -0.0829 -0.1136 -2.0616
 5494SOL    HW224774   1.162   0.614   4.277  1.0578  1.6047 -1.8068
 5495SOL     OW24775   1.839   4.672   3.146  0.3983 -0.0548 -0.4424
 5495SOL    HW124776   1.789   4.614   3.211  1.8829  0.6453  1.3919
 5495SOL    HW224777   1.781   4.691   3.067 -1.4212 -1.0640  0.6007
 5496SOL     OW24778   1.918   7.580   1.731  1.0195  0.5849 -0.1007
 5496SOL    HW124779   1.834   7.543   1.692  2.4785 -3.3626  0.3023
 5496SOL    HW224780   1.903   7.600   1.828  1.0324 -1.8734  0.4322
 5497SOL     OW24781   4.912   2.707   6.444 -0.5022  0.0996  0.0883
 5497SOL    HW124782   4.935   2.805   6.444 -0.1526  0.0362 -1.2547
 5497SOL    HW224783   4.958   2.663   6.367  0.6599 -1.4520  1.6336
 5498SOL     OW24784   2.036   8.366   1.357 -0.1384 -0.6072 -0.4303
 5498SOL    HW124785   2.040   8.368   1.257  1.8890 -1.9687 -0.3873
 5498SOL    HW224786   2.124   8.396   1.394 -1.1246  0.6205  0.9818
 5499SOL     OW24787   8.179   4.245   6.081 -0.4945  0.1688  0.2433
 5499SOL    HW124788   8.217   4.273   5.993 -1.3595  1.0394  0.1364
 5499SOL    HW224789   8.203   4.312   6.151  1.8648 -1.5315  1.1076
 5500SOL     OW24790   4.643   1.088   3.509  0.2777  0.0133 -0.1465
 5500SOL    HW124791   4.595   1.084   3.597  0.9786 -1.1723  0.1971
 5500SOL    HW224792   4.683   1.178   3.496  1.8050 -0.3818  1.6368
 5501SOL     OW24793   3.930   4.075   2.378  0.0631  0.1851 -0.4257
 5501SOL    HW124794   3.848   4.042   2.333  0.3917 -0.2267 -0.7296
 5501SOL    HW224795   3.969   4.003   2.435  1.3854 -0.3416 -1.9375
 5503SOL     OW24796   3.968   7.024   0.503  0.3221 -0.1795 -0.1225
 5503SOL    HW124797   3.952   6.989   0.411  2.6773 -0.5316 -0.4319
 5503SOL    HW224798   3.918   6.967   0.569 -2.2232  0.7108 -1.2302
 5504SOL     OW24799   8.275   9.447   4.196 -0.2313  0.2937 -0.2263
 5504SOL    HW124800   8.237   9.370   4.145 -0.2458 -0.3951  0.8231
 5504SOL    HW224801   8.202   9.510   4.221 -0.8296 -1.4064  2.4478
 5505SOL     OW24802   2.520   3.892   5.833 -0.0227  0.1783 -0.2249
 5505SOL    HW124803   2.512   3.972   5.892 -1.6788 -0.5239  0.5157
 5505SOL    HW224804   2.521   3.809   5.890  0.9420 -0.3792 -1.0323
 5506SOL     OW24805   0.389   1.484   3.135 -0.7274 -0.4291  0.2754
 5506SOL    HW124806   0.455   1.409   3.129 -0.7967 -0.4254 -0.5972
 5506SOL    HW224807   0.385   1.531   3.047 -0.9957  0.3342  0.6981
 5507SOL     OW24808   3.044   3.303   6.390 -0.3930  0.4434  0.6855
 5507SOL    HW124809   2.960   3.286   6.441 -0.9352 -1.8189 -0.9229
 5507SOL    HW224810   3.108   3.228   6.405 -0.2077  0.1980 -1.2478
 5508SOL     OW24811   7.263   1.957   3.284 -0.0314  0.8897 -0.2993
 5508SOL    HW124812   7.288   1.963   3.381  0.4529  0.3096 -0.3833
 5508SOL    HW224813   7.181   1.902   3.274  0.0312  0.7850 -0.2346
 5509SOL     OW24814   8.186   5.982   3.980 -0.0238  0.3163 -0.3469
 5509SOL    HW124815   8.175   5.887   4.007  0.0628  0.1569 -0.8628
 5509SOL    HW224816   8.212   6.037   4.059 -1.2543  0.1140  0.2064
 5510SOL     OW24817   4.565   9.801   0.713 -0.3641  0.9540  0.2246
 5510SOL    HW124818   4.613   9.885   0.689 -0.5533  0.9300 -0.2393
 5510SOL    HW224819   4.630   9.734   0.750  0.1436  0.5243 -1.4154
 5512SOL     OW24820   0.780   4.585   4.289 -0.6844  0.2207  0.1610
 5512SOL    HW124821   0.690   4.544   4.271 -0.9899  0.6800  0.6215
 5512SOL    HW224822   0.851   4.518   4.270 -1.1089 -0.0547 -0.4996
 5513SOL     OW24823   9.690   6.757   0.537  0.4923 -0.3747 -0.0468
 5513SOL    HW124824   9.598   6.781   0.507  0.0312 -0.4186  1.2726
 5513SOL    HW224825   9.757   6.816   0.491 -0.1443 -0.7225 -1.4303
 5514SOL     OW24826   7.935   7.942   2.543 -0.4306 -0.0360 -0.1320
 5514SOL    HW124827   7.894   7.856   2.513 -0.0060  0.3331 -1.8187
 5514SOL    HW224828   7.865   8.014   2.544 -0.1394  0.2789 -1.6646
 5515SOL     OW24829   7.092   4.701   1.529  0.1387 -0.6677  0.0277
 5515SOL    HW124830   7.147   4.628   1.489 -0.5321  0.0659 -2.2876
 5515SOL    HW224831   7.002   4.666   1.553  0.1279 -0.8107 -0.2285
 5516SOL     OW24832   2.563   7.555   5.801 -0.0897  0.0311 -0.4892
 5516SOL    HW124833   2.536   7.531   5.708 -2.5722  0.6241  0.0461
 5516SOL    HW224834   2.640   7.619   5.798  1.0202 -1.3421 -2.0702
 5517SOL     OW24835   4.860   0.861   7.875  0.1556  0.4216  0.3720
 5517SOL    HW124836   4.896   0.775   7.838  1.5713  0.3096  1.9569
 5517SOL    HW224837   4.935   0.914   7.914 -1.0744  1.2118  1.6927
 5518SOL     OW24838   1.573   2.398   7.324 -0.3960 -0.1637 -0.0247
 5518SOL    HW124839   1.616   2.310   7.344 -0.9255 -0.1857  1.0250
 5518SOL    HW224840   1.488   2.383   7.273 -0.1661 -0.2208 -0.3953
 5519SOL     OW24841   8.832   8.682   6.578  0.7018 -0.1726  0.3940
 5519SOL    HW124842   8.925   8.678   6.615  1.4736 -0.7954 -1.5411
 5519SOL    HW224843   8.825   8.758   6.513  0.0815 -0.5990 -0.0433
 5520SOL     OW24844   7.763   0.038   1.129 -0.0402 -0.4043  0.2435
 5520SOL    HW124845   7.799   0.026   1.222  1.0981 -3.5736 -0.5489
 5520SOL    HW224846   7.825   0.097   1.077 -0.1976  0.6370  1.2332
 5522SOL     OW24847   3.376   8.709   2.633  0.3593  0.1116 -0.3445
 5522SOL    HW124848   3.407   8.741   2.723  1.4291  0.3328 -0.7885
 5522SOL    HW224849   3.347   8.786   2.578 -1.5710 -0.1537  0.2837
 5523SOL     OW24850   2.057   7.726   7.366 -0.5185  0.0813  0.0669
 5523SOL    HW124851   2.030   7.741   7.461 -0.3503 -0.1889  0.1583
 5523SOL    HW224852   2.144   7.677   7.363 -0.3314  0.4246 -0.2274
 5524SOL     OW24853   4.605   7.143   3.878 -0.0986  0.3046 -0.2178
 5524SOL    HW124854   4.517   7.126   3.922 -0.3779  2.0843 -0.0393
 5524SOL    HW224855   4.667   7.190   3.942 -0.4938  2.8591 -1.6343
 5526SOL     OW24856   1.910   7.479   5.825 -0.1710  0.3018  0.0949
 5526SOL    HW124857   1.936   7.388   5.793  0.8269  0.7062 -0.2658
 5526SOL    HW224858   1.822   7.505   5.785 -2.1306 -1.8724  2.8512
 5527SOL     OW24859   6.150   9.352   3.402  0.5549 -0.7958  0.0475
 5527SOL    HW124860   6.096   9.303   3.334 -0.0053 -1.6767  1.1113
 5527SOL    HW224861   6.175   9.442   3.367  1.6956 -1.8681 -1.9944
 5528SOL     OW24862   0.750   7.304   3.914 -0.2974  0.4434 -0.5476
 5528SOL    HW124863   0.692   7.275   3.990 -0.7913  1.4557 -0.5246
 5528SOL    HW224864   0.823   7.237   3.900  0.4481  0.7836  1.5376
 5529SOL     OW24865   0.142   5.297   1.194  0.0357 -0.1700 -0.1214
 5529SOL    HW124866   0.146   5.383   1.144  0.7078 -1.1192 -1.7555
 5529SOL    HW224867   0.056   5.250   1.173  0.9962 -1.2977 -1.6761
 5530SOL     OW24868   4.376   2.272   0.722  0.8013 -0.0988 -0.2307
 5530SOL    HW124869   4.457   2.245   0.670  1.2084 -0.7107  0.7207
 5530SOL    HW224870   4.401   2.337   0.793  0.2865  0.4992 -0.5837
 5531SOL     OW24871   2.288   6.870   2.673  0.4963 -0.5902  0.2456
 5531SOL    HW124872   2.271   6.814   2.593  1.2232  0.2219 -0.4919
 5531SOL    HW224873   2.304   6.965   2.645 -1.1746  0.0957  1.4968
 5533SOL     OW24874   7.224   2.021   1.251 -0.2531  0.1604 -0.0920
 5533SOL    HW124875   7.131   2.057   1.249 -0.3188  0.0533  0.9489
 5533SOL    HW224876   7.230   1.941   1.190 -0.6282  0.6649 -0.7918
 5534SOL     OW24877   6.710   8.929   6.583 -0.1966  0.4583  0.0713
 5534SOL    HW124878   6.657   9.010   6.560 -0.0478 -0.2726 -3.1241
 5534SOL    HW224879   6.805   8.955   6.602 -0.0630  0.9916 -1.3243
 5535SOL     OW24880   4.164   7.567   1.281  0.5219  0.5506 -0.0198
 5535SOL    HW124881   4.259   7.591   1.302  1.0259 -0.8679 -0.6146
 5535SOL    HW224882   4.108   7.576   1.363  1.6487 -0.9333  0.9374
 5536SOL     OW24883   6.883   9.444   7.424  0.7202  0.6465  0.1766
 5536SOL    HW124884   6.838   9.479   7.507  0.5416 -1.5484  1.0431
 5536SOL    HW224885   6.848   9.352   7.405  2.8371  0.0230 -0.7341
 5537SOL     OW24886   4.687   9.894   2.630  0.1203  0.6022  0.1756
 5537SOL    HW124887   4.705   9.908   2.532 -1.1305 -3.9454 -0.8149
 5537SOL    HW224888   4.619   9.960   2.661  1.4877  2.9729 -1.6579
 5538SOL     OW24889   0.305   4.574   3.922 -0.0899 -0.6089  0.0816
 5538SOL    HW124890   0.347   4.608   3.838 -1.4617  1.0301  0.0331
 5538SOL    HW224891   0.374   4.526   3.976  0.8790 -1.4661 -1.8396
 5539SOL     OW24892   9.813   8.351   4.884 -0.4890 -0.2553 -0.5660
 5539SOL    HW124893   9.864   8.265   4.882  1.6832  1.0042 -0.6061
 5539SOL    HW224894   9.791   8.375   4.979 -0.6981 -0.6346 -0.5201
 5540SOL     OW24895   7.496   3.570   7.418 -0.4181  0.2195 -0.0929
 5540SOL    HW124896   7.588   3.555   7.454  0.3372 -0.4420 -2.2444
 5540SOL    HW224897   7.435   3.497   7.451  0.6422 -1.3032 -1.4158
 5541SOL     OW24898   0.072   9.284   3.915  0.0688  0.6661 -0.1740
 5541SOL    HW124899   0.157   9.325   3.949  0.1185  2.2572 -2.1600
 5541SOL    HW224900  -0.002   9.351   3.920 -0.7509 -0.2533  0.1851
 5542SOL     OW24901   8.736   9.645   5.551 -0.1198  0.2729 -0.2359
 5542SOL    HW124902   8.711   9.586   5.474 -0.5362  1.2805 -0.8904
 5542SOL    HW224903   8.677   9.626   5.629  1.3076 -1.8432  0.3860
 5543SOL     OW24904   0.428   1.669   5.994  0.2453  0.1271  0.0709
 5543SOL    HW124905   0.471   1.585   5.962 -1.3065 -1.5120  2.1528
 5543SOL    HW224906   0.421   1.667   6.094 -1.4426  1.9175  0.0198
 5544SOL     OW24907   9.387   8.876   1.415  0.1692  0.2863 -0.0984
 5544SOL    HW124908   9.322   8.804   1.441  0.3674  0.3288  0.5233
 5544SOL    HW224909   9.462   8.878   1.480  1.8097 -1.0413 -1.9104
 5545SOL     OW24910   3.194   5.140   0.235  0.4006  0.2892 -0.1925
 5545SOL    HW124911   3.161   5.140   0.329  0.3385 -0.6662 -0.2066
 5545SOL    HW224912   3.119   5.163   0.173  0.6204  1.6613  0.0454
 5546SOL     OW24913   2.234   9.352   0.872  0.5410 -0.1653  0.5109
 5546SOL    HW124914   2.267   9.359   0.966 -0.6308 -0.9503  1.0045
 5546SOL    HW224915   2.239   9.257   0.842  0.3946 -0.0049 -0.0220
 5548SOL     OW24916   6.807   7.237   3.130 -0.7524  0.1915  0.3798
 5548SOL    HW124917   6.891   7.290   3.141 -1.9677  2.6190 -1.7328
 5548SOL    HW224918   6.808   7.192   3.040 -2.0183  0.8447  0.0279
 5550SOL     OW24919   5.458   8.277   6.398 -0.0690  0.5099 -0.4087
 5550SOL    HW124920   5.438   8.240   6.489  0.9187  0.0860 -0.3567
 5550SOL    HW224921   5.458   8.202   6.331  0.2426  0.6710 -0.5881
 5551SOL     OW24922   1.553   3.089   4.323 -0.2300 -0.2506 -0.0221
 5551SOL    HW124923   1.521   3.125   4.235 -1.2318  0.0185  0.4412
 5551SOL    HW224924   1.619   3.017   4.307 -0.4251 -0.2221 -1.0061
 5552SOL     OW24925   5.431   1.518   7.004  0.4224  0.1347  0.0885
 5552SOL    HW124926   5.453   1.613   7.026 -0.3544  0.4287 -0.4002
 5552SOL    HW224927   5.515   1.463   7.006  0.7946  0.7303  0.8764
 5553SOL     OW24928   3.950   1.650   2.084 -0.2985 -0.7428 -0.5539
 5553SOL    HW124929   3.863   1.685   2.049  0.0531 -1.0847 -1.8047
 5553SOL    HW224930   4.022   1.668   2.017  0.5363 -0.7445  0.3374
 5554SOL     OW24931   3.639   6.847   2.455 -0.1528  0.1355  0.5909
 5554SOL    HW124932   3.626   6.896   2.541 -0.5386 -0.4140  0.8501
 5554SOL    HW224933   3.570   6.875   2.389  0.5696  1.0750  0.2192
 5555SOL     OW24934   9.512   0.923   0.592 -0.1112  0.2049 -0.3391
 5555SOL    HW124935   9.600   0.931   0.547  0.2671  0.0642  0.3590
 5555SOL    HW224936   9.517   0.852   0.662 -0.9895 -0.3201 -0.7941
 5558SOL     OW24937   9.302   5.106   0.288 -0.4889  0.3873 -0.6181
 5558SOL    HW124938   9.228   5.056   0.244  0.1486 -0.5901 -0.5985
 5558SOL    HW224939   9.377   5.043   0.307  1.6403  1.9224 -3.4696
 5559SOL     OW24940   8.737   9.133   5.788  0.3313 -0.1199  0.0815
 5559SOL    HW124941   8.645   9.107   5.758  0.3340  1.6657 -1.4964
 5559SOL    HW224942   8.755   9.089   5.877 -1.5942 -1.3819 -0.0981
 5560SOL     OW24943   8.713   4.477   6.295  0.7860  0.0379  0.2252
 5560SOL    HW124944   8.747   4.551   6.353 -0.1095  0.9097 -0.3405
 5560SOL    HW224945   8.788   4.441   6.240  0.7974  2.0682 -1.1552
 5561SOL     OW24946   4.203   3.095   3.861 -0.0897 -0.3387  0.1198
 5561SOL    HW124947   4.152   3.112   3.777 -0.9710  0.8047  0.8563
 5561SOL    HW224948   4.143   3.110   3.940  0.7445 -1.3155  0.9585
 5563SOL     OW24949   1.031   3.861   4.761  0.5655  0.1680 -0.0476
 5563SOL    HW124950   1.043   3.954   4.795  0.6545  0.1206  0.0476
 5563SOL    HW224951   1.026   3.797   4.837  0.7621  0.0633 -0.1221
 5564SOL     OW24952   3.120   6.169   5.969  0.0397  0.0840  0.1920
 5564SOL    HW124953   3.206   6.212   5.996 -0.4159  1.4209 -0.4355
 5564SOL    HW224954   3.043   6.220   6.008 -0.4643 -1.2396  0.9457
 5566SOL     OW24955   9.699   8.613   4.652 -0.0475  0.0567 -0.1235
 5566SOL    HW124956   9.674   8.552   4.576  0.0449 -0.7847  0.5073
 5566SOL    HW224957   9.780   8.666   4.627 -0.6519  0.5679 -1.0190
 5568SOL     OW24958   0.826   2.075   3.010  0.0175  0.0612 -0.6091
 5568SOL    HW124959   0.814   2.076   3.110  2.4097  1.0890 -0.2735
 5568SOL    HW224960   0.754   2.129   2.967  0.2524  1.5265  0.7780
 5569SOL     OW24961   6.562   7.996   4.106 -0.0631  0.3182  0.0323
 5569SOL    HW124962   6.649   7.986   4.154 -0.4338 -0.0281  0.6399
 5569SOL    HW224963   6.513   8.075   4.144 -0.0365  0.4809 -0.2727
 5570SOL     OW24964   4.787   3.989   1.543  0.0346  0.2929  0.1865
 5570SOL    HW124965   4.778   3.929   1.464 -2.2257  0.7322  0.0932
 5570SOL    HW224966   4.821   3.935   1.621 -1.1410 -0.9150 -0.1211
 5571SOL     OW24967   3.504   5.773   7.527 -0.0933  0.1572 -0.4699
 5571SOL    HW124968   3.578   5.793   7.463  0.9748 -0.8590  0.4083
 5571SOL    HW224969   3.473   5.858   7.570 -1.1445  0.9153 -2.6294
 5572SOL     OW24970   0.160   4.172   5.435 -0.2557  0.0938  0.5042
 5572SOL    HW124971   0.070   4.213   5.417 -0.0710  0.4579  0.3941
 5572SOL    HW224972   0.227   4.245   5.447 -0.4656 -0.1338  3.1895
 5573SOL     OW24973   2.355   8.455   6.700 -0.3878  0.0052 -0.5186
 5573SOL    HW124974   2.431   8.422   6.757 -2.0519 -2.2266  0.5218
 5573SOL    HW224975   2.356   8.406   6.613 -1.1315 -0.6735 -0.1504
 5574SOL     OW24976   0.395   3.816   3.042  0.3348  0.7128 -0.1842
 5574SOL    HW124977   0.483   3.808   2.995  0.7668 -0.8110  0.8677
 5574SOL    HW224978   0.322   3.821   2.975  0.8360 -2.6359 -1.0796
 5575SOL     OW24979   2.110   4.977   0.090  0.2248  0.0854 -0.3043
 5575SOL    HW124980   2.116   4.878   0.076 -1.1348  0.0852 -0.9680
 5575SOL    HW224981   2.194   5.009   0.133  0.1598 -1.5482  1.0931
 5576SOL     OW24982   5.044   2.552   6.270 -0.4157 -0.7548 -0.1031
 5576SOL    HW124983   5.015   2.458   6.285  0.1851 -0.9543 -0.2170
 5576SOL    HW224984   5.035   2.576   6.174 -1.6116 -0.3488  0.1020
 5577SOL     OW24985   5.157   6.855   1.556 -0.4185 -0.8262  0.1407
 5577SOL    HW124986   5.089   6.820   1.491  0.5829 -1.0902 -0.7675
 5577SOL    HW224987   5.117   6.856   1.648 -2.1927  0.4841 -0.6014
 5578SOL     OW24988   1.243   0.619   2.348  0.2558  0.5638  0.1993
 5578SOL    HW124989   1.182   0.628   2.269  1.5758 -1.0099 -1.0283
 5578SOL    HW224990   1.263   0.522   2.364  1.1309  0.9635  1.6016
 5579SOL     OW24991   3.306   0.866   3.299 -0.5710  0.6028 -0.0940
 5579SOL    HW124992   3.346   0.775   3.314  1.1117  1.3675  0.1146
 5579SOL    HW224993   3.231   0.858   3.234  0.7987 -0.6683 -1.5703
 5580SOL     OW24994   6.068   4.012   1.505  0.0763  0.5903 -0.1588
 5580SOL    HW124995   6.124   4.094   1.501 -0.8193  1.1849 -0.4791
 5580SOL    HW224996   5.974   4.033   1.480 -0.2034 -0.4956 -0.0839
 5582SOL     OW24997   5.631   0.259   4.282  0.4061 -0.0265  0.0073
 5582SOL    HW124998   5.642   0.240   4.379  1.5169 -2.6742 -0.6074
 5582SOL    HW224999   5.535   0.252   4.257  0.4671 -2.4515  0.3326
 5583SOL     OW25000   1.793   2.909   0.811 -0.1478 -0.5403 -0.7440
 5583SOL    HW125001   1.710   2.903   0.867 -0.1272  1.0595 -0.5226
 5583SOL    HW225002   1.787   2.845   0.735  0.0941 -3.2266  1.4174
 5584SOL     OW25003   3.862   5.455   7.037 -0.0032 -0.4530  0.5923
 5584SOL    HW125004   3.851   5.374   6.980  0.4216 -0.9943  1.2718
 5584SOL    HW225005   3.939   5.510   7.004  0.2839 -0.8014  0.6874
 5585SOL     OW25006   8.481   5.809   1.520  0.2999 -0.2232 -0.5950
 5585SOL    HW125007   8.450   5.804   1.425  1.1662 -0.3459 -0.8802
 5585SOL    HW225008   8.509   5.903   1.542 -0.5747 -0.0441 -0.2419
 5586SOL     OW25009   6.073   5.338   2.307 -0.0462  0.5117  0.1617
 5586SOL    HW125010   6.135   5.415   2.299  0.7467  0.0218  1.3283
 5586SOL    HW225011   6.095   5.286   2.390 -1.9718  0.2886  0.5694
 5587SOL     OW25012   9.755   9.661   7.335 -0.3801 -0.3655 -0.2274
 5587SOL    HW125013   9.842   9.685   7.292 -1.1811  0.8201 -1.2301
 5587SOL    HW225014   9.772   9.603   7.415  1.3630  0.2835 -0.0946
 5589SOL     OW25015   5.277   7.943   4.168  0.3089  0.5416  0.5056
 5589SOL    HW125016   5.362   7.967   4.122 -0.8399 -0.5607 -2.3356
 5589SOL    HW225017   5.276   7.845   4.188 -0.8223  0.2883 -0.7111
 5590SOL     OW25018   7.028   0.133   3.026 -0.1928  0.4444  0.5072
 5590SOL    HW125019   6.928   0.129   3.031 -0.3814  2.7844 -0.8000
 5590SOL    HW225020   7.067   0.090   3.107 -2.2112 -1.6591  0.4327
 5591SOL     OW25021   5.639   1.815   7.251  0.3474 -0.4911 -0.0857
 5591SOL    HW125022   5.592   1.752   7.313 -0.8219 -0.3947 -0.8595
 5591SOL    HW225023   5.737   1.798   7.255  0.1842 -1.2516  0.9429
 5592SOL     OW25024   9.211   3.993   1.738  0.0007  0.4475 -0.1229
 5592SOL    HW125025   9.174   4.047   1.813 -1.3533  0.3749 -0.7370
 5592SOL    HW225026   9.300   4.030   1.711  0.3548  0.6678  1.2961
 5593SOL     OW25027   8.815   1.840   0.351  0.1833  0.4882  0.0133
 5593SOL    HW125028   8.866   1.867   0.270  1.6853 -1.5834  0.2373
 5593SOL    HW225029   8.722   1.815   0.324 -0.0276  1.9796 -0.7230
 5595SOL     OW25030   6.617   1.285   5.453  0.5230  0.0541  0.1543
 5595SOL    HW125031   6.694   1.336   5.492 -0.0685  0.3545  0.9452
 5595SOL    HW225032   6.543   1.281   5.520  0.2646 -1.1750 -0.1921
 5596SOL     OW25033   5.077   9.242   4.019 -0.2078 -0.0735 -0.2556
 5596SOL    HW125034   5.163   9.256   3.969  0.5250 -0.7193  0.8237
 5596SOL    HW225035   5.092   9.179   4.094 -1.5202  0.2228  0.2620
 5598SOL     OW25036   2.733   1.022   5.197  0.3957 -0.3986 -0.6684
 5598SOL    HW125037   2.639   1.043   5.222 -0.0658 -1.4488 -1.4779
 5598SOL    HW225038   2.789   1.013   5.279 -0.1208  0.6184 -0.1966
 5601SOL     OW25039   9.953   1.924   6.932  0.0997  0.2996  0.3153
 5601SOL    HW125040   9.947   1.989   7.007 -0.0541 -2.2058  2.5485
 5601SOL    HW225041   9.868   1.872   6.924  0.1686  0.4190 -1.4937
 5602SOL     OW25042   6.065   1.737   5.598  0.3141  0.7308 -0.4610
 5602SOL    HW125043   6.129   1.813   5.584  0.3912  0.6317 -0.6569
 5602SOL    HW225044   5.994   1.764   5.662  0.9135  0.6347  0.2416
 5603SOL     OW25045   1.731   7.204   1.656  0.4313  0.5401 -0.0385
 5603SOL    HW125046   1.813   7.238   1.611 -0.7177  2.2437 -0.9244
 5603SOL    HW225047   1.696   7.124   1.606  0.0507  1.4560 -1.2732
 5604SOL     OW25048   3.687   1.846   3.648  0.5863  0.0500  0.8576
 5604SOL    HW125049   3.720   1.796   3.728  0.1789 -2.3527 -0.4244
 5604SOL    HW225050   3.749   1.830   3.571 -1.1041 -0.8237 -0.3420
 5605SOL     OW25051   3.141   3.199   2.742  0.1469  0.3481 -0.3301
 5605SOL    HW125052   3.131   3.250   2.656  1.3177  1.3377  0.0993
 5605SOL    HW225053   3.083   3.240   2.812  1.4142  1.4028  0.1333
 5607SOL     OW25054   0.139   3.922   5.548 -0.2579 -0.3582 -0.6492
 5607SOL    HW125055   0.160   4.014   5.515  0.1037  0.2235  1.1457
 5607SOL    HW225056   0.040   3.911   5.556 -0.2453  0.4384  0.6644
 5608SOL     OW25057   8.246   8.139   0.969 -0.0738 -0.2703 -0.8679
 5608SOL    HW125058   8.326   8.187   0.933 -0.9203  0.1108 -2.2780
 5608SOL    HW225059   8.207   8.080   0.898  0.6412 -2.6804  0.6974
 5609SOL     OW25060   4.726   7.798   5.533  0.8165  0.2301 -0.0121
 5609SOL    HW125061   4.687   7.726   5.591 -0.6404 -0.8162 -2.2158
 5609SOL    HW225062   4.670   7.880   5.541 -0.2111 -0.3598 -0.9769
 5610SOL     OW25063   8.698   3.029   0.348 -0.1336 -0.2906  0.1984
 5610SOL    HW125064   8.608   3.057   0.379  0.0720 -0.5258  1.0383
 5610SOL    HW225065   8.765   3.100   0.371  0.0620 -0.5778  0.5309
 5611SOL     OW25066   3.993   3.694   1.206 -0.5114 -0.4934 -0.4027
 5611SOL    HW125067   3.920   3.678   1.139 -2.4912 -2.1434  2.0302
 5611SOL    HW225068   4.077   3.650   1.174 -1.4289 -1.2947 -1.8106
 5612SOL     OW25069   3.264   7.286   5.368 -0.0417 -0.0341  0.7464
 5612SOL    HW125070   3.181   7.298   5.313 -0.5866 -0.3432  1.4931
 5612SOL    HW225071   3.344   7.302   5.311 -0.6313  1.1178  0.2154
 5614SOL     OW25072   7.747   0.841   0.983  0.3861  0.0903 -0.1849
 5614SOL    HW125073   7.819   0.782   0.946  0.1752 -1.1112  1.2963
 5614SOL    HW225074   7.759   0.851   1.082 -0.2679  1.6010 -0.2420
 5616SOL     OW25075   0.843   7.570   3.060 -0.0114 -0.5575 -0.2297
 5616SOL    HW125076   0.743   7.577   3.059 -0.0351 -0.9124 -0.4177
 5616SOL    HW225077   0.871   7.491   3.005  0.3569 -0.6147  0.0412
 5617SOL     OW25078   0.750   6.525   6.578 -0.0016  0.3095  0.2601
 5617SOL    HW125079   0.756   6.574   6.666 -1.3973  0.0445  0.5287
 5617SOL    HW225080   0.729   6.429   6.595 -2.6178  0.7224 -0.4008
 5619SOL     OW25081   0.064   9.559   3.058  0.3342 -0.1190  0.2366
 5619SOL    HW125082   0.105   9.479   3.101 -0.4884 -0.5069  0.3214
 5619SOL    HW225083   0.042   9.538   2.963  0.3346  0.0818  0.1921
 5620SOL     OW25084   3.717   4.873   4.435  0.4272 -0.4204  0.3574
 5620SOL    HW125085   3.625   4.838   4.456 -0.2124  1.3609  0.5655
 5620SOL    HW225086   3.764   4.895   4.520  1.5901 -2.5801  0.3305
 5622SOL     OW25087   5.037   8.736   4.926  0.2039  0.0327 -0.5481
 5622SOL    HW125088   4.996   8.714   4.837  0.6808 -0.6087 -0.6162
 5622SOL    HW225089   5.135   8.751   4.914  0.2795 -0.1264 -0.1147
 5623SOL     OW25090   6.135   1.482   5.548 -0.3728 -0.1122  0.2731
 5623SOL    HW125091   6.129   1.455   5.452  0.0159 -1.1197  0.5316
 5623SOL    HW225092   6.087   1.569   5.560  0.4455  0.5449 -1.0272
 5624SOL     OW25093   8.813   7.470   3.524 -0.1655  0.5342 -0.4725
 5624SOL    HW125094   8.744   7.541   3.519  0.6197  1.4423  1.1264
 5624SOL    HW225095   8.775   7.384   3.489 -1.9606  1.1055  0.0336
 5626SOL     OW25096   3.555   1.534   0.222  0.2060 -0.1309  0.1419
 5626SOL    HW125097   3.551   1.508   0.126 -0.9374  1.1834 -0.1734
 5626SOL    HW225098   3.470   1.508   0.268  0.5246 -0.2488  0.6784
 5627SOL     OW25099   3.535   5.781   0.730  0.2706 -0.0677 -0.1165
 5627SOL    HW125100   3.447   5.824   0.709  0.4277 -1.5219 -4.1598
 5627SOL    HW225101   3.519   5.693   0.776 -0.3913 -0.3294 -0.8425
 5628SOL     OW25102   3.131   5.704   7.179  0.2283  0.1666 -0.0241
 5628SOL    HW125103   3.065   5.651   7.126  0.3696 -1.2103  1.1290
 5628SOL    HW225104   3.178   5.769   7.119 -0.4849 -0.5057 -1.3303
 5629SOL     OW25105   1.466   6.747   2.943 -0.5178  0.0919  0.5314
 5629SOL    HW125106   1.502   6.727   3.034  0.6807 -0.1555  0.0052
 5629SOL    HW225107   1.448   6.661   2.895  0.9048  0.2458 -0.2710
 5631SOL     OW25108   1.272   7.138   3.067 -0.3293  0.0586  0.2166
 5631SOL    HW125109   1.318   7.221   3.034 -0.2983 -0.4153 -0.9532
 5631SOL    HW225110   1.278   7.067   2.997  0.4903 -1.2533  1.6019
 5632SOL     OW25111   3.262   8.972   2.617  0.4034  0.3759  0.4441
 5632SOL    HW125112   3.168   8.940   2.604  0.3651  0.4977  0.4256
 5632SOL    HW225113   3.273   9.005   2.711  0.0985  1.4901  0.0925
 5633SOL     OW25114   5.242   8.052   4.415 -0.3047 -0.2339  0.6527
 5633SOL    HW125115   5.257   8.043   4.317  2.0860  2.8287  0.6836
 5633SOL    HW225116   5.154   8.096   4.432 -0.0163  0.6723 -0.1754
 5634SOL     OW25117   9.208   8.696   1.535  0.6263 -0.4610 -0.4747
 5634SOL    HW125118   9.144   8.768   1.561  1.5169  0.3145 -0.4031
 5634SOL    HW225119   9.164   8.607   1.545 -1.2219  0.1605 -2.6056
 5636SOL     OW25120   5.309   3.330   0.978 -0.1009 -0.0845 -0.4680
 5636SOL    HW125121   5.322   3.328   1.077 -1.4352 -0.8124 -0.3010
 5636SOL    HW225122   5.234   3.268   0.952  0.6371 -0.3824 -1.9932
 5637SOL     OW25123   9.265   0.373   5.645  0.1285  0.5923  0.1715
 5637SOL    HW125124   9.290   0.405   5.736  1.2515 -2.6997  1.1295
 5637SOL    HW225125   9.193   0.304   5.653  0.3007  0.2145 -1.4025
 5638SOL     OW25126   1.166   5.543   7.245  0.0087 -0.0982  0.9562
 5638SOL    HW125127   1.162   5.614   7.315 -0.9461 -0.6345  1.4557
 5638SOL    HW225128   1.127   5.458   7.281  2.2314 -1.2507  0.7830
 5639SOL     OW25129   3.173   2.332   7.321  0.3283  0.3182  0.2756
 5639SOL    HW125130   3.168   2.325   7.421  0.6219 -0.5683  0.2295
 5639SOL    HW225131   3.268   2.321   7.292  0.5673  2.6861  0.0468
 5641SOL     OW25132   5.816   0.765   1.282  0.1114  0.0938  0.0012
 5641SOL    HW125133   5.797   0.831   1.210  1.9146  1.5263  0.7690
 5641SOL    HW225134   5.759   0.785   1.362  0.9543  1.0085  0.3833
 5642SOL     OW25135   2.039   2.282   1.454  0.3605 -0.4611  0.1825
 5642SOL    HW125136   2.104   2.239   1.516 -0.6306 -0.1888  1.4400
 5642SOL    HW225137   2.064   2.377   1.438 -0.3960 -0.0042  1.6469
 5643SOL     OW25138   8.992   1.637   5.839 -0.3632 -0.0434  0.3644
 5643SOL    HW125139   9.065   1.644   5.772 -0.7666  0.0157 -0.0726
 5643SOL    HW225140   8.912   1.689   5.808 -0.7982 -0.5918  0.5486
 5644SOL     OW25141   9.701   1.597   3.145  0.0026 -0.1505  0.5180
 5644SOL    HW125142   9.795   1.630   3.154 -0.8635  2.4380  0.5140
 5644SOL    HW225143   9.649   1.660   3.086 -1.7482 -1.5005  0.5797
 5647SOL     OW25144   9.275   0.418   7.503  0.2565  0.1569 -0.5155
 5647SOL    HW125145   9.209   0.492   7.491  1.2746  1.1199 -0.1674
 5647SOL    HW225146   9.274   0.360   7.421 -1.5541 -0.2856 -0.2113
 5649SOL     OW25147   3.801   3.142   7.194  0.6311  0.4150  0.2676
 5649SOL    HW125148   3.840   3.118   7.105  0.4837 -0.9831  0.5746
 5649SOL    HW225149   3.711   3.185   7.181 -0.7049 -2.4065 -0.1499
 5650SOL     OW25150   4.127   2.758   1.286 -0.1719  0.4038  0.1578
 5650SOL    HW125151   4.027   2.747   1.283  0.2413 -3.8174 -3.0088
 5650SOL    HW225152   4.156   2.806   1.203  0.5796  0.4065  0.4265
 5651SOL     OW25153   0.846   8.967   7.338 -0.1105  0.2653 -0.2565
 5651SOL    HW125154   0.787   8.929   7.410  1.9602 -0.4677  1.0976
 5651SOL    HW225155   0.880   9.056   7.368  1.5277 -0.4659  0.1335
 5652SOL     OW25156   0.800   2.083   0.117 -0.0910  0.0376 -0.2079
 5652SOL    HW125157   0.872   2.138   0.073 -0.9154  0.5854 -0.8917
 5652SOL    HW225158   0.785   2.117   0.210  1.0868 -0.5910  0.2161
 5653SOL     OW25159   1.433   3.578   4.671  0.2755 -0.3223  0.7248
 5653SOL    HW125160   1.386   3.492   4.650 -1.1380  0.3988  0.8293
 5653SOL    HW225161   1.500   3.563   4.743 -0.5814 -1.1637  1.3587
 5654SOL     OW25162   2.988   8.751   5.936  0.0148 -0.7785  0.2063
 5654SOL    HW125163   3.078   8.742   5.892  0.3086  1.3513  0.3412
 5654SOL    HW225164   2.916   8.740   5.867  0.4783  2.6561 -0.9197
 5655SOL     OW25165   2.400   9.317   5.242 -0.4717  0.2784 -0.5860
 5655SOL    HW125166   2.342   9.241   5.270 -0.7200  0.9854  0.8624
 5655SOL    HW225167   2.494   9.301   5.272 -0.6329  0.7908  0.2105
 5656SOL     OW25168   2.093   8.725   2.702 -0.3314 -0.2086 -0.1393
 5656SOL    HW125169   2.029   8.801   2.689 -0.3854 -0.1652  0.3766
 5656SOL    HW225170   2.124   8.723   2.797  1.3116  0.4669 -0.6331
 5657SOL     OW25171   3.120   2.045   6.117  0.4397  0.2966 -0.2194
 5657SOL    HW125172   3.128   1.945   6.118  0.5044  0.2534 -2.1635
 5657SOL    HW225173   3.133   2.081   6.209 -0.3654 -1.5470  0.6403
 5659SOL     OW25174   2.293   4.568   2.239  0.2472  0.3277  0.0721
 5659SOL    HW125175   2.338   4.556   2.150  1.2222  0.3829  0.5535
 5659SOL    HW225176   2.355   4.540   2.312 -1.2778 -1.6583  0.6494
 5660SOL     OW25177   9.806   2.101   5.716 -0.0797  0.3228  0.0049
 5660SOL    HW125178   9.805   2.158   5.798 -1.4379  0.8920 -0.4003
 5660SOL    HW225179   9.818   2.159   5.635  1.6263 -0.2652 -0.1881
 5661SOL     OW25180   2.071   1.292   3.759  0.0064 -0.2242 -0.5143
 5661SOL    HW125181   2.072   1.237   3.676 -1.5074  0.5794 -1.0752
 5661SOL    HW225182   2.053   1.233   3.838  0.3124 -0.8137 -0.8849
 5662SOL     OW25183   3.694   0.333   6.876  0.1986  0.5125  0.4224
 5662SOL    HW125184   3.633   0.270   6.828  0.1034 -0.2272  1.4733
 5662SOL    HW225185   3.728   0.288   6.959 -0.3055  2.0505  1.4876
 5663SOL     OW25186   1.296   1.477   1.330  0.2527  0.2851 -0.2866
 5663SOL    HW125187   1.232   1.439   1.396  0.4406  0.4684  0.0015
 5663SOL    HW225188   1.276   1.573   1.314 -0.5273 -0.0499 -1.3836
 5664SOL     OW25189   8.760   6.533   3.619 -1.0664 -0.8929  0.0342
 5664SOL    HW125190   8.825   6.585   3.675 -1.1071 -1.2245  0.3898
 5664SOL    HW225191   8.775   6.555   3.522 -1.4550  0.2150  0.2095
 5666SOL     OW25192   2.228   9.040   6.382 -0.4355 -0.1923 -0.3466
 5666SOL    HW125193   2.226   9.008   6.288  2.0986 -1.0132 -0.1633
 5666SOL    HW225194   2.304   8.996   6.431 -1.3116  0.7004  1.8986
 5667SOL     OW25195   3.359   2.258   0.079  0.6676  0.0893 -0.5400
 5667SOL    HW125196   3.432   2.317   0.044  0.5691  0.5706  0.0678
 5667SOL    HW225197   3.398   2.188   0.139  0.8385 -0.7504 -1.6018
 5668SOL     OW25198   1.584   2.529   6.349 -0.0214 -0.2168  0.4355
 5668SOL    HW125199   1.649   2.591   6.392  1.3234 -1.5006  0.3042
 5668SOL    HW225200   1.607   2.434   6.373 -1.2309 -0.7567 -0.4494
 5669SOL     OW25201   1.821   2.748   2.978  0.7777  0.5853 -0.3996
 5669SOL    HW125202   1.895   2.814   2.990 -0.1225  1.4018  0.7009
 5669SOL    HW225203   1.733   2.791   3.001  0.1345 -0.8506 -0.1288
 5671SOL     OW25204   7.721   8.468   2.917 -0.0650 -0.4110  0.9560
 5671SOL    HW125205   7.731   8.506   2.825 -1.0172  0.2070  1.0954
 5671SOL    HW225206   7.716   8.543   2.984  2.3882 -0.8881  1.7225
 5673SOL     OW25207   2.504   6.780   3.248 -0.2538  0.5042 -0.4570
 5673SOL    HW125208   2.438   6.766   3.174  0.4315 -1.4814 -0.7182
 5673SOL    HW225209   2.492   6.709   3.317  4.3658 -2.5761 -2.5680
 5674SOL     OW25210   2.670   2.049   2.368  0.4569  0.3983  0.3186
 5674SOL    HW125211   2.653   2.142   2.402 -1.8472  0.5119 -1.0293
 5674SOL    HW225212   2.751   2.049   2.311 -0.3768  1.9404 -0.9205
 5675SOL     OW25213   2.829   1.011   4.502  0.1582  0.1043  0.2597
 5675SOL    HW125214   2.896   1.061   4.557  1.1607  1.7691 -2.3637
 5675SOL    HW225215   2.786   1.073   4.437 -0.4317 -1.9221 -1.3439
 5676SOL     OW25216   2.110   9.623   1.524  0.2541  0.1067 -0.5818
 5676SOL    HW125217   2.100   9.535   1.478 -3.1842  0.1643 -0.0590
 5676SOL    HW225218   2.071   9.617   1.616 -0.4483  2.3036 -0.7091
 5677SOL     OW25219   9.578   4.650   4.999 -0.1695 -0.5347  0.6736
 5677SOL    HW125220   9.524   4.570   4.975 -0.4887  0.0758 -0.7167
 5677SOL    HW225221   9.673   4.622   5.014 -0.5621 -1.3821  1.6538
 5678SOL     OW25222   0.371   6.333   5.349 -0.2870 -0.3872 -0.4276
 5678SOL    HW125223   0.354   6.428   5.325 -1.6789 -0.6801 -0.6096
 5678SOL    HW225224   0.373   6.323   5.448 -0.0699 -0.1660 -0.4081
 5679SOL     OW25225   2.552   8.165   2.115  0.4621  0.0760 -0.0694
 5679SOL    HW125226   2.573   8.259   2.090 -0.9713 -0.0133 -1.6541
 5679SOL    HW225227   2.453   8.151   2.118  0.6536 -1.4114  0.0568
 5680SOL     OW25228   9.091   1.823   7.142 -0.1592  0.6134  0.1917
 5680SOL    HW125229   9.085   1.735   7.189 -0.2141  0.5804  0.1227
 5680SOL    HW225230   8.999   1.856   7.122 -0.1281  0.5263 -0.0837
 5681SOL     OW25231   7.518   6.082   0.651 -0.3135  0.5557 -0.4096
 5681SOL    HW125232   7.466   6.167   0.659  0.5548  0.8446  3.1206
 5681SOL    HW225233   7.471   6.010   0.701  1.4611  0.2597  0.8972
 5683SOL     OW25234   8.731   6.499   6.751  0.2029 -0.2651  0.0206
 5683SOL    HW125235   8.679   6.449   6.821 -0.8621 -0.8046 -1.1327
 5683SOL    HW225236   8.824   6.461   6.746  0.6379  0.5231  1.9051
 5684SOL     OW25237   3.373   3.345   4.357 -0.1941  0.1975  0.5317
 5684SOL    HW125238   3.396   3.436   4.393  0.1417  0.4959 -0.4442
 5684SOL    HW225239   3.400   3.276   4.424 -2.3927  0.9198  2.2274
 5685SOL     OW25240   9.041   2.268   5.579 -0.3630 -0.0388 -0.2893
 5685SOL    HW125241   9.115   2.217   5.623 -0.5205 -0.8252 -0.9211
 5685SOL    HW225242   8.981   2.204   5.531 -1.2546  0.6268 -0.0695
 5686SOL     OW25243   2.552   8.201   7.278  0.0236 -0.0761  0.4452
 5686SOL    HW125244   2.473   8.154   7.238 -0.4114  0.8250  0.2357
 5686SOL    HW225245   2.626   8.136   7.291 -0.5497 -0.8085  0.0885
 5687SOL     OW25246   8.023   1.334   6.715  0.4869 -0.0651  0.5069
 5687SOL    HW125247   8.117   1.305   6.732  0.7311  0.9546  0.8652
 5687SOL    HW225248   7.972   1.336   6.801  0.9076  2.1308  0.7309
 5689SOL     OW25249   2.634   7.354   3.478  0.1637 -0.3241 -0.0229
 5689SOL    HW125250   2.688   7.434   3.503 -1.4593  0.9284 -0.4161
 5689SOL    HW225251   2.669   7.315   3.393  0.8028  0.1308  0.0293
 5690SOL     OW25252   0.326   2.226   6.547  0.2737 -0.4077 -0.3210
 5690SOL    HW125253   0.287   2.249   6.458 -2.6334  1.3077  1.3330
 5690SOL    HW225254   0.422   2.257   6.550  0.3244 -0.2658 -2.7463
 5691SOL     OW25255   8.075   3.179   5.318 -0.1528 -0.3515 -0.7160
 5691SOL    HW125256   8.143   3.128   5.372  0.3265 -0.0290 -1.0092
 5691SOL    HW225257   8.113   3.199   5.228 -0.6779 -0.2477 -0.9125
 5692SOL     OW25258   0.066   8.991   1.399 -0.0702 -0.2651  0.1031
 5692SOL    HW125259   0.020   8.997   1.310  0.0029  1.7449  0.1725
 5692SOL    HW225260   0.164   8.979   1.385 -0.2224 -1.2867 -0.0787
 5693SOL     OW25261   7.362   6.781   4.341 -0.6756 -0.0104  0.3883
 5693SOL    HW125262   7.414   6.742   4.265 -1.4570 -0.6460  0.1798
 5693SOL    HW225263   7.405   6.867   4.370  1.2881 -1.1841  1.1055
 5694SOL     OW25264   1.811   8.004   5.064  0.1140  0.0749  0.2565
 5694SOL    HW125265   1.750   7.932   5.031 -0.6964  0.3235  1.1688
 5694SOL    HW225266   1.894   8.006   5.009 -0.4397 -0.6768 -0.6126
 5695SOL     OW25267   9.566   7.750   5.821  0.0663 -0.5031  0.4844
 5695SOL    HW125268   9.648   7.795   5.857  0.2096 -0.8734  0.6142
 5695SOL    HW225269   9.584   7.653   5.808 -0.3613 -0.5887  0.5353
 5696SOL     OW25270   3.379   2.113   6.025 -0.5328 -0.2859  0.5353
 5696SOL    HW125271   3.289   2.115   6.068 -1.6220  1.5328 -1.7096
 5696SOL    HW225272   3.417   2.205   6.021 -0.0592 -0.5355 -1.4963
 5697SOL     OW25273   3.570   4.979   1.142  0.1055 -0.4930  0.1459
 5697SOL    HW125274   3.648   4.925   1.172 -0.8782 -2.5563 -0.8666
 5697SOL    HW225275   3.489   4.954   1.195 -0.2858  0.2384 -0.0964
 5698SOL     OW25276   3.224   6.180   4.324  0.1872 -0.5295  0.6032
 5698SOL    HW125277   3.314   6.137   4.310  1.2657  1.8482 -0.0230
 5698SOL    HW225278   3.164   6.155   4.248  0.9625 -0.5622 -0.0138
 5699SOL     OW25279   9.495   8.669   5.648 -0.1148 -0.8138 -0.9679
 5699SOL    HW125280   9.522   8.662   5.552  1.3946 -2.4031 -0.4546
 5699SOL    HW225281   9.563   8.623   5.705 -1.9906 -1.5654  0.7081
 5700SOL     OW25282   6.011   8.936   4.864  0.0524  0.5288 -0.2090
 5700SOL    HW125283   5.990   8.954   4.768  2.2968  2.9428 -0.2891
 5700SOL    HW225284   6.094   8.880   4.869 -0.2664  0.1090  0.3075
 5701SOL     OW25285   4.921   4.325   5.299 -0.1222  0.6175  0.9004
 5701SOL    HW125286   4.923   4.366   5.390  1.6240  2.4573  0.0843
 5701SOL    HW225287   4.904   4.397   5.231  0.5311 -0.4249 -0.3824
 5703SOL     OW25288   7.456   4.626   3.854 -0.3656 -0.2958  0.2604
 5703SOL    HW125289   7.452   4.625   3.754  0.0924 -3.3197  0.2243
 5703SOL    HW225290   7.372   4.587   3.891 -0.4315  0.5929  1.0617
 5704SOL     OW25291   5.283   9.350   3.870 -0.6719  0.3634 -0.7458
 5704SOL    HW125292   5.226   9.408   3.812 -0.3812  0.6079 -0.7920
 5704SOL    HW225293   5.368   9.327   3.821 -1.1734 -0.8379 -1.0745
 5705SOL     OW25294   8.896   0.146   6.188 -0.9556  0.7010 -0.0067
 5705SOL    HW125295   8.835   0.176   6.115 -0.5446 -0.5349 -0.8799
 5705SOL    HW225296   8.876   0.197   6.271 -2.3493  1.1600 -0.6088
 5706SOL     OW25297   3.960   7.782   6.621  0.5235 -0.1355 -0.6486
 5706SOL    HW125298   3.936   7.866   6.670  0.2734 -0.3569 -0.3942
 5706SOL    HW225299   3.910   7.705   6.661  0.1493 -0.2805 -1.4013
 5707SOL     OW25300   3.310   3.827   4.508 -0.6147  0.2183 -0.1819
 5707SOL    HW125301   3.322   3.893   4.582 -0.8104 -0.4337  0.4347
 5707SOL    HW225302   3.222   3.841   4.464 -1.5118 -0.8827  1.2216
 5708SOL     OW25303   1.756   5.889   4.744 -0.2823  0.2246  0.1785
 5708SOL    HW125304   1.658   5.886   4.729 -0.5937  0.1139  2.0450
 5708SOL    HW225305   1.776   5.855   4.836  1.7397 -2.5208 -1.1941
 5710SOL     OW25306   0.779   7.956   3.158 -0.2163 -0.4051 -0.4482
 5710SOL    HW125307   0.748   7.888   3.225 -0.5664 -0.1862 -0.3892
 5710SOL    HW225308   0.743   7.933   3.068 -1.9902  0.8095 -0.0714
 5711SOL     OW25309   2.063   3.178   5.679  0.1711 -0.8652  0.4087
 5711SOL    HW125310   2.060   3.179   5.779 -2.0094  0.8689  0.3684
 5711SOL    HW225311   2.095   3.266   5.646  0.2027 -1.1934 -0.4497
 5712SOL     OW25312   7.749   1.825   4.836  0.0676 -0.2465 -0.2048
 5712SOL    HW125313   7.824   1.801   4.774  0.7898  0.9115  0.2127
 5712SOL    HW225314   7.732   1.749   4.899  2.1225  0.1708  0.8976
 5713SOL     OW25315   3.007   5.227   4.917 -0.2189 -0.7349  0.1774
 5713SOL    HW125316   3.097   5.242   4.957 -0.3961  2.1133 -0.3961
 5713SOL    HW225317   3.014   5.230   4.817 -1.2821  2.0024  0.1372
 5714SOL     OW25318   9.638   6.115   1.672  0.8474 -0.5710  0.6901
 5714SOL    HW125319   9.619   6.028   1.719 -1.8276 -0.4592 -0.0909
 5714SOL    HW225320   9.653   6.098   1.574  0.0056 -0.1266  0.4797
 5716SOL     OW25321   0.086   1.350   5.012  0.1152  0.3483  0.3589
 5716SOL    HW125322   0.174   1.373   5.054  0.0501  1.3636 -0.0431
 5716SOL    HW225323   0.012   1.372   5.075  0.1730 -1.4141  1.0879
 5717SOL     OW25324   9.617   7.095   2.213 -0.1176  0.2237  0.4170
 5717SOL    HW125325   9.697   7.146   2.246 -0.3171  0.2871  0.8104
 5717SOL    HW225326   9.572   7.147   2.140  0.5944 -0.1308 -0.2751
 5718SOL     OW25327   2.175   3.964   1.703  0.0367 -0.2073 -0.2166
 5718SOL    HW125328   2.104   3.928   1.765  0.8186 -1.9008 -0.2687
 5718SOL    HW225329   2.261   3.972   1.754  0.3191 -0.1954 -0.7006
 5720SOL     OW25330   0.199   8.987   0.934 -0.8173  0.0307 -0.5584
 5720SOL    HW125331   0.211   8.937   0.848 -0.8417 -1.0885  0.0659
 5720SOL    HW225332   0.210   9.085   0.918  0.4872 -0.2725 -1.5894
 5721SOL     OW25333   0.611   2.549   3.170 -0.6052  0.1124 -0.1967
 5721SOL    HW125334   0.570   2.637   3.190 -1.8330 -0.7189  0.9990
 5721SOL    HW225335   0.627   2.499   3.255  0.7922 -0.5112 -0.8036
 5722SOL     OW25336   7.007   8.561   4.777  0.5562 -0.3747  0.8008
 5722SOL    HW125337   6.986   8.657   4.796 -0.7426 -0.6509  0.7998
 5722SOL    HW225338   7.089   8.535   4.827  1.4552  0.9879  0.0799
 5724SOL     OW25339   0.750   6.452   5.536  0.9394 -0.0252 -0.2697
 5724SOL    HW125340   0.744   6.507   5.452  1.9330  0.1578 -0.2238
 5724SOL    HW225341   0.796   6.366   5.516  0.5138 -0.3033 -0.0648
 5726SOL     OW25342   3.559   5.077   2.802 -0.3246  0.2990  0.2121
 5726SOL    HW125343   3.594   5.119   2.718 -1.0555 -0.4228 -0.4649
 5726SOL    HW225344   3.476   5.125   2.831 -1.3166 -0.8265 -0.7158
 5728SOL     OW25345   5.670   0.663   4.472 -0.2027 -0.2383 -0.6015
 5728SOL    HW125346   5.701   0.717   4.394 -0.3519  0.7331  0.0028
 5728SOL    HW225347   5.748   0.614   4.511 -0.1551 -0.8553 -1.4420
 5729SOL     OW25348   1.258   8.390   1.776 -0.2438  0.1997 -0.7389
 5729SOL    HW125349   1.178   8.385   1.716 -0.3271 -1.8695 -0.4850
 5729SOL    HW225350   1.241   8.457   1.848 -2.2094 -0.9842 -0.0501
 5730SOL     OW25351   2.392   4.705   6.234 -0.0343  0.1916  0.0647
 5730SOL    HW125352   2.299   4.682   6.204  0.1901 -2.0716  0.9854
 5730SOL    HW225353   2.399   4.693   6.333  1.7267 -1.5209 -0.2340
 5731SOL     OW25354   8.656   1.261   1.535 -0.4484 -0.2130 -0.3315
 5731SOL    HW125355   8.698   1.171   1.524 -0.1939 -0.2969  1.1523
 5731SOL    HW225356   8.701   1.309   1.611 -1.2967  0.7389 -0.4192
 5732SOL     OW25357   0.948   3.792   1.714 -0.0805 -0.3039 -0.3711
 5732SOL    HW125358   0.872   3.737   1.679 -1.3158  0.8032  0.5101
 5732SOL    HW225359   0.915   3.883   1.739  1.6113  0.3091 -0.2782
 5733SOL     OW25360   3.658   7.367   2.821 -0.2107  0.5436 -0.3897
 5733SOL    HW125361   3.620   7.276   2.837  0.5485  0.1331 -0.8998
 5733SOL    HW225362   3.746   7.359   2.776  0.5277  1.4833  0.8489
 5734SOL     OW25363   2.525   1.941   1.147 -0.1385  0.3650  0.0697
 5734SOL    HW125364   2.517   1.842   1.148 -0.3398  0.3916  1.7244
 5734SOL    HW225365   2.620   1.967   1.162 -0.0136  0.4178 -0.8010
 5735SOL     OW25366   7.735   9.421   1.535  0.1355  0.4045 -0.3496
 5735SOL    HW125367   7.680   9.371   1.602  0.3622  1.9533  1.0404
 5735SOL    HW225368   7.829   9.428   1.569  0.6837 -0.3431 -1.6891
 5736SOL     OW25369   2.647   2.696   7.450 -0.0842 -0.5480  0.4516
 5736SOL    HW125370   2.574   2.692   7.382 -0.5861  2.9328  0.7204
 5736SOL    HW225371   2.726   2.742   7.411  0.4390 -0.5608  1.4936
 5737SOL     OW25372   7.412   1.729   1.416 -0.1400  0.0006  0.0569
 5737SOL    HW125373   7.359   1.674   1.481  0.6748  0.4239  1.0827
 5737SOL    HW225374   7.451   1.808   1.462 -0.9336  1.2183 -1.3252
 5739SOL     OW25375   2.809   1.795   0.192  0.1596  0.2376  0.6037
 5739SOL    HW125376   2.877   1.830   0.128 -1.0092  0.3236 -0.6235
 5739SOL    HW225377   2.797   1.861   0.266  0.1205  1.0648 -0.1213
 5740SOL     OW25378   4.666   9.405   3.513  0.1599 -0.0433  0.0921
 5740SOL    HW125379   4.637   9.473   3.445  1.2938  0.7870  0.4124
 5740SOL    HW225380   4.628   9.316   3.489  0.7788  0.1725 -1.8094
 5741SOL     OW25381   7.148   4.708   1.224  0.2252 -0.1429  0.6103
 5741SOL    HW125382   7.112   4.658   1.145  1.4049  1.9594 -1.3186
 5741SOL    HW225383   7.218   4.653   1.269  0.2744 -0.9389 -0.4108
 5742SOL     OW25384   0.104   0.449   3.236  0.5338  0.7455 -0.1491
 5742SOL    HW125385   0.040   0.430   3.162 -0.6777 -0.4644  1.1716
 5742SOL    HW225386   0.101   0.546   3.259 -2.7395  0.3214  1.5461
 5743SOL     OW25387   2.755   6.025   3.956 -0.3829 -0.2527 -0.1388
 5743SOL    HW125388   2.843   5.981   3.937  0.0090  1.0752 -1.5311
 5743SOL    HW225389   2.688   5.956   3.983  1.2436 -1.1952  1.5759
 5744SOL     OW25390   7.667   7.091   3.768  0.5237  0.0102  0.6368
 5744SOL    HW125391   7.745   7.140   3.808  1.3159 -1.3097  0.7448
 5744SOL    HW225392   7.584   7.145   3.780  1.5148  1.7376 -0.0302
 5746SOL     OW25393   6.631   1.010   7.499  0.2790  0.2932  0.3646
 5746SOL    HW125394   6.577   0.930   7.472  0.9980 -0.1677  0.2463
 5746SOL    HW225395   6.611   1.034   7.593  0.6817 -0.5715  0.6841
 5747SOL     OW25396   0.870   9.717   6.835  0.4757  0.3102 -0.1509
 5747SOL    HW125397   0.932   9.708   6.757  0.3181  1.2523 -0.3976
 5747SOL    HW225398   0.789   9.769   6.807 -0.3038 -0.6649  0.2423
 5748SOL     OW25399   5.277   2.374   6.884  0.3771  0.3894 -0.5550
 5748SOL    HW125400   5.249   2.324   6.966 -1.9485  0.1155 -1.4717
 5748SOL    HW225401   5.284   2.472   6.905 -0.3625  0.3410 -0.0667
 5749SOL     OW25402   5.650   4.979   2.284 -0.3646 -0.0192  0.4982
 5749SOL    HW125403   5.636   5.056   2.347 -1.8030 -0.9687  1.3602
 5749SOL    HW225404   5.742   4.943   2.296 -0.4595  0.1251  1.7241
 5750SOL     OW25405   6.726   1.116   2.382  0.8638 -0.1655  0.6292
 5750SOL    HW125406   6.777   1.036   2.348  1.7806 -0.0855  1.7792
 5750SOL    HW225407   6.731   1.118   2.482 -3.3602 -1.4489  0.9688
 5751SOL     OW25408   8.130   6.138   4.851  0.2267 -0.4710  0.0863
 5751SOL    HW125409   8.214   6.184   4.880  2.0659 -2.7365 -1.4926
 5751SOL    HW225410   8.089   6.091   4.928  0.4710  0.5047  0.8227
 5754SOL     OW25411   1.209   8.475   7.471 -0.2478 -0.1984  0.2383
 5754SOL    HW125412   1.158   8.559   7.491  1.3461  0.7582  0.3650
 5754SOL    HW225413   1.205   8.415   7.550  2.1755  1.6119  1.8066
 5755SOL     OW25414   6.478   1.351   2.133  0.1884  0.0890  0.1591
 5755SOL    HW125415   6.482   1.445   2.099  1.7412 -0.0466 -0.0414
 5755SOL    HW225416   6.550   1.297   2.090  0.5524 -0.7106  1.7559
 5756SOL     OW25417   8.904   3.493   5.546  0.4948  0.1518  0.0624
 5756SOL    HW125418   8.956   3.437   5.481  0.7916 -0.1221  0.5327
 5756SOL    HW225419   8.806   3.479   5.531  0.5636  0.0242 -0.2698
 5757SOL     OW25420   7.145   0.800   5.477 -0.5902  0.6495  0.3070
 5757SOL    HW125421   7.056   0.824   5.516 -0.0910  1.0211  1.2461
 5757SOL    HW225422   7.217   0.849   5.527  0.3330 -1.5506  1.2230
 5758SOL     OW25423   9.558   5.072   4.945 -0.1464 -0.3727  0.1790
 5758SOL    HW125424   9.553   5.154   5.001  3.5274  0.6952 -0.9353
 5758SOL    HW225425   9.501   5.084   4.863  0.0263  0.9019  0.2325
 5759SOL     OW25426   4.135   9.386   6.296  0.7053 -0.2142  0.4563
 5759SOL    HW125427   4.051   9.425   6.334 -0.0939  0.3041 -1.7966
 5759SOL    HW225428   4.170   9.316   6.359 -0.2246  1.0332  2.4384
 5760SOL     OW25429   9.819   6.511   3.903 -0.2782  0.0251  0.3524
 5760SOL    HW125430   9.848   6.435   3.961 -1.5680 -0.3870  0.4797
 5760SOL    HW225431   9.803   6.477   3.810  2.1048  0.7436 -0.3524
 5761SOL     OW25432   3.483   7.102   3.969  0.3658 -0.2492  0.5561
 5761SOL    HW125433   3.482   7.003   3.984 -4.4548 -0.5242 -0.8634
 5761SOL    HW225434   3.457   7.150   4.053 -1.0281 -0.3973  0.2110
 5763SOL     OW25435   8.977   9.305   4.513  0.1021  0.2848  0.8001
 5763SOL    HW125436   9.076   9.300   4.519  0.0391 -1.1651  0.6915
 5763SOL    HW225437   8.938   9.213   4.508 -1.2927  0.8060  1.5539
 5764SOL     OW25438   2.051   2.052   2.461  0.1971  0.0869 -0.1544
 5764SOL    HW125439   2.101   2.135   2.483  2.1868 -1.4265  1.2296
 5764SOL    HW225440   1.970   2.044   2.520  1.4523 -0.2454  1.5610
 5765SOL     OW25441   2.282   0.435   3.754 -0.4692  0.1964 -0.1125
 5765SOL    HW125442   2.230   0.354   3.778  0.4180 -0.0659  0.9809
 5765SOL    HW225443   2.231   0.517   3.778 -0.3005 -0.0592  1.1467
 5766SOL     OW25444   9.794   9.727   0.932  0.3921 -0.4792  0.9791
 5766SOL    HW125445   9.711   9.776   0.958  1.6595  0.6441  3.0858
 5766SOL    HW225446   9.826   9.758   0.842 -1.3282 -0.7789  0.2577
 5767SOL     OW25447   0.894   1.196   7.241  0.1188  0.5175 -0.5492
 5767SOL    HW125448   0.860   1.129   7.307  0.9094 -0.3969 -1.0552
 5767SOL    HW225449   0.819   1.224   7.181  0.0225 -0.7738 -1.0575
 5768SOL     OW25450   4.386   5.118   5.261 -0.2349 -0.6431  0.1588
 5768SOL    HW125451   4.444   5.037   5.263  0.4364 -0.1541  0.7674
 5768SOL    HW225452   4.294   5.094   5.294  0.6144 -0.6649  2.6171
 5769SOL     OW25453   6.907   2.868   3.820 -0.5442 -0.1250 -0.3575
 5769SOL    HW125454   6.978   2.847   3.753 -0.6264 -0.6394 -0.2866
 5769SOL    HW225455   6.946   2.867   3.911 -0.8515 -1.4321 -0.2310
 5770SOL     OW25456   3.537   3.314   5.958  0.0163  0.0194  0.7646
 5770SOL    HW125457   3.486   3.228   5.962  1.8599 -1.3517 -2.8635
 5770SOL    HW225458   3.635   3.294   5.949  0.5561  2.5308  0.7110
 5771SOL     OW25459   2.329   6.051   5.211 -0.3268  0.1522  0.3264
 5771SOL    HW125460   2.233   6.049   5.240 -0.3882 -0.1507  0.1076
 5771SOL    HW225461   2.378   6.121   5.262 -0.9036  1.0106 -0.2972
 5772SOL     OW25462   9.959   4.199   6.283  0.3861  0.4360 -0.2485
 5772SOL    HW125463   9.930   4.279   6.230  0.6107 -0.0169 -1.0456
 5772SOL    HW225464  10.012   4.230   6.362  0.3528  1.0857 -0.4762
 5773SOL     OW25465   3.187   2.143   6.400  0.2784  0.0757  0.2892
 5773SOL    HW125466   3.232   2.196   6.473 -0.1521  0.8638 -0.0067
 5773SOL    HW225467   3.091   2.127   6.426  0.8521 -2.0464  1.1557
 5774SOL     OW25468   3.856   4.516   3.546  0.1018 -0.5469  0.7029
 5774SOL    HW125469   3.929   4.576   3.513  0.2625 -0.7318  0.7247
 5774SOL    HW225470   3.892   4.453   3.614  0.0255 -0.9611  0.3613
 5775SOL     OW25471   6.585   1.141   1.646  0.1586 -0.0337 -0.1369
 5775SOL    HW125472   6.615   1.202   1.573  1.9276  0.7264  1.1843
 5775SOL    HW225473   6.658   1.131   1.713 -1.2404 -1.1430  1.2579
 5776SOL     OW25474   2.947   0.163  -0.000  0.3608  0.1117  0.0289
 5776SOL    HW125475   3.021   0.230  -0.000 -0.4065  1.0088  2.3689
 5776SOL    HW225476   2.983   0.074   0.029  0.9978 -0.0802 -1.2874
 5777SOL     OW25477   2.962   0.371   6.458 -0.2260  0.1836  0.5483
 5777SOL    HW125478   2.939   0.435   6.385  0.3733  2.1721  2.0734
 5777SOL    HW225479   2.880   0.323   6.487 -0.6036 -0.0680 -0.8862
 5778SOL     OW25480   5.371   1.182   6.053 -0.4035  0.2430  0.2235
 5778SOL    HW125481   5.335   1.158   5.963  0.7980 -0.4579 -0.0743
 5778SOL    HW225482   5.306   1.242   6.100 -1.2460  0.2340 -0.9209
 5779SOL     OW25483   5.987   8.853   4.218 -0.1058  0.1338 -0.0819
 5779SOL    HW125484   6.073   8.880   4.263  0.0037  2.4698 -1.6474
 5779SOL    HW225485   6.008   8.796   4.139 -0.2069 -2.1839  1.4919
 5780SOL     OW25486   4.739   3.136   7.473 -0.1054  0.3603  0.4786
 5780SOL    HW125487   4.834   3.142   7.441  0.0162 -0.4173  0.6824
 5780SOL    HW225488   4.700   3.048   7.445 -0.7494  0.6580  0.4423
 5782SOL     OW25489   0.915   9.169   3.235  0.5988 -0.3400  0.9912
 5782SOL    HW125490   0.958   9.258   3.226  0.8661 -0.7021 -1.6743
 5782SOL    HW225491   0.938   9.129   3.324  0.7634  2.0657  2.0569
 5783SOL     OW25492   7.819   4.380   2.185 -0.1823 -0.4564  1.3055
 5783SOL    HW125493   7.733   4.328   2.190 -0.5422  0.1097  1.0214
 5783SOL    HW225494   7.847   4.407   2.277 -1.4834  1.2728  1.2121
 5784SOL     OW25495   1.278   1.705   5.461 -0.6917  0.6212 -0.0446
 5784SOL    HW125496   1.360   1.655   5.434 -0.1528  1.9171 -0.8809
 5784SOL    HW225497   1.201   1.642   5.468  0.2040 -0.4791 -0.0466
 5785SOL     OW25498   2.500   1.318   3.325 -0.2912  0.7242 -0.2751
 5785SOL    HW125499   2.472   1.398   3.379  0.4167  1.2634 -0.6881
 5785SOL    HW225500   2.588   1.337   3.282 -0.5448  0.0427 -1.0977
 5786SOL     OW25501   0.314   4.813   1.898  0.0310 -0.0218 -0.1898
 5786SOL    HW125502   0.327   4.718   1.871  0.0725  0.0589 -0.4586
 5786SOL    HW225503   0.226   4.823   1.945  0.7345 -0.4932  1.2620
 5788SOL     OW25504   4.117   6.006   3.606 -0.9641  0.5829  0.5527
 5788SOL    HW125505   4.189   6.074   3.594  0.8887 -1.4030  0.2023
 5788SOL    HW225506   4.097   5.996   3.704 -2.3424  2.6899  0.5332
 5789SOL     OW25507  10.000   8.030   2.722  0.0286  0.2714 -0.3075
 5789SOL    HW125508   9.919   8.086   2.738 -1.2526 -1.3921 -0.8847
 5789SOL    HW225509  10.060   8.076   2.656 -1.2133  0.7540 -1.1083
 5791SOL     OW25510   1.622   6.154   6.564  0.4112 -0.2206  0.1205
 5791SOL    HW125511   1.650   6.124   6.655 -0.6732 -0.8570  0.2504
 5791SOL    HW225512   1.690   6.124   6.497  1.1059  0.0714  0.6887
 5792SOL     OW25513   1.671   1.147   6.489 -0.1782  0.6738 -0.4250
 5792SOL    HW125514   1.732   1.069   6.505  0.2896  0.9980 -0.6130
 5792SOL    HW225515   1.708   1.204   6.415 -0.0910  1.5117  0.2496
 5793SOL     OW25516   9.325   6.865   2.349 -0.4760  0.0793  0.3875
 5793SOL    HW125517   9.423   6.846   2.354 -0.1298  1.3182 -1.1792
 5793SOL    HW225518   9.297   6.922   2.427 -0.2138 -1.3101  1.5095
 5795SOL     OW25519   0.857   4.644   1.691 -0.0481 -0.6031  0.5399
 5795SOL    HW125520   0.821   4.689   1.772 -1.0880 -2.0298  0.8833
 5795SOL    HW225521   0.854   4.708   1.614  0.6390  0.6482  1.5364
 5797SOL     OW25522   7.384   1.575   7.915  0.4272 -0.1772  0.6297
 5797SOL    HW125523   7.367   1.667   7.882 -0.7587 -0.0377  1.5762
 5797SOL    HW225524   7.398   1.577   8.014  0.8224 -0.9592  0.5956
 5798SOL     OW25525   9.090   1.872   1.782 -0.4085 -0.0036 -0.3985
 5798SOL    HW125526   9.059   1.777   1.788 -2.7237  0.8493  2.5374
 5798SOL    HW225527   9.066   1.909   1.692  2.4560 -2.7707 -2.3927
 5799SOL     OW25528   4.646   9.141   7.303  0.2662  0.2161 -0.2399
 5799SOL    HW125529   4.745   9.132   7.299  0.3331  1.5240 -1.6191
 5799SOL    HW225530   4.610   9.163   7.213 -1.2736 -0.0382  0.2856
 5800SOL     OW25531   9.935   4.143   7.922 -0.3576  0.0450 -0.8587
 5800SOL    HW125532   9.855   4.113   7.975  1.2356 -1.4521  0.8179
 5800SOL    HW225533   9.911   4.222   7.866 -2.2517  1.4714  1.8334
 5801SOL     OW25534   1.048   2.286   2.262  0.2946  0.0918  0.1078
 5801SOL    HW125535   1.027   2.362   2.325 -1.9234 -1.2085  0.9796
 5801SOL    HW225536   1.147   2.273   2.258  0.5730  1.4995  1.7904
 5802SOL     OW25537   3.614   0.969   4.346 -0.0775  0.5335 -0.5005
 5802SOL    HW125538   3.661   1.057   4.337 -1.1385  1.1686  0.0808
 5802SOL    HW225539   3.520   0.984   4.378 -0.7036 -0.7176 -1.7255
 5803SOL     OW25540   7.543  10.000   1.452 -0.3152 -0.1750  0.0855
 5803SOL    HW125541   7.557   9.927   1.385  0.0949 -0.4439  0.4600
 5803SOL    HW225542   7.555   9.963   1.544  1.3984  0.6918  0.2337
 5806SOL     OW25543   9.686   1.128   6.752  0.0783 -0.1983  0.2527
 5806SOL    HW125544   9.619   1.162   6.686 -0.1097 -3.1307 -1.1519
 5806SOL    HW225545   9.640   1.110   6.839 -0.3143  0.6753  0.2351
 5807SOL     OW25546   3.912   4.647   1.884 -0.2683 -0.4259  0.2820
 5807SOL    HW125547   3.947   4.592   1.959  0.1268  1.1456  1.2788
 5807SOL    HW225548   3.822   4.684   1.910  0.2104  0.7492  0.3288
 5808SOL     OW25549   4.143   0.789   0.178 -0.3924 -0.0204 -0.2979
 5808SOL    HW125550   4.120   0.813   0.084 -1.3650 -1.1311 -0.3568
 5808SOL    HW225551   4.112   0.862   0.239  0.2913  0.7242 -0.8392
 5809SOL     OW25552   1.702   7.393   2.394 -0.1345  0.6610 -0.9570
 5809SOL    HW125553   1.753   7.458   2.337 -0.8380 -0.0048 -2.3565
 5809SOL    HW225554   1.604   7.413   2.389 -0.2217  0.4782 -0.1144
 5810SOL     OW25555   3.851   4.455   1.078 -0.6876 -0.4872 -0.9804
 5810SOL    HW125556   3.942   4.413   1.074 -0.5976 -0.2707 -1.2097
 5810SOL    HW225557   3.842   4.522   1.004 -0.8406 -0.1229 -0.6373
 5811SOL     OW25558   5.927   1.775   1.566 -0.1260  0.1480 -0.2707
 5811SOL    HW125559   5.856   1.832   1.607 -0.9638 -0.2125 -1.1983
 5811SOL    HW225560   5.911   1.679   1.589 -0.6676 -0.0719 -1.5017
 5812SOL     OW25561   0.066   0.613   5.932 -0.3188  0.4940 -0.8005
 5812SOL    HW125562   0.166   0.620   5.934 -0.1106 -2.2442 -0.4087
 5812SOL    HW225563   0.039   0.527   5.889 -2.5220  1.0820 -0.6581
 5813SOL     OW25564   7.492   3.337   4.213  0.3179  0.4285 -0.8813
 5813SOL    HW125565   7.547   3.271   4.162  1.1156 -0.9093  1.6247
 5813SOL    HW225566   7.551   3.389   4.275 -0.4655  2.7937 -2.0587
 5814SOL     OW25567   9.978   8.509   4.340  0.1099 -0.3897 -0.8371
 5814SOL    HW125568  10.070   8.547   4.351 -0.6448  1.1644  0.2598
 5814SOL    HW225569   9.948   8.467   4.425 -0.0936 -1.1362 -1.2746
 5815SOL     OW25570   4.790   4.775   2.898  0.2987 -0.5808  0.4706
 5815SOL    HW125571   4.771   4.677   2.907  0.7055 -0.4938  2.4748
 5815SOL    HW225572   4.880   4.787   2.855 -0.6199 -1.0441 -1.6630
 5816SOL     OW25573   3.353   6.529   4.877 -0.7036  0.2118  0.9010
 5816SOL    HW125574   3.411   6.593   4.826 -0.1045 -0.7728  0.3158
 5816SOL    HW225575   3.369   6.541   4.975 -0.5889  0.9543  0.7928
 5818SOL     OW25576   8.975   7.572   6.984 -0.1773 -0.2058 -0.2620
 5818SOL    HW125577   8.968   7.637   7.059  0.3620  0.1201 -0.4923
 5818SOL    HW225578   9.041   7.605   6.917  0.4602 -1.2057 -0.1511
 5819SOL     OW25579   9.130   8.532   2.300 -0.3943 -0.1667 -0.1254
 5819SOL    HW125580   9.196   8.607   2.308 -1.7109  0.9484  0.4113
 5819SOL    HW225581   9.074   8.527   2.383 -0.6553 -1.4314 -0.3599
 5821SOL     OW25582   3.344   2.472   5.273 -0.4612 -0.3139 -0.1777
 5821SOL    HW125583   3.254   2.514   5.283 -0.5156 -0.1910 -1.1405
 5821SOL    HW225584   3.333   2.374   5.258 -0.5070 -0.1176 -1.5380
 5823SOL     OW25585   8.172   5.252   1.041 -0.0890 -0.1665  0.3724
 5823SOL    HW125586   8.136   5.345   1.051 -3.7045 -1.5480  0.9090
 5823SOL    HW225587   8.100   5.192   1.005  2.1194 -2.8210  0.2414
 5824SOL     OW25588   4.942   3.291   7.104 -0.2378 -0.0920  0.2534
 5824SOL    HW125589   4.909   3.251   7.018 -2.6682 -0.6865  1.3871
 5824SOL    HW225590   4.873   3.355   7.139  0.3485 -0.4631  2.1395
 5825SOL     OW25591   0.069   7.993   3.999 -0.2877  0.2426 -0.3632
 5825SOL    HW125592   0.023   8.078   4.025  1.4196  0.9589  0.3791
 5825SOL    HW225593   0.068   7.929   4.076  0.0697  0.3052 -0.3072
 5826SOL     OW25594   3.083   4.247   3.927  0.3628 -0.2619  0.3050
 5826SOL    HW125595   3.124   4.338   3.929 -0.1446 -0.0480  1.6173
 5826SOL    HW225596   2.991   4.253   3.887  0.1015 -0.0954  0.9232
 5829SOL     OW25597   5.903   9.547   2.636 -0.2615  0.8749 -0.4754
 5829SOL    HW125598   6.001   9.558   2.622 -0.3853  0.9334 -1.3249
 5829SOL    HW225599   5.855   9.627   2.600 -0.5361  1.4125  1.0463
 5830SOL     OW25600   9.737   2.744   3.329 -0.0241  0.1778 -0.1321
 5830SOL    HW125601   9.730   2.751   3.230 -2.4242 -1.3362 -0.1030
 5830SOL    HW225602   9.690   2.822   3.371 -0.8697 -0.2963 -0.1801
 5831SOL     OW25603   0.057   9.186   6.763 -0.3114 -0.6846 -0.3560
 5831SOL    HW125604  -0.043   9.192   6.756 -0.3796 -2.8276 -1.6782
 5831SOL    HW225605   0.096   9.164   6.674  1.5977  2.4690 -0.3674
 5833SOL     OW25606   0.550   8.283   6.374 -0.0849  0.0720  0.0467
 5833SOL    HW125607   0.625   8.232   6.332  0.3148  1.4687 -0.9514
 5833SOL    HW225608   0.464   8.257   6.332  0.5356  3.1478 -3.3913
 5834SOL     OW25609   4.659   2.536   7.342  0.5813  0.0626 -0.0254
 5834SOL    HW125610   4.623   2.467   7.406 -0.1352  1.7996  1.4925
 5834SOL    HW225611   4.608   2.531   7.256 -0.3025 -0.4614  0.5176
 5837SOL     OW25612   4.014   7.373   4.830 -0.2354  0.3637  0.3713
 5837SOL    HW125613   4.038   7.454   4.777  2.7411 -0.8052 -0.1740
 5837SOL    HW225614   3.990   7.299   4.768  1.6306 -0.5204  0.6773
 5839SOL     OW25615   4.333   4.372   6.192  0.3006  0.7120  0.3588
 5839SOL    HW125616   4.395   4.349   6.117 -1.3227  0.6191 -0.9886
 5839SOL    HW225617   4.385   4.412   6.267  2.1903 -0.7826 -0.1156
 5840SOL     OW25618   4.380   3.085   5.010 -0.1758 -0.1588 -0.1345
 5840SOL    HW125619   4.390   3.184   5.011 -0.4171 -0.1336  0.3679
 5840SOL    HW225620   4.455   3.043   5.061  0.0560 -0.2456 -0.5494
 5841SOL     OW25621   9.835   9.960   5.517 -0.1620  0.1096  0.2170
 5841SOL    HW125622   9.882   9.976   5.430 -1.1926 -1.2135 -0.5921
 5841SOL    HW225623   9.737   9.946   5.501  0.2130 -4.3519  1.0940
 5842SOL     OW25624   7.884   2.735   1.593  0.6601 -0.6307  0.2861
 5842SOL    HW125625   7.809   2.791   1.626  1.0151 -0.2810  0.4952
 5842SOL    HW225626   7.949   2.792   1.542  1.2450 -0.7669  0.8759
 5843SOL     OW25627   4.063   8.032   1.463  0.4356  0.4307  0.0619
 5843SOL    HW125628   4.077   8.002   1.369 -0.6138  1.7762 -0.5383
 5843SOL    HW225629   3.965   8.029   1.485  0.4323  2.1865  0.3807
 5844SOL     OW25630   2.618   4.095   6.025 -0.1394  0.3686  0.3364
 5844SOL    HW125631   2.687   4.163   6.047  0.4670 -0.2611  0.3892
 5844SOL    HW225632   2.601   4.037   6.105 -0.0341 -0.0801  0.0386
 5845SOL     OW25633   7.758   5.586   0.975  0.6110  0.3911 -0.3856
 5845SOL    HW125634   7.670   5.601   0.930  1.7239  2.0146 -2.0562
 5845SOL    HW225635   7.801   5.505   0.937  1.0998  1.1970 -1.5770
 5846SOL     OW25636   0.145   9.979   2.088 -0.3876  0.4956  0.0980
 5846SOL    HW125637   0.158   9.904   2.153  0.3654 -1.1350 -1.9074
 5846SOL    HW225638   0.234  10.019   2.065 -0.5537  0.3796 -0.7405
 5847SOL     OW25639   1.623   7.726   3.170 -0.2025  0.0115  0.4632
 5847SOL    HW125640   1.708   7.688   3.205  1.1258  0.5968 -2.0088
 5847SOL    HW225641   1.566   7.653   3.133  0.1592 -0.1611  0.2421
 5848SOL     OW25642   7.655   9.868   7.018 -0.0545  0.2292 -0.5038
 5848SOL    HW125643   7.645   9.934   7.092 -1.6040  1.2466 -1.5957
 5848SOL    HW225644   7.618   9.780   7.047 -2.1613  1.0474 -0.5938
 5849SOL     OW25645   9.694   2.422   0.134  0.7097 -0.0452  0.7106
 5849SOL    HW125646   9.638   2.503   0.150 -0.1063 -0.7251  1.3253
 5849SOL    HW225647   9.677   2.355   0.206 -1.0246 -2.0780 -1.5150
 5850SOL     OW25648   9.628   0.048   7.132 -0.3365  0.1647  0.2313
 5850SOL    HW125649   9.670  -0.042   7.131 -3.1537 -1.2450 -2.7438
 5850SOL    HW225650   9.668   0.104   7.059 -1.9009 -0.3942 -1.0908
 5851SOL     OW25651   5.834   0.346   2.747  0.3068 -0.3179 -0.1228
 5851SOL    HW125652   5.859   0.266   2.801 -1.8424 -0.3622  0.8607
 5851SOL    HW225653   5.751   0.326   2.695  0.3672  0.9187 -0.7141
 5852SOL     OW25654   1.488   4.509   6.437 -0.0120 -0.2944 -0.6778
 5852SOL    HW125655   1.583   4.536   6.421  0.0112 -0.3224 -0.5838
 5852SOL    HW225656   1.428   4.588   6.419 -0.0538 -0.5520 -1.7201
 5853SOL     OW25657   3.848   7.897   5.313 -0.1705  0.0754  0.0096
 5853SOL    HW125658   3.767   7.859   5.269  0.9433 -0.3979 -1.6580
 5853SOL    HW225659   3.868   7.844   5.396 -1.6164  0.2846  0.5217
 5854SOL     OW25660   9.424   5.938   6.145 -0.1374 -0.0405  0.0467
 5854SOL    HW125661   9.388   6.004   6.079  1.0780  1.2310  0.6280
 5854SOL    HW225662   9.499   5.886   6.103  0.1322  0.2429  0.1728
 5855SOL     OW25663   9.677   9.801   1.646  0.6100  0.4104 -0.4173
 5855SOL    HW125664   9.648   9.749   1.566  1.8988  1.4841 -1.6183
 5855SOL    HW225665   9.683   9.898   1.622  2.9553  0.4977  0.3788
 5856SOL     OW25666   5.471   4.580   0.334 -0.7726 -0.3568  0.2897
 5856SOL    HW125667   5.533   4.538   0.402  0.0583  0.3442 -0.0249
 5856SOL    HW225668   5.526   4.618   0.259 -1.3608  3.1094  1.5477
 5857SOL     OW25669   8.774   8.760   3.696 -0.0253  0.6329 -0.0547
 5857SOL    HW125670   8.838   8.836   3.682 -1.0818  1.5404  0.0006
 5857SOL    HW225671   8.707   8.759   3.622  0.4766 -0.7673 -0.5129
 5859SOL     OW25672   4.323   4.310   5.284 -0.7379  0.1724  0.0469
 5859SOL    HW125673   4.331   4.365   5.201  1.3202 -0.7132 -0.3661
 5859SOL    HW225674   4.356   4.363   5.362  1.2786 -0.4637 -0.3564
 5860SOL     OW25675   1.633   9.484   4.814 -0.1920  0.0713  0.6274
 5860SOL    HW125676   1.538   9.456   4.800  0.1244 -0.0233 -1.4322
 5860SOL    HW225677   1.684   9.407   4.853 -0.7303 -0.1888  0.8307
 5861SOL     OW25678   8.993   1.657   3.670  0.1341 -0.1438  0.1555
 5861SOL    HW125679   9.058   1.597   3.623 -0.2909  0.8695 -1.8102
 5861SOL    HW225680   8.913   1.672   3.610 -0.4115  1.2186  1.1943
 5862SOL     OW25681   2.917   5.145   2.604 -0.4867  0.1229  0.0453
 5862SOL    HW125682   2.994   5.147   2.668  1.1956  2.4305 -1.9497
 5862SOL    HW225683   2.852   5.218   2.627 -0.2808  0.4414 -0.3685
 5863SOL     OW25684   4.025   3.181   4.614  0.1127 -0.4535  0.2048
 5863SOL    HW125685   3.965   3.187   4.693 -0.0243  3.1427 -0.0915
 5863SOL    HW225686   3.975   3.142   4.536 -1.0150  0.0067  0.6943
 5864SOL     OW25687   8.790   9.242   5.043  0.4528 -0.0794 -0.2574
 5864SOL    HW125688   8.821   9.147   5.042 -0.0679 -0.3063  1.9979
 5864SOL    HW225689   8.692   9.245   5.022  0.7474  0.0968 -1.6523
 5865SOL     OW25690   7.064   4.236   3.270  0.1836  0.4644  0.3104
 5865SOL    HW125691   7.154   4.241   3.313  0.2760 -1.7791  0.4201
 5865SOL    HW225692   7.075   4.236   3.170  0.3304 -0.0559  0.3243
 5866SOL     OW25693   2.406   1.398   7.673  0.1735  0.1873 -0.1435
 5866SOL    HW125694   2.377   1.368   7.764  0.6999  0.1542  0.0169
 5866SOL    HW225695   2.388   1.326   7.607  2.6182 -1.0317  0.4553
 5867SOL     OW25696   9.273   5.808   0.951 -0.4616  0.4342  0.1782
 5867SOL    HW125697   9.229   5.734   1.001  1.5776  0.1710  1.5959
 5867SOL    HW225698   9.250   5.896   0.994 -0.7091  0.4212  0.0767
 5869SOL     OW25699   5.164   1.040   3.849 -0.6069  0.3021 -0.1189
 5869SOL    HW125700   5.260   1.029   3.822 -0.9580 -1.1288 -0.8332
 5869SOL    HW225701   5.136   1.135   3.835  0.9341  0.9194  0.8656
 5870SOL     OW25702   6.226   8.938   6.863 -0.6401 -0.3845 -0.2691
 5870SOL    HW125703   6.322   8.962   6.876 -0.2145 -1.9451 -0.4255
 5870SOL    HW225704   6.190   8.988   6.784 -0.0187  0.3414 -0.1058
 5871SOL     OW25705   0.006   2.461   7.468  0.9199 -0.5770  0.4187
 5871SOL    HW125706   0.102   2.481   7.447  0.9842  0.3808  1.5679
 5871SOL    HW225707  -0.052   2.491   7.393  1.4918 -0.9416 -0.1734
 5872SOL     OW25708   1.911   8.124   6.929  0.4417 -0.3074  0.2363
 5872SOL    HW125709   1.948   8.036   6.900  0.6141  0.4795 -1.9860
 5872SOL    HW225710   1.950   8.197   6.873 -1.1354  1.0048  0.7969
 5873SOL     OW25711   1.719   5.715   5.659  0.0483  0.0563 -0.1745
 5873SOL    HW125712   1.730   5.621   5.627 -0.1738  0.2880 -0.9443
 5873SOL    HW225713   1.623   5.731   5.684  0.3670 -0.3596  1.3885
 5874SOL     OW25714   6.604   9.096   5.185 -0.1428 -0.2493 -0.1969
 5874SOL    HW125715   6.626   9.172   5.125 -2.5624 -1.1869 -2.3868
 5874SOL    HW225716   6.506   9.098   5.207  0.1613 -1.5469  1.4441
 5875SOL     OW25717   2.325   0.274   5.749 -0.4926  0.0843  0.1639
 5875SOL    HW125718   2.384   0.335   5.801 -0.9189 -1.8994  3.1221
 5875SOL    HW225719   2.230   0.302   5.761 -0.6496 -0.8038  1.1389
 5876SOL     OW25720   8.841   2.906   7.157  0.1043  0.1102  0.6176
 5876SOL    HW125721   8.746   2.893   7.186 -0.1772 -0.5469 -0.5756
 5876SOL    HW225722   8.875   2.821   7.117  0.2855  1.1775 -1.5436
 5877SOL     OW25723   9.414   5.155   2.875  0.4952 -0.3516 -0.3666
 5877SOL    HW125724   9.436   5.073   2.928 -0.1865 -0.8854 -0.8969
 5877SOL    HW225725   9.419   5.134   2.777  0.8443  0.3821 -0.5085
 5878SOL     OW25726   3.231   9.602   0.459  0.2728 -0.5867  0.3014
 5878SOL    HW125727   3.251   9.694   0.426  0.0521 -0.1299  1.4045
 5878SOL    HW225728   3.142   9.602   0.506  1.2168 -0.8648  2.1601
 5879SOL     OW25729   3.268   4.035   6.945 -0.4590 -0.4124  0.6010
 5879SOL    HW125730   3.256   4.006   7.040 -0.2277  0.7550  0.9952
 5879SOL    HW225731   3.309   3.961   6.892 -0.5306 -1.0452  1.4291
 5882SOL     OW25732   0.043   3.152   7.400  0.0719 -0.4523  0.9652
 5882SOL    HW125733   0.066   3.064   7.444 -0.2894 -1.3601 -0.6359
 5882SOL    HW225734  -0.033   3.139   7.338  0.2506  0.9442  0.4443
 5883SOL     OW25735   4.251   8.155   5.290 -0.0400  0.0572 -0.3185
 5883SOL    HW125736   4.195   8.073   5.280  1.3932 -0.9761 -0.0856
 5883SOL    HW225737   4.347   8.132   5.273  0.3213  1.8068 -0.7936
 5885SOL     OW25738   0.725   2.081   4.951  0.0166  0.0520  0.1360
 5885SOL    HW125739   0.744   2.073   4.853  0.5586  2.0313  0.0538
 5885SOL    HW225740   0.775   2.159   4.988 -2.6026  1.1877  1.3714
 5886SOL     OW25741   9.104   1.699   1.357 -0.1820 -0.2306 -0.4837
 5886SOL    HW125742   9.110   1.789   1.313 -1.5048  0.2391  0.2678
 5886SOL    HW225743   9.013   1.687   1.397  0.6512 -1.0734  1.2265
 5891SOL     OW25744   9.888   5.639   3.259  0.1252  0.4817 -0.1852
 5891SOL    HW125745   9.861   5.705   3.188 -0.8896 -0.4914 -0.7127
 5891SOL    HW225746   9.807   5.613   3.312  0.6537  0.1898  0.4763
 5892SOL     OW25747   2.720   4.049   1.345  0.1717  0.3819  0.9112
 5892SOL    HW125748   2.676   4.029   1.257 -0.4844  1.9962  0.8548
 5892SOL    HW225749   2.702   3.974   1.409 -1.3530  0.2848  0.3949
 5893SOL     OW25750   6.608   2.304   0.134 -0.1854 -0.4604  0.2139
 5893SOL    HW125751   6.539   2.247   0.179  0.0861 -1.2867 -0.3937
 5893SOL    HW225752   6.580   2.400   0.138 -0.8944 -0.6897  0.8173
 5894SOL     OW25753   4.537   5.895   0.543 -0.4987  0.0621  0.1253
 5894SOL    HW125754   4.626   5.921   0.503 -0.7866  1.0036  0.0847
 5894SOL    HW225755   4.518   5.954   0.621 -1.1685 -0.0264  0.0246
 5895SOL     OW25756   1.129   0.962   3.281 -0.4519 -0.0134  0.1522
 5895SOL    HW125757   1.143   0.945   3.378  1.2370  0.1435 -0.0542
 5895SOL    HW225758   1.130   1.060   3.263 -2.7464  0.0567  0.2460
 5896SOL     OW25759   6.649   0.870   1.058  0.5058 -0.0119  0.0425
 5896SOL    HW125760   6.748   0.880   1.056  0.6677 -0.9728  2.4136
 5896SOL    HW225761   6.625   0.773   1.072 -0.6953  0.6776  3.1684
 5897SOL     OW25762   5.441   3.061   6.665 -0.0831  0.0206 -0.0004
 5897SOL    HW125763   5.541   3.062   6.657 -0.0615  1.0863  0.4150
 5897SOL    HW225764   5.411   3.136   6.723 -1.0156 -1.2886  1.2363
 5898SOL     OW25765   4.027   2.080   2.726 -0.3616  0.3531  0.2652
 5898SOL    HW125766   4.000   2.060   2.632  1.8437 -2.5493  0.1720
 5898SOL    HW225767   4.125   2.103   2.728 -0.7213  1.9117  1.6877
 5899SOL     OW25768   2.987   4.162   7.266  0.0823  0.1841 -0.0761
 5899SOL    HW125769   3.062   4.139   7.327  0.6581 -0.1659 -0.9128
 5899SOL    HW225770   3.002   4.254   7.228 -0.5909  0.6565  0.7793
 5900SOL     OW25771   1.569   7.409   0.174 -0.0453  0.3451 -0.2507
 5900SOL    HW125772   1.586   7.483   0.239  0.4427 -0.2553  0.3112
 5900SOL    HW225773   1.656   7.369   0.144 -0.2659  0.5926 -1.2517
 5902SOL     OW25774   2.814   5.434   0.196  0.6782 -0.2281 -0.3912
 5902SOL    HW125775   2.906   5.454   0.161 -0.2992  3.0455 -1.3267
 5902SOL    HW225776   2.807   5.463   0.291  0.8973 -1.4029 -0.0139
 5904SOL     OW25777   0.328   3.917   7.923  0.2778 -0.5813 -0.2972
 5904SOL    HW125778   0.362   3.854   7.853 -0.3816 -1.8851  0.5416
 5904SOL    HW225779   0.356   4.010   7.900 -0.7071 -0.8552 -2.7736
 5905SOL     OW25780   1.490   7.579   4.973  0.1012  0.0366 -0.1914
 5905SOL    HW125781   1.479   7.537   4.883  1.0139  0.1458 -0.3559
 5905SOL    HW225782   1.420   7.649   4.986 -0.3995 -0.3865 -0.5715
 5907SOL     OW25783   8.706   8.278   1.315  0.4778  0.3343 -0.4313
 5907SOL    HW125784   8.607   8.266   1.309  0.4956  0.0903 -0.2306
 5907SOL    HW225785   8.727   8.349   1.383  0.3719  1.5751 -1.6706
 5908SOL     OW25786   7.245   0.321   5.921  0.1826 -0.2172 -0.1256
 5908SOL    HW125787   7.300   0.385   5.975  0.6709 -2.4910  2.1762
 5908SOL    HW225788   7.305   0.254   5.877 -0.6509 -2.3361  1.8853
 5909SOL     OW25789   7.804   5.034   1.369 -0.4729 -0.0188  0.0341
 5909SOL    HW125790   7.776   4.941   1.346 -0.6849  0.5639 -2.1404
 5909SOL    HW225791   7.724   5.094   1.369  0.0665  0.7417 -1.6326
 5911SOL     OW25792   3.926   5.145   2.789 -0.1738 -0.2241  0.3126
 5911SOL    HW125793   3.867   5.082   2.839 -1.8188 -0.4188 -1.7986
 5911SOL    HW225794   3.936   5.114   2.695  2.1676  0.5980  0.2644
 5912SOL     OW25795   8.187   6.116   6.834 -0.0216 -0.1925  0.5507
 5912SOL    HW125796   8.191   6.197   6.775 -0.1797 -0.4931  0.1236
 5912SOL    HW225797   8.135   6.138   6.916 -0.9689 -0.1564 -0.0490
 5913SOL     OW25798   5.985   0.877   4.121 -0.1143  0.6002 -0.5203
 5913SOL    HW125799   5.931   0.958   4.098 -1.3047  0.0819  0.3937
 5913SOL    HW225800   6.076   0.905   4.151 -0.4117  1.5773 -0.5113
 5914SOL     OW25801   1.100   7.081   7.769  0.1470  0.1597  0.2087
 5914SOL    HW125802   1.010   7.071   7.726  0.5473 -1.9600 -0.1833
 5914SOL    HW225803   1.156   7.143   7.714 -1.5661  2.8265  1.3206
 5915SOL     OW25804   1.359   6.027   7.395 -0.4656 -0.6848  0.4037
 5915SOL    HW125805   1.377   6.125   7.400  1.2769 -1.0222  1.1366
 5915SOL    HW225806   1.417   5.986   7.324 -2.0706 -1.0132 -0.7615
 5918SOL     OW25807   2.046   7.373   5.110 -0.0594 -0.3159 -0.5322
 5918SOL    HW125808   2.123   7.365   5.172 -0.0238  2.8842 -0.0576
 5918SOL    HW225809   2.041   7.292   5.051  2.4702 -1.4142  0.7082
 5921SOL     OW25810   2.699   3.192   1.267  0.3112  0.3970 -0.0581
 5921SOL    HW125811   2.703   3.095   1.290  0.5844  0.6984  1.2245
 5921SOL    HW225812   2.762   3.211   1.191 -1.0366 -0.7235 -1.4928
 5922SOL     OW25813   8.900   8.063   1.855  0.1144 -0.9467 -0.1519
 5922SOL    HW125814   8.819   8.006   1.866 -0.6293  0.3867  1.5842
 5922SOL    HW225815   8.902   8.133   1.927  3.3792 -1.6095  0.4736
 5923SOL     OW25816   8.955   9.138   7.193  0.1439  0.0514 -0.0751
 5923SOL    HW125817   9.029   9.205   7.204 -0.4651  0.6540  0.4131
 5923SOL    HW225818   8.905   9.129   7.280 -1.8608  1.4236 -1.0587
 5924SOL     OW25819   8.556   0.117   4.905  0.3729 -0.4747 -0.4459
 5924SOL    HW125820   8.486   0.165   4.853 -0.6610 -1.9629 -0.4480
 5924SOL    HW225821   8.566   0.024   4.871  0.4696 -1.1214  1.2758
 5925SOL     OW25822   2.645   0.895   5.647  0.0584  0.0395  1.0633
 5925SOL    HW125823   2.608   0.809   5.612 -0.5513  1.0092 -0.7452
 5925SOL    HW225824   2.576   0.941   5.702 -0.5092  0.5558 -0.0613
 5926SOL     OW25825   9.794   4.581   3.536 -0.5080 -0.0752 -0.6140
 5926SOL    HW125826   9.763   4.646   3.606 -0.0197 -0.1778 -0.3010
 5926SOL    HW225827   9.874   4.618   3.489 -0.6559 -0.1369 -0.9146
 5928SOL     OW25828   8.416   6.133   5.348  0.9431  0.0895  0.2290
 5928SOL    HW125829   8.464   6.185   5.418 -0.0500  0.0684  0.9293
 5928SOL    HW225830   8.382   6.048   5.387 -0.6641  0.6365  0.0425
 5929SOL     OW25831   5.528   4.347   1.664  0.3367  0.3328  0.4891
 5929SOL    HW125832   5.435   4.365   1.696  0.7472  1.2692  1.2009
 5929SOL    HW225833   5.525   4.299   1.576 -0.8117  0.7184  0.3110
 5930SOL     OW25834   2.618   4.263   2.829  0.7150 -0.2197  0.0197
 5930SOL    HW125835   2.525   4.279   2.797  0.1313 -0.9913  1.2764
 5930SOL    HW225836   2.676   4.341   2.805  0.6943 -1.3582 -4.2136
 5931SOL     OW25837   6.606   9.539   2.869 -0.0768  0.0240 -0.0118
 5931SOL    HW125838   6.680   9.533   2.936 -1.2327  0.0406  1.2841
 5931SOL    HW225839   6.555   9.624   2.884 -2.1686 -1.3791  1.0221
 5932SOL     OW25840   8.829   2.315   7.720 -0.6802  0.0083  0.2796
 5932SOL    HW125841   8.729   2.318   7.722 -0.7653 -2.1251 -0.0767
 5932SOL    HW225842   8.861   2.235   7.770  0.7213 -0.9565 -2.1054
 5933SOL     OW25843   9.301   3.225   7.674 -0.0823 -0.1948  0.1395
 5933SOL    HW125844   9.255   3.230   7.763  0.7491  1.6902  0.4794
 5933SOL    HW225845   9.397   3.198   7.688 -0.8577 -3.5341 -0.5205
 5935SOL     OW25846   4.706   7.807   3.778 -0.0967  0.2203 -0.0186
 5935SOL    HW125847   4.633   7.832   3.714  0.0657 -1.8786 -1.0442
 5935SOL    HW225848   4.786   7.865   3.762 -0.3498  0.2633 -1.1363
 5936SOL     OW25849   0.582   9.184   0.369 -0.1572  0.1343  0.5433
 5936SOL    HW125850   0.548   9.101   0.323 -0.9428  0.1392  1.0934
 5936SOL    HW225851   0.604   9.253   0.301  2.2930 -1.1586 -0.0560
 5937SOL     OW25852   0.922   2.045   5.704  0.0030  0.0606 -0.4614
 5937SOL    HW125853   0.919   2.103   5.623  1.1001 -0.0917 -0.6271
 5937SOL    HW225854   0.914   2.102   5.786 -1.6655  0.1591 -0.6763
 5938SOL     OW25855   0.480   7.631   0.811  0.3316 -0.6565 -0.6290
 5938SOL    HW125856   0.553   7.565   0.790  0.4370 -0.8573  0.2999
 5938SOL    HW225857   0.401   7.582   0.849 -0.3984 -0.4696 -1.8953
 5940SOL     OW25858   5.893   3.106   0.339 -0.1166 -0.2257  0.5014
 5940SOL    HW125859   5.985   3.069   0.350 -0.1803  0.2592  2.9399
 5940SOL    HW225860   5.847   3.109   0.428 -1.0296  3.3251 -0.0088
 5941SOL     OW25861   9.472   7.703   0.903 -0.0827 -0.0167  0.7194
 5941SOL    HW125862   9.542   7.773   0.911  0.4901 -0.4468 -0.3692
 5941SOL    HW225863   9.466   7.652   0.989 -0.0065  0.8943  1.2686
 5943SOL     OW25864   4.220   6.357   7.665 -0.4423 -0.4849  0.0891
 5943SOL    HW125865   4.231   6.276   7.607  1.7827 -0.3023  0.2352
 5943SOL    HW225866   4.299   6.365   7.726 -1.1994  1.1688  0.8625
 5944SOL     OW25867   0.432   5.535   3.136 -0.0793  0.2105  0.1633
 5944SOL    HW125868   0.466   5.464   3.199  0.2335  0.3374  0.1384
 5944SOL    HW225869   0.338   5.514   3.110 -0.9313  1.2309  2.2800
 5945SOL     OW25870   8.300   3.267   1.172 -0.1163  0.2640 -0.7632
 5945SOL    HW125871   8.292   3.367   1.179 -1.2018  0.3224 -2.4542
 5945SOL    HW225872   8.326   3.243   1.079 -2.1427 -1.1434 -1.0003
 5946SOL     OW25873   0.028   0.483   2.622 -0.0488 -0.3781  0.2637
 5946SOL    HW125874   0.083   0.565   2.608  1.4833 -1.3347  0.5995
 5946SOL    HW225875   0.087   0.403   2.628 -1.5847 -1.6596 -1.0696
 5947SOL     OW25876   1.476   8.472   4.811 -0.4040  0.2375  0.1513
 5947SOL    HW125877   1.448   8.394   4.755 -0.9382  0.1138  0.5840
 5947SOL    HW225878   1.529   8.440   4.889 -2.4780  0.0629  1.5478
 5949SOL     OW25879   4.148   9.758   0.662 -0.5709 -0.3814  0.4710
 5949SOL    HW125880   4.087   9.749   0.741 -1.6480 -1.3653 -0.4560
 5949SOL    HW225881   4.094   9.763   0.578  0.6097 -1.2087 -0.3678
 5950SOL     OW25882   7.987   7.390   5.288 -0.5063  0.1682 -0.0534
 5950SOL    HW125883   7.970   7.319   5.219 -0.9801  1.3308 -1.1576
 5950SOL    HW225884   7.899   7.429   5.317 -0.2881 -0.1040  1.0026
 5951SOL     OW25885   9.375   2.615   3.966  0.1412 -0.3879  0.1603
 5951SOL    HW125886   9.394   2.704   3.924 -2.1571  0.0369 -0.0071
 5951SOL    HW225887   9.397   2.618   4.064  0.4896  0.2148  0.0631
 5953SOL     OW25888   4.208   2.597   0.686  0.4240  0.5370 -0.0042
 5953SOL    HW125889   4.233   2.666   0.618  1.3043  0.4192  0.1839
 5953SOL    HW225890   4.202   2.508   0.642  1.4207  0.3880  0.1306
 5954SOL     OW25891   3.637   9.074   0.942 -0.3714 -0.7631  0.1115
 5954SOL    HW125892   3.609   9.048   1.035  1.5894 -0.8261  0.7092
 5954SOL    HW225893   3.707   9.145   0.947 -0.3869 -0.6323 -1.3346
 5955SOL     OW25894   0.823   6.746   1.031  0.3837  0.6121  0.3416
 5955SOL    HW125895   0.744   6.767   0.973 -0.3573 -0.1815  1.0444
 5955SOL    HW225896   0.905   6.739   0.975 -0.0798  1.2544 -0.4232
 5956SOL     OW25897   1.185   3.237   6.301 -0.0813 -0.4315 -0.4071
 5956SOL    HW125898   1.125   3.312   6.329 -0.5802 -0.9513 -0.0839
 5956SOL    HW225899   1.216   3.188   6.383  0.4007 -0.4661 -0.6060
 5957SOL     OW25900   0.564   3.929   0.909  0.4533 -0.1157  0.3462
 5957SOL    HW125901   0.616   3.923   0.824 -1.0013  2.1692 -0.7581
 5957SOL    HW225902   0.466   3.921   0.889  0.1239  0.0291  1.8509
 5959SOL     OW25903   8.770   6.327   7.205  0.6109 -0.3639  0.3275
 5959SOL    HW125904   8.730   6.375   7.127  1.9779  3.1998  1.7239
 5959SOL    HW225905   8.712   6.340   7.285  0.5376 -1.8564  0.5391
 5962SOL     OW25906   3.222   7.629   7.813  0.4289 -0.1518 -0.2916
 5962SOL    HW125907   3.296   7.686   7.850 -0.6387  0.5373  0.8160
 5962SOL    HW225908   3.135   7.658   7.852 -0.1614 -2.4618  0.1610
 5963SOL     OW25909   2.022   2.007   0.969  0.6555  0.5098  0.2958
 5963SOL    HW125910   2.058   2.039   1.056 -0.8214 -1.6177  1.7230
 5963SOL    HW225911   2.097   1.973   0.912  1.4966  0.9314  1.1558
 5964SOL     OW25912   0.478   4.434   4.733  0.1938 -0.5900 -0.4213
 5964SOL    HW125913   0.437   4.394   4.815 -1.5157 -2.1571 -1.9930
 5964SOL    HW225914   0.498   4.362   4.667  1.1582  0.7058 -1.5832
 5965SOL     OW25915   6.521   4.841   7.719 -0.1032 -0.0853 -0.0510
 5965SOL    HW125916   6.600   4.795   7.678  1.2259  0.3464  1.9643
 5965SOL    HW225917   6.437   4.808   7.675  1.0241 -2.2503 -0.6742
 5966SOL     OW25918   0.601   6.986   3.892 -0.0385 -0.0326  0.3739
 5966SOL    HW125919   0.512   6.949   3.920  0.7882 -1.5782  1.0123
 5966SOL    HW225920   0.672   6.918   3.909  1.1624  0.8724 -0.9262
 5968SOL     OW25921   8.539   1.986   2.427 -0.1786  0.0611 -0.6558
 5968SOL    HW125922   8.595   2.053   2.378 -0.3586  1.3723  0.8911
 5968SOL    HW225923   8.570   1.980   2.522 -1.8824 -0.0881 -0.0925
 5969SOL     OW25924   3.046   1.422   7.944 -0.1635 -0.0292 -0.3369
 5969SOL    HW125925   3.143   1.446   7.946 -0.3678  0.7885 -0.0565
 5969SOL    HW225926   3.023   1.368   8.025 -0.1109  0.4307 -0.0160
 5970SOL     OW25927   8.325   8.552   2.055 -0.4739  0.2050 -0.1695
 5970SOL    HW125928   8.239   8.603   2.043  0.1151  1.0991 -0.6806
 5970SOL    HW225929   8.378   8.594   2.129 -0.8525 -0.8731  0.7290
 5971SOL     OW25930   7.689   6.041   4.493  0.6674 -0.1673  0.2420
 5971SOL    HW125931   7.788   6.031   4.492  0.5351 -1.6642  0.4938
 5971SOL    HW225932   7.649   5.967   4.547 -0.6424 -0.1283 -0.6497
 5972SOL     OW25933   9.092   3.402   7.630  0.6172 -0.2849 -0.2852
 5972SOL    HW125934   9.156   3.325   7.637  0.1860 -0.6841 -0.6963
 5972SOL    HW225935   9.141   3.487   7.649  1.1972 -0.6171 -0.2597
 5973SOL     OW25936   5.516   2.093   1.054 -0.5242 -0.1280  0.0011
 5973SOL    HW125937   5.527   2.157   0.977 -0.7928  0.7035  0.6409
 5973SOL    HW225938   5.605   2.055   1.079  0.0751  2.0560  1.3396
 5974SOL     OW25939   9.434   0.376   0.359  0.1726 -0.3271 -0.1732
 5974SOL    HW125940   9.519   0.377   0.307 -0.4098 -0.5209 -1.1634
 5974SOL    HW225941   9.411   0.282   0.385  1.2981 -0.0576  1.8740
 5975SOL     OW25942   2.479   4.337   4.084  0.3264  0.4776 -0.3931
 5975SOL    HW125943   2.433   4.329   3.995  0.6312 -0.6818 -0.4599
 5975SOL    HW225944   2.421   4.389   4.147 -1.7591 -2.1074 -0.0560
 5976SOL     OW25945   9.547   9.352   2.095  0.6200 -0.1063 -0.1395
 5976SOL    HW125946   9.562   9.441   2.052 -1.1536  0.3549  0.1772
 5976SOL    HW225947   9.449   9.337   2.109  0.9455 -1.7842  0.5045
 5977SOL     OW25948   2.515   4.466   0.786  0.0800 -0.3008  0.1733
 5977SOL    HW125949   2.511   4.521   0.870 -2.4806  0.2478 -0.2476
 5977SOL    HW225950   2.564   4.517   0.715 -1.5743  1.1693  0.0342
 5978SOL     OW25951   1.845   3.728   6.094  0.0319 -0.3288 -0.6095
 5978SOL    HW125952   1.827   3.814   6.141 -0.1635 -0.4578 -0.4462
 5978SOL    HW225953   1.867   3.746   5.998  0.7125 -0.0443 -0.4030
 5979SOL     OW25954   0.387   5.024   4.327 -0.1706 -0.0420 -0.2168
 5979SOL    HW125955   0.291   5.040   4.347 -0.0649  0.8615 -0.4144
 5979SOL    HW225956   0.442   5.042   4.409 -0.2679 -1.6583  0.2284
 5982SOL     OW25957   2.981   3.417   6.716  0.8885 -0.2383  0.1671
 5982SOL    HW125958   3.014   3.490   6.656  1.5485 -0.4441  0.2772
 5982SOL    HW225959   2.907   3.453   6.773  1.5104  0.4768  0.5374
 5983SOL     OW25960   6.277   8.642   5.565 -0.2450  0.3647 -0.9185
 5983SOL    HW125961   6.314   8.735   5.562 -1.2777  0.7726 -1.1056
 5983SOL    HW225962   6.346   8.581   5.604  1.0515  0.8985 -2.3099
 5984SOL     OW25963   4.689   7.905   2.479  0.2746 -0.1721  0.1612
 5984SOL    HW125964   4.630   7.829   2.452  0.1172 -0.0231  0.0781
 5984SOL    HW225965   4.658   7.988   2.432  0.3643 -0.0324  0.3513
 5986SOL     OW25966   6.954   5.205   7.003  0.3093 -0.6432 -0.6293
 5986SOL    HW125967   7.052   5.191   6.986  0.4314 -0.3578 -0.1775
 5986SOL    HW225968   6.901   5.162   6.931  0.8290  0.6865 -1.8176
 5987SOL     OW25969   3.793   1.321   4.630 -0.2060 -0.2343  0.4534
 5987SOL    HW125970   3.709   1.355   4.587 -1.0132 -0.0757  2.0935
 5987SOL    HW225971   3.770   1.250   4.697  0.8880  0.2721  1.3917
 5988SOL     OW25972   8.612   7.186   2.565  0.6012  0.3169  0.0772
 5988SOL    HW125973   8.553   7.114   2.600  2.8243 -1.1197  0.9874
 5988SOL    HW225974   8.645   7.161   2.474 -0.0182  1.0203 -0.3466
 5989SOL     OW25975   8.292   3.450   3.695 -1.0614 -0.7600 -0.1281
 5989SOL    HW125976   8.244   3.367   3.724  0.8863 -2.4162 -1.4467
 5989SOL    HW225977   8.342   3.488   3.773 -2.3102 -0.5707  0.5877
 5990SOL     OW25978   1.844   0.923   6.500  0.6537 -0.1694  0.4191
 5990SOL    HW125979   1.895   0.869   6.432 -1.3437 -1.8168  0.1821
 5990SOL    HW225980   1.852   0.879   6.589  1.6762  0.9401  0.8911
 5991SOL     OW25981   2.549   6.544   0.367 -0.1847 -0.2778  0.4667
 5991SOL    HW125982   2.598   6.614   0.418 -0.3980 -0.4085  0.8584
 5991SOL    HW225983   2.561   6.455   0.412  1.8126 -0.8861 -1.1852
 5992SOL     OW25984   4.406   4.347   0.992 -0.7747 -0.3870 -0.4182
 5992SOL    HW125985   4.460   4.363   1.075  1.0230  2.1242 -2.0008
 5992SOL    HW225986   4.468   4.338   0.914 -2.5899  1.5996 -2.1483
 5995SOL     OW25987   0.494   1.285   0.148 -0.2648  0.4289 -0.1005
 5995SOL    HW125988   0.486   1.297   0.049  0.4910 -2.9511 -0.6272
 5995SOL    HW225989   0.591   1.283   0.174 -0.4525  0.6488  0.6471
 5996SOL     OW25990   8.810   1.090   6.519  0.9175  0.6109 -0.2417
 5996SOL    HW125991   8.779   1.185   6.519  1.5804  0.8293  0.2778
 5996SOL    HW225992   8.795   1.050   6.429 -1.3855  0.5482  0.1368
 5997SOL     OW25993   9.374   0.116   0.422  0.2366  0.2575 -0.0251
 5997SOL    HW125994   9.300   0.082   0.480  1.4197 -0.4340  1.1116
 5997SOL    HW225995   9.438   0.042   0.402  1.0306  1.0164 -0.3524
 5999SOL     OW25996   0.268   1.428   1.258  0.1454  0.1573 -0.1019
 5999SOL    HW125997   0.345   1.384   1.305 -0.4324  0.3509  1.0433
 5999SOL    HW225998   0.299   1.514   1.217 -0.0114  1.5068  2.5174
 6000SOL     OW25999   2.835   3.022   5.765  0.2801 -0.3449 -0.2093
 6000SOL    HW126000   2.802   3.069   5.847  2.2114 -0.0054  0.3916
 6000SOL    HW226001   2.841   2.924   5.783  0.2170 -0.3284 -0.0967
 6001SOL     OW26002   9.993   6.860   5.407 -0.2560 -0.1262 -0.2813
 6001SOL    HW126003   9.929   6.823   5.474  0.7655 -0.2926  0.6094
 6001SOL    HW226004   9.987   6.960   5.408  0.2068 -0.1067  0.4969
 6004SOL     OW26005   7.949   1.860   1.137  0.2708  0.7429  0.0847
 6004SOL    HW126006   7.860   1.819   1.119 -0.1438  1.8445 -0.4129
 6004SOL    HW226007   7.938   1.937   1.200  1.0670  0.0005  1.1613
 6005SOL     OW26008   2.275   9.730   3.573 -0.1320 -0.1803 -0.3896
 6005SOL    HW126009   2.181   9.726   3.606 -0.1644 -0.1345 -0.4765
 6005SOL    HW226010   2.322   9.808   3.614 -0.4022  0.3267 -1.0519
 6008SOL     OW26011   9.078   0.464   2.083  0.6666 -0.1832 -0.8061
 6008SOL    HW126012   9.020   0.386   2.057 -1.8102  1.1389  0.6326
 6008SOL    HW226013   9.157   0.431   2.135 -1.5773 -1.5622  1.8362
 6009SOL     OW26014   9.738   4.856   6.545 -0.0985  0.3403 -0.3288
 6009SOL    HW126015   9.759   4.948   6.512  0.0075  0.3917 -0.1195
 6009SOL    HW226016   9.691   4.863   6.633  1.1167  0.1538  0.3415
 6010SOL     OW26017   7.518   9.686   7.815 -0.6283 -0.2163  0.1021
 6010SOL    HW126018   7.549   9.611   7.873  1.0426 -0.1115 -0.6428
 6010SOL    HW226019   7.419   9.698   7.827 -0.7585 -1.9153  0.9308
 6011SOL     OW26020   9.467   4.098   1.635 -0.4273 -0.3645  0.0347
 6011SOL    HW126021   9.534   4.097   1.710 -0.9848  0.5035  0.5514
 6011SOL    HW226022   9.432   4.191   1.623 -1.3234 -0.7596 -0.4249
 6012SOL     OW26023   3.805   0.097   1.862 -0.1822  0.0586 -0.1564
 6012SOL    HW126024   3.863   0.038   1.806  0.1016 -0.0951  0.2955
 6012SOL    HW226025   3.721   0.118   1.813 -0.7003 -1.4765  0.0338
 6013SOL     OW26026   6.409   9.370   5.273  0.3162 -0.0073 -0.4664
 6013SOL    HW126027   6.471   9.407   5.203  0.7048 -2.8612 -1.7159
 6013SOL    HW226028   6.322   9.346   5.231  0.2379 -0.9197  0.1869
 6014SOL     OW26029   3.359   2.097   0.503  0.2376  0.3177  0.3678
 6014SOL    HW126030   3.349   2.190   0.537 -0.7852  0.3399  0.0377
 6014SOL    HW226031   3.456   2.074   0.495  0.4915  1.2697  0.6678
 6015SOL     OW26032   0.898   2.449   5.909  0.1567 -0.0510 -0.2862
 6015SOL    HW126033   0.892   2.499   5.823  0.7184 -1.3778 -1.1280
 6015SOL    HW226034   0.929   2.510   5.982  0.7227  0.8411 -1.2579
 6016SOL     OW26035   0.551   3.659   1.038  0.4017 -0.4741  0.6439
 6016SOL    HW126036   0.583   3.690   1.128  0.7384 -0.0025  0.3647
 6016SOL    HW226037   0.549   3.736   0.975 -0.5863 -0.6468  0.4497
 6018SOL     OW26038   3.844   8.171   5.495 -0.8278  0.0551  0.5520
 6018SOL    HW126039   3.823   8.101   5.427 -0.8266 -0.3693  0.9864
 6018SOL    HW226040   3.772   8.241   5.494 -1.8699 -0.9820  1.4840
 6019SOL     OW26041   0.053   2.818   2.304 -0.2935  0.2066 -0.4537
 6019SOL    HW126042   0.087   2.906   2.272 -0.1211  0.7231  1.1056
 6019SOL    HW226043   0.093   2.745   2.249  1.6392  0.9405 -0.0745
 6020SOL     OW26044   9.802   4.734   0.105 -0.4969  0.2803 -0.2797
 6020SOL    HW126045   9.806   4.799   0.029 -1.9646 -0.5318 -1.0786
 6020SOL    HW226046   9.708   4.726   0.138 -0.3160 -1.2919 -0.0866
 6021SOL     OW26047   4.520   8.540   0.060  0.7982  0.8076  0.8022
 6021SOL    HW126048   4.563   8.460   0.020  0.1573  0.7313  0.2619
 6021SOL    HW226049   4.536   8.620   0.002  1.8312  1.1690  1.5754
 6022SOL     OW26050   2.076   0.969   1.247 -0.0731  0.0793  0.1807
 6022SOL    HW126051   2.063   0.870   1.245  0.7538 -0.0180 -0.5519
 6022SOL    HW226052   2.117   0.995   1.334  2.8511 -0.6290 -0.9427
 6024SOL     OW26053   2.658   5.582   7.648  0.6846 -0.0035  0.4893
 6024SOL    HW126054   2.560   5.585   7.667  0.4744 -1.2027 -0.3773
 6024SOL    HW226055   2.708   5.564   7.733  0.0019 -1.5786  0.5719
 6025SOL     OW26056   7.002   7.377   4.446 -0.4489 -0.6927  0.0743
 6025SOL    HW126057   7.093   7.335   4.447 -0.1345 -0.0022  1.4872
 6025SOL    HW226058   6.940   7.320   4.392  0.5540 -1.7228 -0.0168
 6026SOL     OW26059   5.762   4.353   1.042  0.0594 -0.6605  0.3263
 6026SOL    HW126060   5.691   4.396   0.986  0.6502 -1.5731 -1.1238
 6026SOL    HW226061   5.732   4.262   1.071  1.0002 -1.4098 -1.0336
 6028SOL     OW26062   5.251   3.209   2.477  0.1123 -0.5071  0.3252
 6028SOL    HW126063   5.287   3.290   2.432 -1.1159 -1.7863 -3.1634
 6028SOL    HW226064   5.181   3.235   2.544 -1.1121  1.2844 -1.6057
 6029SOL     OW26065   1.556   6.159   3.637 -0.3544 -0.4349  0.0256
 6029SOL    HW126066   1.547   6.068   3.679 -0.1000 -0.5322 -0.1273
 6029SOL    HW226067   1.564   6.228   3.708  0.4773 -0.6417  0.1402
 6030SOL     OW26068   1.704   7.835   1.331  0.9535  0.4388  0.2925
 6030SOL    HW126069   1.736   7.929   1.321 -0.9373  1.0190 -0.4397
 6030SOL    HW226070   1.710   7.789   1.242 -1.9145  1.1019 -0.2696
 6031SOL     OW26071   7.406   3.348   2.691  0.1562  0.1329  0.0643
 6031SOL    HW126072   7.364   3.319   2.777  1.6070 -1.2334  0.3349
 6031SOL    HW226073   7.381   3.443   2.672 -1.1433  0.0709  1.3873
 6032SOL     OW26074   2.963   6.900   5.182  0.3297  0.2985 -0.3283
 6032SOL    HW126075   2.936   6.878   5.276 -1.7068 -0.2419 -1.0088
 6032SOL    HW226076   2.984   6.815   5.133  1.2525  0.5704 -0.4008
 6033SOL     OW26077   3.200   3.115   5.734  0.0853  0.0910 -0.3627
 6033SOL    HW126078   3.257   3.060   5.674 -1.1845 -2.1458  0.4195
 6033SOL    HW226079   3.110   3.128   5.692 -0.5341 -0.7846  0.6779
 6034SOL     OW26080   4.471   1.418   5.184  0.6489  0.1116 -0.3119
 6034SOL    HW126081   4.384   1.393   5.142  0.2739  0.1247  0.4446
 6034SOL    HW226082   4.512   1.493   5.132  0.5776 -0.4028 -1.1191
 6035SOL     OW26083   1.480   7.148   0.819  0.5074 -0.0590  0.0327
 6035SOL    HW126084   1.516   7.072   0.764  1.7434  1.5264 -1.3879
 6035SOL    HW226085   1.387   7.126   0.849 -0.4178 -0.7298 -3.1469
 6036SOL     OW26086   9.208   8.976   3.544 -0.0020  0.4665  1.0712
 6036SOL    HW126087   9.119   8.939   3.573 -0.2742 -0.4712 -0.8550
 6036SOL    HW226088   9.198   9.072   3.518 -0.8595 -0.0988 -0.8001
 6037SOL     OW26089   3.536   2.065   2.914  0.1313 -0.3268 -0.1898
 6037SOL    HW126090   3.508   2.032   3.004 -0.0945  2.0431  0.6568
 6037SOL    HW226091   3.634   2.049   2.902  0.2422 -0.2916  0.6518
 6038SOL     OW26092   5.448   7.704   2.474 -0.2013 -0.1593 -0.8112
 6038SOL    HW126093   5.358   7.722   2.514 -0.0601  0.9152 -0.9714
 6038SOL    HW226094   5.445   7.725   2.376 -0.1770 -1.5150 -1.1163
 6039SOL     OW26095   7.298   6.057   6.342 -0.0487 -0.0013 -0.0925
 6039SOL    HW126096   7.211   6.031   6.301 -0.2275  0.6410 -0.1326
 6039SOL    HW226097   7.295   6.154   6.369  0.3920 -0.1712  0.5867
 6042SOL     OW26098   2.985   3.463   5.732 -0.3635  0.1007 -0.1378
 6042SOL    HW126099   2.980   3.381   5.674 -1.7379 -0.9807  1.4601
 6042SOL    HW226100   3.068   3.459   5.788 -0.6016 -0.3856  0.1879
 6043SOL     OW26101   8.184   1.720   2.551  0.5077  0.8980  0.1281
 6043SOL    HW126102   8.174   1.738   2.649  0.5959 -0.5973  0.4278
 6043SOL    HW226103   8.101   1.749   2.503 -0.0245  0.5181  0.8110
 6044SOL     OW26104   5.760   7.334   4.655  0.1148 -0.6434  0.6061
 6044SOL    HW126105   5.852   7.370   4.639 -1.1039  2.6333  0.5852
 6044SOL    HW226106   5.732   7.356   4.749  0.1743 -3.6306  1.3846
 6045SOL     OW26107   8.858   6.009   0.574  0.1619  0.3466  0.0091
 6045SOL    HW126108   8.891   5.991   0.666  0.1813 -1.0584 -0.2478
 6045SOL    HW226109   8.935   6.008   0.510  0.7470  5.3767  0.4493
 6046SOL     OW26110   9.645   4.002   3.474 -0.4062  0.2786 -0.3820
 6046SOL    HW126111   9.619   3.997   3.570  1.1121  0.7432  0.0676
 6046SOL    HW226112   9.653   3.909   3.437 -0.5917  0.0876  0.0552
 6048SOL     OW26113   6.028   8.425   5.731  0.2097  0.2309  0.6632
 6048SOL    HW126114   6.063   8.436   5.638  0.9241  2.1002  1.1255
 6048SOL    HW226115   5.943   8.372   5.728 -0.0402  0.6839 -1.1012
 6049SOL     OW26116   3.977   9.715   0.905 -0.8196 -0.1848 -0.5524
 6049SOL    HW126117   3.903   9.776   0.932  0.3804  1.4077 -0.7683
 6049SOL    HW226118   4.057   9.733   0.962  0.4728  0.4825 -2.5213
 6050SOL     OW26119   1.544   3.188   0.680 -0.2983 -0.2351 -0.2531
 6050SOL    HW126120   1.634   3.225   0.701 -0.0863 -1.4992  1.1816
 6050SOL    HW226121   1.550   3.130   0.599  0.2050 -0.3985 -0.1024
 6051SOL     OW26122   9.299   1.094   6.671  0.0298 -0.0680  0.1805
 6051SOL    HW126123   9.280   1.094   6.769  1.1397 -1.1917  0.4054
 6051SOL    HW226124   9.213   1.095   6.621 -0.5551 -0.2770  1.1615
 6052SOL     OW26125   7.136   1.784   4.327 -0.3255  0.0048 -0.4123
 6052SOL    HW126126   7.093   1.869   4.356 -0.3771  0.0650 -0.6711
 6052SOL    HW226127   7.217   1.804   4.272 -1.4854 -0.1183 -2.1932
 6053SOL     OW26128   2.323   7.095   4.963 -0.2804 -0.4119  0.0615
 6053SOL    HW126129   2.230   7.106   4.929 -0.3800 -0.2885  0.3681
 6053SOL    HW226130   2.385   7.152   4.910 -0.2584 -1.1018 -0.6596
 6054SOL     OW26131   2.390   2.598   2.059 -0.0710  0.8256 -0.0172
 6054SOL    HW126132   2.310   2.657   2.068 -1.1208 -0.7678  1.6584
 6054SOL    HW226133   2.467   2.639   2.108 -0.4412  1.3891  0.1053
 6055SOL     OW26134   2.859   9.828   7.558  0.3634 -0.0227  0.8376
 6055SOL    HW126135   2.919   9.889   7.609  0.0921  0.7090  0.2967
 6055SOL    HW226136   2.872   9.734   7.589  3.0295 -0.1094 -0.4423
 6057SOL     OW26137   9.549   6.934   4.532  0.5601  0.5418 -0.4119
 6057SOL    HW126138   9.623   6.927   4.465  0.3421  1.8095 -0.8127
 6057SOL    HW226139   9.505   7.024   4.523 -1.0990 -0.2323 -0.2768
 6060SOL     OW26140   9.841   6.299   0.738 -0.2001 -0.0436  0.2026
 6060SOL    HW126141   9.843   6.387   0.785  0.5577  0.3118 -0.4867
 6060SOL    HW226142   9.812   6.312   0.643 -3.1014 -0.9411  0.9133
 6061SOL     OW26143   3.818   9.815   2.555 -0.5220  0.0052 -0.0083
 6061SOL    HW126144   3.747   9.866   2.507 -0.5361  0.2742  0.2976
 6061SOL    HW226145   3.882   9.878   2.597 -0.8970 -0.2175  0.9089
 6062SOL     OW26146   3.444   5.360   5.806  0.2419  0.0558  0.0693
 6062SOL    HW126147   3.377   5.403   5.867  0.2997 -1.2708  1.0825
 6062SOL    HW226148   3.398   5.327   5.724 -0.5244 -1.6021  1.1396
 6063SOL     OW26149   9.163   8.588   0.661  0.0590  0.5819 -0.4341
 6063SOL    HW126150   9.196   8.538   0.581  1.7256  0.5058  0.2833
 6063SOL    HW226151   9.137   8.681   0.634 -1.5816 -0.1389 -1.4740
 6064SOL     OW26152   1.143   2.620   7.516  0.2710 -0.2680  0.3633
 6064SOL    HW126153   1.054   2.580   7.538  0.0537  0.1894  0.3092
 6064SOL    HW226154   1.211   2.547   7.509  0.3200 -0.4385  2.4186
 6066SOL     OW26155   0.199   7.732   1.756  0.0182  0.4430  0.6961
 6066SOL    HW126156   0.216   7.641   1.718 -1.4117  0.1377  0.7307
 6066SOL    HW226157   0.256   7.800   1.710 -0.1368 -0.2357 -0.4948
 6067SOL     OW26158   1.374   4.186   7.767  0.3807  0.1998 -0.7139
 6067SOL    HW126159   1.349   4.282   7.754  0.5625  0.1822 -1.2245
 6067SOL    HW226160   1.344   4.133   7.687 -3.1868 -0.8702  1.2067
 6068SOL     OW26161   8.878   6.845   1.986  0.0711  0.5226  0.1193
 6068SOL    HW126162   8.905   6.918   1.923 -1.1461  0.4125 -0.5555
 6068SOL    HW226163   8.955   6.784   2.002  0.2233  0.1772 -1.8214
 6069SOL     OW26164   8.594   5.453   3.697 -0.3340  0.6029 -0.0181
 6069SOL    HW126165   8.588   5.508   3.613  0.6775 -0.1686 -0.5919
 6069SOL    HW226166   8.683   5.410   3.703 -1.6543 -2.2628 -0.3625
 6070SOL     OW26167   1.743   1.560   6.810 -0.0941 -0.7302  0.1022
 6070SOL    HW126168   1.646   1.537   6.810 -0.5854  1.1897  1.3986
 6070SOL    HW226169   1.796   1.485   6.851 -0.8047 -2.4821 -2.0746
 6071SOL     OW26170   0.553   0.700   5.181 -0.7047 -0.2502  0.4223
 6071SOL    HW126171   0.475   0.640   5.163 -0.2954 -0.1381 -1.8954
 6071SOL    HW226172   0.531   0.792   5.149  0.5394 -0.3303 -0.6916
 6072SOL     OW26173   3.162   0.236   0.863 -0.1470  0.0428 -0.0440
 6072SOL    HW126174   3.166   0.323   0.913  0.6907 -0.2486  0.3929
 6072SOL    HW226175   3.105   0.171   0.915 -0.1351  0.0784  0.0136
 6073SOL     OW26176   4.657   8.097   5.448 -0.2320  0.3468 -0.2528
 6073SOL    HW126177   4.600   8.126   5.525 -1.0307  1.9384 -1.4133
 6073SOL    HW226178   4.598   8.068   5.373  0.5362  0.1206 -0.7701
 6074SOL     OW26179   1.425   1.607   4.400 -0.0487  0.2316 -0.0385
 6074SOL    HW126180   1.331   1.606   4.364 -0.0768 -0.6221  0.0611
 6074SOL    HW226181   1.445   1.699   4.435 -0.9503  0.3481  0.2034
 6075SOL     OW26182   1.264   4.749   6.930 -0.2530  0.1497  0.0256
 6075SOL    HW126183   1.168   4.730   6.949 -0.5530  1.1960 -0.4483
 6075SOL    HW226184   1.320   4.673   6.964 -1.4412 -1.6738 -1.9576
 6076SOL     OW26185   9.354   1.924   4.684  0.0171  0.3467 -0.5666
 6076SOL    HW126186   9.364   2.016   4.647 -0.2288 -0.5396 -2.9377
 6076SOL    HW226187   9.258   1.899   4.689  0.1399 -0.3502 -1.4532
 6077SOL     OW26188   8.165   9.818   1.356 -0.4185 -0.2509  0.0815
 6077SOL    HW126189   8.078   9.808   1.308  0.4619 -0.2907 -1.5529
 6077SOL    HW226190   8.188   9.732   1.401 -2.3812  0.4828  2.5796
 6078SOL     OW26191   8.708   9.021   0.100  0.8728  0.1219  0.1472
 6078SOL    HW126192   8.766   8.996   0.023  0.7941  1.5598 -0.3770
 6078SOL    HW226193   8.617   9.047   0.067  0.8298  0.7122  0.7295
 6080SOL     OW26194   6.432   0.309   7.726  0.3572 -0.4699 -0.0324
 6080SOL    HW126195   6.389   0.317   7.636  2.5826 -1.3720 -1.2133
 6080SOL    HW226196   6.376   0.249   7.784 -1.0108 -0.0096 -0.8588
 6081SOL     OW26197   9.897   0.353   5.370  0.2779  0.5310 -0.6279
 6081SOL    HW126198   9.807   0.340   5.328 -0.0694 -0.4857  0.4085
 6081SOL    HW226199   9.966   0.363   5.298 -0.3380 -1.0414 -1.4767
 6083SOL     OW26200   0.356   8.945   6.911 -0.5592  0.2526  0.4068
 6083SOL    HW126201   0.400   8.988   6.990  0.6160  0.9950 -0.6379
 6083SOL    HW226202   0.326   9.016   6.847  0.8063 -0.4270 -1.0242
 6085SOL     OW26203   0.634   9.112   1.313 -0.0336 -0.9650 -0.1240
 6085SOL    HW126204   0.680   9.201   1.304 -0.9756 -0.2943  1.4717
 6085SOL    HW226205   0.702   9.042   1.335  0.2614  0.0079  2.1502
 6086SOL     OW26206   1.668   1.445   1.857  0.3705 -0.3504 -0.1495
 6086SOL    HW126207   1.598   1.407   1.917  0.1793 -1.0177 -0.7800
 6086SOL    HW226208   1.625   1.488   1.778  0.5966  1.0662  0.4855
 6087SOL     OW26209   4.392   7.597   2.843 -0.0608 -0.1012  0.3037
 6087SOL    HW126210   4.372   7.664   2.772 -0.9162 -2.0481 -1.3443
 6087SOL    HW226211   4.345   7.511   2.822  0.3767 -0.9790  2.7833
 6088SOL     OW26212   3.150   2.206   2.928  0.2411  0.1455  0.2209
 6088SOL    HW126213   3.222   2.243   2.987 -0.8200  0.4575  1.3271
 6088SOL    HW226214   3.131   2.111   2.954 -0.1947  0.2650  0.3338
 6090SOL     OW26215   2.723   7.329   0.021  0.0690 -0.1993  0.1657
 6090SOL    HW126216   2.787   7.401   0.048  0.2016 -0.1667 -0.2335
 6090SOL    HW226217   2.765   7.239   0.038 -0.7305 -0.2078  2.2090
 6092SOL     OW26218   8.933   7.301   2.728 -0.0482  0.1566  0.4470
 6092SOL    HW126219   9.020   7.297   2.777  0.6075  1.7175 -0.5576
 6092SOL    HW226220   8.861   7.331   2.791  0.0092 -1.7099  1.4230
 6093SOL     OW26221   1.692   2.548   1.102 -0.1902  1.1017  0.0756
 6093SOL    HW126222   1.780   2.570   1.144 -0.8457  1.4687  1.2949
 6093SOL    HW226223   1.652   2.468   1.148 -0.3179  0.7031 -0.7241
 6094SOL     OW26224   4.236   8.684   7.588  0.0501 -0.4138 -0.1447
 6094SOL    HW126225   4.294   8.762   7.612 -0.3172 -0.3574  0.5677
 6094SOL    HW226226   4.287   8.622   7.528  1.2739 -0.9774  1.4574
 6095SOL     OW26227   2.348   7.433   6.796 -0.0415 -0.6539 -0.0298
 6095SOL    HW126228   2.312   7.499   6.730  1.3644  1.2108  1.0064
 6095SOL    HW226229   2.276   7.405   6.859 -0.6594 -0.1230 -0.4915
 6098SOL     OW26230   4.200   3.192   6.151  0.2282  0.0038 -0.6173
 6098SOL    HW126231   4.213   3.098   6.119  3.5879 -0.1503  1.0455
 6098SOL    HW226232   4.247   3.255   6.089  0.8452  0.2851  0.1279
 6099SOL     OW26233   7.482   7.657   3.065 -0.3654  0.5758 -0.5659
 6099SOL    HW126234   7.447   7.745   3.030 -0.1483  1.0405  0.3803
 6099SOL    HW226235   7.411   7.587   3.054 -0.7358  0.9870 -0.8375
 6100SOL     OW26236   7.044   6.122   1.250  0.1806  0.3056  0.2206
 6100SOL    HW126237   6.952   6.161   1.257 -0.3841 -0.9597  0.0355
 6100SOL    HW226238   7.047   6.036   1.300  0.7850 -0.5295 -1.2365
 6101SOL     OW26239   8.863   4.766   5.498 -0.2440 -0.2859  0.2748
 6101SOL    HW126240   8.849   4.865   5.498 -0.7535 -0.3579  1.0538
 6101SOL    HW226241   8.798   4.724   5.435  0.4615 -0.0666 -0.6214
 6102SOL     OW26242   6.400   1.331   4.579  0.0027 -0.0401  0.0063
 6102SOL    HW126243   6.487   1.283   4.593  0.0044 -0.2797 -0.8093
 6102SOL    HW226244   6.418   1.422   4.541 -0.0304  0.4356  1.0985
 6103SOL     OW26245   4.362   8.157   0.495  0.4835 -1.0373 -0.2861
 6103SOL    HW126246   4.451   8.202   0.500  0.6263 -1.3850  0.4086
 6103SOL    HW226247   4.375   8.060   0.478  0.2601 -1.1627  0.2290
 6104SOL     OW26248   9.219   9.413   0.798  0.1910 -0.2216  0.2421
 6104SOL    HW126249   9.162   9.362   0.733 -0.1885  0.0234  0.3826
 6104SOL    HW226250   9.232   9.357   0.880 -0.7382  0.1453  0.6518
 6105SOL     OW26251   1.890   3.428   1.746  0.0699 -0.4579 -0.2659
 6105SOL    HW126252   1.914   3.342   1.701  0.4862  0.7914 -2.4904
 6105SOL    HW226253   1.961   3.496   1.728 -0.7177  0.6371  0.6959
 6106SOL     OW26254   5.899   0.833   0.630 -0.7067  0.3315  0.0308
 6106SOL    HW126255   5.891   0.743   0.673  0.7675 -0.1434 -0.6441
 6106SOL    HW226256   5.990   0.870   0.647 -2.6219  3.6526  3.9447
 6107SOL     OW26257   1.095   2.767   6.413 -0.3676 -0.0569 -0.3252
 6107SOL    HW126258   1.052   2.677   6.425 -0.4055  0.1536  1.1732
 6107SOL    HW226259   1.032   2.828   6.366 -1.2791 -0.1127  0.7979
 6108SOL     OW26260   0.523   6.012   1.950 -0.0119 -0.2205 -0.5814
 6108SOL    HW126261   0.572   6.057   2.025 -0.5696 -0.9751  0.2557
 6108SOL    HW226262   0.459   6.076   1.909  1.8112  0.8480 -1.8385
 6109SOL     OW26263   4.741   3.947   6.248 -0.2367 -0.3614 -0.2475
 6109SOL    HW126264   4.779   3.988   6.331 -1.9378  0.2030  0.2971
 6109SOL    HW226265   4.733   3.848   6.260  2.7373 -0.7373 -1.0870
 6111SOL     OW26266   1.012   0.119   0.730  0.0971 -0.0039  0.2569
 6111SOL    HW126267   1.032   0.197   0.670 -1.9131  1.3466  1.3093
 6111SOL    HW226268   1.088   0.106   0.793  1.2442 -0.0377 -1.0912
 6112SOL     OW26269   4.342   5.550   3.760  0.1416 -0.2648 -0.0299
 6112SOL    HW126270   4.276   5.625   3.750  0.5266  0.3040  1.5957
 6112SOL    HW226271   4.331   5.508   3.850 -0.8414 -2.9319 -1.3435
 6113SOL     OW26272   3.267   5.887   4.108 -0.0730  0.0267 -0.0858
 6113SOL    HW126273   3.280   5.792   4.081  0.6589  0.2982 -0.7023
 6113SOL    HW226274   3.193   5.928   4.054 -0.0366 -0.0413 -0.1873
 6114SOL     OW26275   3.031   0.333   1.983  0.0165  0.6655 -0.5463
 6114SOL    HW126276   3.050   0.333   2.081  0.5968 -0.0343 -0.6567
 6114SOL    HW226277   2.978   0.252   1.959  0.4963  0.4624 -0.9303
 6115SOL     OW26278   6.054   2.155   0.030 -0.5668  0.3662 -0.0859
 6115SOL    HW126279   6.086   2.246   0.056  0.0958  0.5874 -1.6361
 6115SOL    HW226280   6.079   2.136  -0.065 -0.6302 -1.4722  0.2408
 6118SOL     OW26281   1.454   4.849   3.895  0.1462 -0.1546 -0.0862
 6118SOL    HW126282   1.445   4.755   3.930 -1.7294  0.7812  2.0670
 6118SOL    HW226283   1.495   4.846   3.804 -0.0081 -3.0852 -0.1295
 6119SOL     OW26284   9.162   6.392   5.419 -0.7088  0.1425 -0.1087
 6119SOL    HW126285   9.115   6.348   5.342 -0.1923  1.5219 -1.2330
 6119SOL    HW226286   9.258   6.364   5.419 -1.0314 -1.0000  0.9175
 6120SOL     OW26287   0.920   2.306   3.979 -0.2341 -0.2255 -0.2120
 6120SOL    HW126288   0.983   2.380   3.958 -2.0195  1.9255  1.7257
 6120SOL    HW226289   0.959   2.247   4.050  0.2092  0.2432 -0.0698
 6121SOL     OW26290   4.473   7.554   3.208 -0.0677 -0.1049 -0.2949
 6121SOL    HW126291   4.422   7.638   3.188 -1.9975 -1.2476 -0.2497
 6121SOL    HW226292   4.490   7.505   3.122  2.4231  1.0730 -0.5115
 6122SOL     OW26293   5.888   9.380   7.003 -0.3031  0.0978  0.4407
 6122SOL    HW126294   5.970   9.327   6.982 -0.3725  0.6235 -1.2768
 6122SOL    HW226295   5.913   9.462   7.055  0.5943  1.4691 -2.0694
 6123SOL     OW26296   8.575   2.445   4.031 -0.3271 -0.2536 -0.3554
 6123SOL    HW126297   8.504   2.436   4.100 -1.9269 -0.4892 -1.9982
 6123SOL    HW226298   8.572   2.537   3.992  1.5092  0.3626  0.8378
 6125SOL     OW26299   5.300   8.792   4.878  0.3031 -0.1537  0.2091
 6125SOL    HW126300   5.363   8.789   4.800  0.1714  2.0196 -0.0177
 6125SOL    HW226301   5.348   8.824   4.959  0.5898 -3.0295  1.2209
 6126SOL     OW26302   8.707   3.770   0.852 -0.3790 -0.2331  0.2546
 6126SOL    HW126303   8.716   3.684   0.802  1.1083  0.8415 -1.3925
 6126SOL    HW226304   8.646   3.757   0.930 -1.1695 -2.4465 -0.6933
 6128SOL     OW26305   7.558   8.228   5.064 -0.0062 -0.1437 -0.2560
 6128SOL    HW126306   7.628   8.185   5.121 -0.6230 -0.4219  0.3041
 6128SOL    HW226307   7.513   8.159   5.007 -1.2543 -0.3316  0.9162
 6129SOL     OW26308   0.579   1.080   0.354 -0.3698  0.2342 -0.0313
 6129SOL    HW126309   0.484   1.093   0.382  0.0419  2.0572  0.5775
 6129SOL    HW226310   0.622   1.169   0.339  1.2944 -0.5679 -0.1437
 6130SOL     OW26311   3.382   2.366   3.976 -0.1765 -0.5018 -0.2561
 6130SOL    HW126312   3.353   2.404   3.888 -1.6993 -0.0282  0.4392
 6130SOL    HW226313   3.307   2.372   4.041  0.9532 -0.8188  1.0944
 6131SOL     OW26314   5.891   1.592   6.888 -0.7539  0.3205 -0.2985
 6131SOL    HW126315   5.827   1.669   6.879 -0.1958  0.6532 -1.5425
 6131SOL    HW226316   5.952   1.591   6.809 -0.7450 -1.3924 -0.2779
 6133SOL     OW26317   4.142   9.219   1.871 -0.0919 -0.1125  0.3270
 6133SOL    HW126318   4.067   9.202   1.935  0.0511 -0.3168  0.4407
 6133SOL    HW226319   4.168   9.316   1.876 -0.8431  0.1277 -0.2533
 6134SOL     OW26320   1.920   2.044   3.139 -0.2729  0.0650 -0.3048
 6134SOL    HW126321   1.954   1.956   3.105  0.2379 -0.4871  1.5924
 6134SOL    HW226322   1.832   2.064   3.097  0.0951 -0.8427 -1.5447
 6137SOL     OW26323   7.232   4.863   7.828  0.2551 -0.8986 -0.6096
 6137SOL    HW126324   7.228   4.798   7.903 -0.1803  0.4182  0.5281
 6137SOL    HW226325   7.298   4.935   7.850 -0.7192  0.1243 -0.9761
 6138SOL     OW26326   8.130   7.857   2.745 -0.0365 -0.9755 -0.1067
 6138SOL    HW126327   8.071   7.879   2.668 -1.7844 -2.9422  0.6193
 6138SOL    HW226328   8.170   7.766   2.731 -0.2597 -1.2924  1.2471
 6139SOL     OW26329   3.433   0.904   6.291  0.1249 -0.1424 -0.1085
 6139SOL    HW126330   3.531   0.890   6.276 -0.1066 -1.4022 -0.5362
 6139SOL    HW226331   3.412   0.886   6.387  0.1037 -1.2371 -0.3040
 6140SOL     OW26332   8.314   8.763   4.446 -0.0706  0.0555 -0.4020
 6140SOL    HW126333   8.337   8.851   4.488 -1.9376  0.4327 -0.1424
 6140SOL    HW226334   8.361   8.755   4.358  1.3153  0.6372  0.2603
 6141SOL     OW26335   3.750   8.543   2.995  0.4148  0.1132 -0.6941
 6141SOL    HW126336   3.715   8.554   2.902  2.0830  0.6207 -1.2757
 6141SOL    HW226337   3.812   8.619   3.016  2.8671 -1.9164 -0.4595
 6143SOL     OW26338   3.093   8.603   2.848  0.6703 -0.0641  0.1512
 6143SOL    HW126339   3.002   8.639   2.867  0.0730 -1.2966 -0.3119
 6143SOL    HW226340   3.089   8.546   2.766  1.7361 -0.6331  0.4984
 6144SOL     OW26341   8.193   3.217   1.865  0.2578  0.1457  0.0655
 6144SOL    HW126342   8.114   3.278   1.870  0.3623  0.2766  0.1302
 6144SOL    HW226343   8.169   3.135   1.811 -0.2051 -0.2468  0.8558
 6146SOL     OW26344   2.807   0.348   6.007  0.0630 -0.2355 -0.3722
 6146SOL    HW126345   2.805   0.447   6.021  0.6602 -0.5313  1.9903
 6146SOL    HW226346   2.755   0.325   5.925 -0.9153  1.9397 -0.3882
 6147SOL     OW26347   0.436   9.079   1.113 -0.1011  0.1859  0.3011
 6147SOL    HW126348   0.503   9.079   1.187 -0.4040  0.3431  0.5778
 6147SOL    HW226349   0.393   9.169   1.107 -0.9226 -0.1732  0.7063
 6148SOL     OW26350   2.927   0.945   4.974  0.2377 -0.2374  0.5253
 6148SOL    HW126351   2.883   1.025   4.934 -0.7379  0.3152  2.6321
 6148SOL    HW226352   2.858   0.880   5.004  1.0545 -2.7330 -2.7791
 6150SOL     OW26353   8.524   9.991   7.004  0.1333  0.3861 -0.2350
 6150SOL    HW126354   8.562   9.969   6.914  1.6942 -0.4399  0.6070
 6150SOL    HW226355   8.424   9.993   6.999  0.1364 -1.7110 -1.5134
 6152SOL     OW26356   1.568   0.430   2.913 -0.0426 -0.0529 -0.5902
 6152SOL    HW126357   1.550   0.503   2.979 -1.4991  0.7919 -1.8968
 6152SOL    HW226358   1.666   0.423   2.896  0.2051  0.7810  0.4532
 6153SOL     OW26359   7.544   7.206   2.989 -0.4954  0.5127 -0.3642
 6153SOL    HW126360   7.603   7.283   3.013 -0.1786  0.6384 -1.5347
 6153SOL    HW226361   7.586   7.121   3.021 -1.4607  0.8968  2.0969
 6154SOL     OW26362   9.460   2.847   2.854 -0.2691  0.5380 -0.1069
 6154SOL    HW126363   9.391   2.907   2.814 -2.4574 -1.9224 -0.1903
 6154SOL    HW226364   9.452   2.848   2.954 -0.9146 -0.2635 -0.1427
 6155SOL     OW26365   6.400   9.941   6.027 -0.2003  0.2553 -0.3554
 6155SOL    HW126366   6.492   9.902   6.031 -0.2059  0.3509  1.3922
 6155SOL    HW226367   6.399  10.028   6.078 -1.6678 -0.6581  1.2160
 6157SOL     OW26368   3.482   2.796   2.862 -0.0785 -0.1350 -0.7307
 6157SOL    HW126369   3.553   2.801   2.792  0.9683 -0.4984  0.2686
 6157SOL    HW226370   3.447   2.703   2.867  1.0931 -0.5333  0.3978
 6158SOL     OW26371   0.977   5.041   2.342  0.1077 -0.7113  0.5888
 6158SOL    HW126372   0.890   4.997   2.367 -0.5378 -0.5111 -1.2668
 6158SOL    HW226373   0.969   5.140   2.355 -0.3970 -0.5544 -0.8523
 6160SOL     OW26374   7.077   1.577   2.403  0.4246  0.7113  0.5423
 6160SOL    HW126375   7.038   1.567   2.312 -1.5645  0.4024  1.4084
 6160SOL    HW226376   7.113   1.490   2.435 -1.4260  0.1452  1.1618
 6161SOL     OW26377   0.561   0.778   5.914  0.2967 -0.2971  0.1328
 6161SOL    HW126378   0.573   0.764   5.815 -0.4082 -0.4985  0.0741
 6161SOL    HW226379   0.593   0.870   5.938  0.8060 -0.3750 -0.2197
 6162SOL     OW26380   1.897   0.494   1.535 -0.4942  0.4996 -0.0877
 6162SOL    HW126381   1.938   0.442   1.460  0.0988  0.3393  0.3426
 6162SOL    HW226382   1.964   0.559   1.572 -0.7800  0.5720  0.3132
 6163SOL     OW26383   0.265   7.580   4.913  0.1272  0.2502 -0.3775
 6163SOL    HW126384   0.348   7.633   4.896 -1.1051  1.2417 -3.6702
 6163SOL    HW226385   0.288   7.483   4.914  1.5212  0.5698  0.0018
 6164SOL     OW26386   7.781   7.027   5.894  0.6289 -0.5691  0.5196
 6164SOL    HW126387   7.871   7.051   5.860 -0.6249  0.3330 -2.3438
 6164SOL    HW226388   7.737   6.963   5.831 -2.5988  2.7444 -0.8056
 6166SOL     OW26389   7.577   5.505   1.848  0.8302 -0.1301 -0.1411
 6166SOL    HW126390   7.656   5.532   1.793 -0.2578 -1.5119 -2.4555
 6166SOL    HW226391   7.588   5.410   1.878  1.3713  0.5791  2.0205
 6167SOL     OW26392   3.522   8.389   7.237  0.0778  0.1002  0.2406
 6167SOL    HW126393   3.555   8.371   7.329  1.4715 -0.8180 -0.4154
 6167SOL    HW226394   3.600   8.393   7.174 -0.8739  0.4777 -0.9351
 6168SOL     OW26395   8.950   2.196   2.661 -0.0087 -0.3345 -0.2023
 6168SOL    HW126396   8.850   2.197   2.650  0.1033 -0.3130 -1.2726
 6168SOL    HW226397   8.990   2.274   2.613  0.4047  0.5804  1.5845
 6169SOL     OW26398   5.227   7.753   6.311 -0.0672 -0.1287 -0.0842
 6169SOL    HW126399   5.160   7.708   6.370 -0.2331 -0.1075 -0.2565
 6169SOL    HW226400   5.319   7.733   6.344 -0.1740  0.3215  0.4983
 6170SOL     OW26401   0.239   2.990   2.984  0.1516  0.1051 -0.1158
 6170SOL    HW126402   0.173   2.954   2.918  0.1152  1.5616 -0.9088
 6170SOL    HW226403   0.326   3.008   2.938  0.1462  1.0709  0.2252
 6171SOL     OW26404   4.523   1.178   7.495  0.5562 -0.0231 -0.0866
 6171SOL    HW126405   4.524   1.249   7.565 -1.0150 -0.4791  0.4056
 6171SOL    HW226406   4.565   1.094   7.531 -1.0290 -0.5262  0.6035
 6172SOL     OW26407   8.585   4.538   7.431  0.7658  0.1645  0.2983
 6172SOL    HW126408   8.559   4.462   7.490 -0.3790 -0.8915 -1.5327
 6172SOL    HW226409   8.503   4.579   7.391  1.5339  0.7389 -0.7080
 6173SOL     OW26410   2.586   1.799   3.574  0.2522  1.4698 -0.0316
 6173SOL    HW126411   2.617   1.708   3.601 -1.1234  0.5205 -1.5184
 6173SOL    HW226412   2.658   1.847   3.524  1.5307  1.8285  2.1189
 6175SOL     OW26413   0.600   9.296   5.227  0.1181  0.2880 -0.8888
 6175SOL    HW126414   0.653   9.366   5.178 -0.0429  0.9074 -0.1895
 6175SOL    HW226415   0.525   9.264   5.169 -0.4004  1.4132 -0.8431
 6176SOL     OW26416   0.426   6.100   2.810 -0.6932  0.5022 -0.2872
 6176SOL    HW126417   0.451   6.014   2.767  0.1773  0.7839 -0.3553
 6176SOL    HW226418   0.395   6.164   2.740 -0.0329  0.6977 -0.4035
 6177SOL     OW26419   8.046   2.915   1.432  0.0197  0.3818 -0.1594
 6177SOL    HW126420   8.125   2.859   1.409 -1.8260 -2.6186  0.4023
 6177SOL    HW226421   7.985   2.922   1.352 -0.1039  0.9862 -0.0154
 6178SOL     OW26422   0.761   6.187   1.797 -0.4338 -0.4485  0.0063
 6178SOL    HW126423   0.665   6.158   1.806 -0.1163 -1.2764  0.9122
 6178SOL    HW226424   0.782   6.203   1.701 -1.7986  0.8468 -0.0949
 6179SOL     OW26425   9.281   1.595   6.825 -0.1881  0.3274 -0.0897
 6179SOL    HW126426   9.361   1.653   6.812 -0.7972  1.0142 -0.8236
 6179SOL    HW226427   9.274   1.529   6.750 -0.2168  0.1517  0.0643
 6180SOL     OW26428   6.190   9.733   2.020  0.1118 -0.0764  0.4099
 6180SOL    HW126429   6.218   9.717   2.115 -0.8253 -0.7444  0.5737
 6180SOL    HW226430   6.182   9.646   1.972 -0.4126  0.1964 -0.0028
 6182SOL     OW26431   5.764   0.136   2.361 -0.3362 -0.3379  0.2144
 6182SOL    HW126432   5.808   0.100   2.444 -1.4910 -1.2436  0.4561
 6182SOL    HW226433   5.831   0.142   2.288 -0.0330 -2.8633  0.2220
 6183SOL     OW26434   0.159   1.900   1.325  0.4953  0.7242 -0.3447
 6183SOL    HW126435   0.155   1.901   1.225 -0.6150  2.1568 -0.3055
 6183SOL    HW226436   0.193   1.812   1.356  1.3037  0.4351 -2.0027
 6184SOL     OW26437   8.036   3.815   2.808 -0.0174  0.8841 -0.2924
 6184SOL    HW126438   7.944   3.849   2.786 -0.2949  0.9442  0.9110
 6184SOL    HW226439   8.047   3.724   2.769 -1.3314  0.0491  1.1926
 6185SOL     OW26440   0.862   8.224   0.784 -0.5531  0.2717 -0.3932
 6185SOL    HW126441   0.960   8.243   0.776 -0.4963 -0.7189 -2.5029
 6185SOL    HW226442   0.836   8.223   0.880  1.6405 -0.0939  0.2252
 6186SOL     OW26443   8.492   0.467   4.888  0.4904  0.5508  0.0050
 6186SOL    HW126444   8.494   0.542   4.822 -2.1402  0.6812  0.0400
 6186SOL    HW226445   8.495   0.380   4.840 -2.2933  0.6337 -0.3719
 6187SOL     OW26446   8.972   2.173   6.918  0.2727 -0.0586 -0.1372
 6187SOL    HW126447   8.953   2.195   7.014 -1.1294  0.6519 -0.5567
 6187SOL    HW226448   8.962   2.256   6.863 -2.3039 -1.1650 -1.3785
 6188SOL     OW26449   0.601   1.333   3.607 -0.0277 -0.3178  0.7855
 6188SOL    HW126450   0.529   1.395   3.634  0.6970  0.0334  1.9394
 6188SOL    HW226451   0.604   1.255   3.670 -0.0675 -0.8609  0.1323
 6189SOL     OW26452   3.017   6.871   2.468  0.2220  0.1045  0.6253
 6189SOL    HW126453   3.094   6.816   2.500 -1.0116 -1.9864  0.1323
 6189SOL    HW226454   3.043   6.921   2.385  1.6673  1.0323  1.6374
 6190SOL     OW26455   3.663   4.826   2.606 -0.0187 -0.4663  0.1302
 6190SOL    HW126456   3.719   4.895   2.653  1.3125  1.4265 -4.0720
 6190SOL    HW226457   3.579   4.868   2.573 -0.5643 -1.5944  0.0616
 6192SOL     OW26458   5.659   1.887   1.874  0.1484  0.1553 -0.2746
 6192SOL    HW126459   5.702   1.801   1.900  1.6854  1.2804  1.0017
 6192SOL    HW226460   5.609   1.875   1.788  0.8686 -1.8345 -0.4282
 6193SOL     OW26461   9.037   0.101   3.542  0.3866 -0.1002 -0.1520
 6193SOL    HW126462   8.986   0.114   3.456  0.1831  2.4728  0.3134
 6193SOL    HW226463   9.089   0.016   3.537 -0.0291 -0.2579 -2.6236
 6194SOL     OW26464   9.006   3.105   1.113 -0.4613  0.0153  0.4125
 6194SOL    HW126465   8.930   3.149   1.065 -0.9795  0.2701  1.4614
 6194SOL    HW226466   9.087   3.164   1.107 -0.4721 -0.0266 -0.2706
 6196SOL     OW26467   8.799   3.840   3.743  0.2743 -0.0494  0.4304
 6196SOL    HW126468   8.725   3.865   3.681 -0.1263  0.5238  1.1305
 6196SOL    HW226469   8.761   3.821   3.834  0.7485 -1.7110  0.2945
 6197SOL     OW26470   9.995   9.593   4.172  0.0291  0.2474 -0.0053
 6197SOL    HW126471  10.000   9.529   4.248 -1.4173  0.6434  0.4452
 6197SOL    HW226472   9.952   9.678   4.202 -1.9969 -0.1600 -1.6042
 6198SOL     OW26473   4.748   3.227   0.011 -0.7248  0.3603  0.1322
 6198SOL    HW126474   4.799   3.144  -0.012  0.7591  1.3588 -0.2548
 6198SOL    HW226475   4.731   3.230   0.109 -1.4560 -0.7691  0.0440
 6199SOL     OW26476   3.074   7.223   3.533 -0.9810 -0.3843 -0.2072
 6199SOL    HW126477   3.023   7.153   3.583 -0.2241 -0.7086  0.1089
 6199SOL    HW226478   3.161   7.185   3.501 -0.8273  0.2396 -0.5480
 6200SOL     OW26479   0.950   7.674   2.790  0.5705 -0.2141  0.4755
 6200SOL    HW126480   0.953   7.584   2.746 -1.2113  0.1392 -0.4016
 6200SOL    HW226481   0.935   7.662   2.888  3.4420 -0.9616  0.8831
 6201SOL     OW26482   0.195   1.173   0.710 -0.2493 -0.1734  0.4476
 6201SOL    HW126483   0.206   1.078   0.739  0.0903 -0.6355 -1.1388
 6201SOL    HW226484   0.099   1.190   0.686 -0.3304 -0.0859  0.8353
 6202SOL     OW26485   3.082   2.706   4.839 -0.1322  0.5088 -0.8011
 6202SOL    HW126486   3.149   2.730   4.909  0.2682 -0.8138 -0.7125
 6202SOL    HW226487   2.993   2.691   4.882 -0.0835  0.5508 -0.6848
 6203SOL     OW26488   4.071   2.154   6.532 -0.6813 -0.5798  0.1492
 6203SOL    HW126489   3.998   2.104   6.485  0.3056 -0.1304 -1.9143
 6203SOL    HW226490   4.033   2.237   6.573 -1.2159  0.0638 -1.5913
 6204SOL     OW26491   4.974   2.101   5.239 -0.2590 -0.4735 -0.0040
 6204SOL    HW126492   5.005   2.066   5.151  0.9282 -2.1759  1.0489
 6204SOL    HW226493   4.960   2.200   5.233  1.4109 -0.3057 -1.6523
 6205SOL     OW26494   0.925   0.062   1.130 -0.1151 -0.0369 -0.1008
 6205SOL    HW126495   0.953  -0.011   1.192 -2.2329  0.6401  1.7293
 6205SOL    HW226496   0.967   0.148   1.159  1.1998 -0.2239 -1.3771
 6206SOL     OW26497   8.726   8.070   6.718 -0.5122 -0.2864  0.6608
 6206SOL    HW126498   8.778   8.146   6.680 -1.5629 -0.1958 -0.6421
 6206SOL    HW226499   8.697   8.009   6.645 -3.6123  0.5350  1.1149
 6207SOL     OW26500   6.656   3.076   1.599 -0.4235 -0.4262  0.3451
 6207SOL    HW126501   6.616   3.153   1.647  1.2393  1.0635 -0.6236
 6207SOL    HW226502   6.633   3.082   1.501  3.2027  1.2294 -0.4901
 6208SOL     OW26503   3.768   5.163   4.589  0.2739 -0.4911 -0.1988
 6208SOL    HW126504   3.821   5.166   4.504  1.2865 -1.5642  0.3650
 6208SOL    HW226505   3.791   5.079   4.639 -1.9573 -0.9449  0.0859
 6209SOL     OW26506   1.782   5.370   0.243  0.4030 -0.4160 -0.4696
 6209SOL    HW126507   1.823   5.462   0.245  0.3269 -0.3788 -0.5993
 6209SOL    HW226508   1.691   5.375   0.201 -0.0775 -0.3618  0.5828
 6210SOL     OW26509   1.744   0.612   4.388 -0.3125  0.3504 -0.0794
 6210SOL    HW126510   1.827   0.565   4.354 -0.4899 -0.6947  0.9011
 6210SOL    HW226511   1.680   0.624   4.312  0.9605  1.6539 -0.9588
 6211SOL     OW26512   9.297   7.851   7.841 -0.4612  0.1192 -0.1643
 6211SOL    HW126513   9.208   7.815   7.811  0.2068  0.0569 -2.1339
 6211SOL    HW226514   9.317   7.936   7.794 -0.3966  1.2565  1.8400
 6212SOL     OW26515   6.038   0.770   1.833  0.0894  0.1709 -0.0149
 6212SOL    HW126516   6.110   0.703   1.814 -0.1244 -0.4640  1.2925
 6212SOL    HW226517   5.949   0.725   1.827 -0.2312  1.0081 -1.8607
 6213SOL     OW26518   7.620   3.116   5.078  0.3750  0.2190  0.0849
 6213SOL    HW126519   7.688   3.159   5.137  0.6969 -0.1614 -0.0119
 6213SOL    HW226520   7.532   3.112   5.127  0.1036  1.8380 -0.2598
 6215SOL     OW26521   9.928   3.096   1.061 -0.1564 -0.2300  1.0012
 6215SOL    HW126522   9.893   3.187   1.084 -0.5503 -0.2031  0.3065
 6215SOL    HW226523   9.918   3.035   1.139 -0.3892  0.1784  1.2890
 6218SOL     OW26524   1.891   5.120   4.110 -0.5388 -0.2691  0.2961
 6218SOL    HW126525   1.976   5.168   4.086 -0.9821  0.8069  0.8761
 6218SOL    HW226526   1.857   5.072   4.029  0.2684 -0.1809 -0.1069
 6219SOL     OW26527   0.520   4.164   4.099 -0.1480 -0.1423  0.3015
 6219SOL    HW126528   0.421   4.154   4.097 -0.2536  1.0367 -2.5244
 6219SOL    HW226529   0.563   4.085   4.055  0.2416 -0.9916  2.1378
 6220SOL     OW26530   7.728   7.990   6.517 -0.3858  0.3821 -0.8406
 6220SOL    HW126531   7.811   8.044   6.504  1.3351 -2.2155 -0.9789
 6220SOL    HW226532   7.715   7.928   6.440 -0.8401 -1.3023  0.5551
 6221SOL     OW26533   4.914   9.941   6.993 -0.0567  0.4704  0.2521
 6221SOL    HW126534   4.914   9.867   7.060  1.8950  2.4317  2.5303
 6221SOL    HW226535   4.833   9.999   7.007 -0.3084  0.1601  0.0776
 6222SOL     OW26536   4.338   6.039   4.433 -0.5256  0.4278  0.5850
 6222SOL    HW126537   4.250   6.026   4.387 -0.6704 -1.4979  1.3743
 6222SOL    HW226538   4.349   6.136   4.456 -1.4788  1.0359 -1.4038
 6223SOL     OW26539   9.353   7.299   2.295  0.0768 -0.0954 -0.1279
 6223SOL    HW126540   9.451   7.315   2.289  0.1142 -0.4610 -0.4744
 6223SOL    HW226541   9.334   7.235   2.370 -0.0061  0.9224  0.7286
 6224SOL     OW26542   8.487   8.807   5.101 -0.4905  0.1113  0.3542
 6224SOL    HW126543   8.397   8.824   5.143 -0.1015  1.2993  0.7177
 6224SOL    HW226544   8.546   8.761   5.167 -0.5851  0.0176  0.3736
 6225SOL     OW26545   1.924   7.113   4.484 -0.1784 -0.0449  0.1383
 6225SOL    HW126546   1.866   7.091   4.562 -0.8413  0.9788 -0.0484
 6225SOL    HW226547   1.965   7.029   4.447  0.4403 -0.4964  1.7990
 6226SOL     OW26548   2.749   3.544   6.842 -0.0690 -0.2084 -0.0764
 6226SOL    HW126549   2.681   3.569   6.773 -0.0252 -0.1475 -0.0976
 6226SOL    HW226550   2.751   3.614   6.913  0.6460  0.2711 -0.5619
 6227SOL     OW26551   1.217   0.615   6.872 -0.0315  0.5662 -0.3407
 6227SOL    HW126552   1.136   0.558   6.854  1.1480 -1.1999 -0.1355
 6227SOL    HW226553   1.224   0.685   6.801 -0.0906 -1.1354 -2.0713
 6228SOL     OW26554   2.908   3.949   3.062 -0.1051 -0.2926 -0.3624
 6228SOL    HW126555   2.853   3.943   3.146 -0.3369  1.1997 -0.3928
 6228SOL    HW226556   2.850   3.977   2.986  0.6559  1.1560 -0.4257
 6229SOL     OW26557   1.269   0.424   6.006  0.0916  0.1881  0.4076
 6229SOL    HW126558   1.324   0.504   5.981  0.6484  0.2629  1.8274
 6229SOL    HW226559   1.277   0.407   6.104 -0.8526 -0.9952  0.2951
 6231SOL     OW26560   8.193   0.005   2.168 -0.5119  0.0188  0.6651
 6231SOL    HW126561   8.174   0.085   2.112  0.7647  1.3080  2.0292
 6231SOL    HW226562   8.107  -0.043   2.189 -1.2117  0.6988 -0.6246
 6232SOL     OW26563   9.724   0.963   2.820 -0.6203  0.1920 -0.2177
 6232SOL    HW126564   9.801   0.996   2.874 -0.7456  0.9296 -0.4846
 6232SOL    HW226565   9.758   0.923   2.734 -0.4315 -0.8436  0.3385
 6233SOL     OW26566   7.379   6.322   3.482 -0.3206  0.0293  0.3011
 6233SOL    HW126567   7.436   6.351   3.405 -1.8681 -1.5904 -1.4891
 6233SOL    HW226568   7.381   6.223   3.490  0.0328  0.1719  2.5747
 6234SOL     OW26569   1.952   4.994   4.616  0.5088  0.8089  0.6241
 6234SOL    HW126570   2.050   4.993   4.597  1.0658  1.4529  3.2722
 6234SOL    HW226571   1.903   5.022   4.534  2.4278 -0.8682 -1.1306
 6235SOL     OW26572   4.735   4.734   7.241 -0.2692 -0.1477 -0.0383
 6235SOL    HW126573   4.752   4.644   7.201  2.0852  0.7184 -1.1419
 6235SOL    HW226574   4.815   4.762   7.295 -0.7523  1.4606 -0.1170
 6236SOL     OW26575   4.577   3.471   6.091 -0.7625  0.0647 -0.3393
 6236SOL    HW126576   4.573   3.468   5.991  0.5191 -1.6015 -0.3661
 6236SOL    HW226577   4.609   3.383   6.126  2.1159  1.6924  1.3492
 6239SOL     OW26578   3.766   0.196   2.772 -0.4118 -0.0328  0.2023
 6239SOL    HW126579   3.774   0.257   2.851  0.7450 -0.9541  0.8030
 6239SOL    HW226580   3.669   0.182   2.751 -0.7412  0.0706  1.5779
 6240SOL     OW26581   0.901   6.618   7.222 -0.2513  0.3542  0.0199
 6240SOL    HW126582   0.891   6.683   7.147  0.5045  0.4887  0.0357
 6240SOL    HW226583   0.935   6.531   7.187 -3.2845 -0.7618 -0.3393
 6242SOL     OW26584   6.133   9.920   3.046  0.1477 -0.3716 -0.5648
 6242SOL    HW126585   6.154   9.889   2.953 -1.4985 -1.2674 -0.6574
 6242SOL    HW226586   6.036   9.944   3.052 -0.2959 -2.4378  1.4635
 6244SOL     OW26587   3.943   6.506   4.694 -0.3931 -0.4250 -0.0535
 6244SOL    HW126588   4.042   6.511   4.707 -0.3110 -1.4622 -0.2199
 6244SOL    HW226589   3.913   6.580   4.634  0.9932 -2.9682 -4.0380
 6246SOL     OW26590   7.399   9.904   3.675 -0.2580 -0.0740  0.0489
 6246SOL    HW126591   7.392   9.807   3.650 -0.4517  0.1002 -0.5969
 6246SOL    HW226592   7.479   9.918   3.732 -0.4290 -0.6791  0.4428
 6247SOL     OW26593   4.055   1.083   4.823 -0.0819 -0.2763 -0.1211
 6247SOL    HW126594   4.001   1.106   4.903 -1.2135  1.4650 -1.3408
 6247SOL    HW226595   3.994   1.059   4.747  0.9066 -0.3832 -0.9050
 6248SOL     OW26596   8.272   7.151   4.550 -0.1755 -0.1328  0.3646
 6248SOL    HW126597   8.175   7.130   4.535  0.0063 -0.4221 -0.4540
 6248SOL    HW226598   8.327   7.097   4.487  0.4338  1.2105 -0.2767
 6249SOL     OW26599   8.747   5.095   4.787 -0.0318  0.1494 -0.1062
 6249SOL    HW126600   8.816   5.028   4.816 -1.4326 -0.8284  1.0715
 6249SOL    HW226601   8.715   5.146   4.867 -0.6379  0.6230 -0.6482
 6250SOL     OW26602   5.271   9.041   6.333  0.2432 -0.4640  0.1933
 6250SOL    HW126603   5.176   9.031   6.304 -0.0659 -1.0195  1.3731
 6250SOL    HW226604   5.323   9.086   6.260 -0.6930 -1.0677 -0.8702
 6252SOL     OW26605   0.743   0.939   0.195 -0.6405 -0.3784 -0.0997
 6252SOL    HW126606   0.670   0.988   0.243 -1.7744 -2.4971  0.4209
 6252SOL    HW226607   0.812   0.910   0.261  0.3491  1.0177 -0.4959
 6253SOL     OW26608   1.731   3.897   2.504  0.1165 -0.4959 -0.3043
 6253SOL    HW126609   1.642   3.902   2.459  0.3092 -0.3866 -0.6750
 6253SOL    HW226610   1.785   3.978   2.481 -0.1025 -0.0293  0.8043
 6254SOL     OW26611   2.811   7.208   0.381  0.4412  0.3842  0.3847
 6254SOL    HW126612   2.827   7.187   0.477  0.3434 -4.8623 -0.6117
 6254SOL    HW226613   2.712   7.205   0.363  0.3843  2.2726  0.2333
 6256SOL     OW26614   3.722   2.922   1.901 -0.6332  0.2532 -0.0679
 6256SOL    HW126615   3.683   3.011   1.926 -0.7198  0.5379 -1.1772
 6256SOL    HW226616   3.648   2.861   1.874 -0.5634 -0.1303  0.6060
 6258SOL     OW26617   2.467   7.198   5.957 -0.6990  0.3362 -0.0047
 6258SOL    HW126618   2.396   7.267   5.943 -2.5482 -1.6049 -0.4122
 6258SOL    HW226619   2.475   7.142   5.875  1.0547  0.2805  0.1960
 6259SOL     OW26620   9.617   8.097   1.999  0.4468  0.2919 -0.3415
 6259SOL    HW126621   9.708   8.066   1.973  1.4719  1.9262  1.1149
 6259SOL    HW226622   9.625   8.166   2.071 -2.0317 -0.8263  1.0850
 6260SOL     OW26623   4.778   1.921   1.191  0.4987 -0.0393  0.3326
 6260SOL    HW126624   4.692   1.892   1.148 -0.3393 -1.0531  2.5792
 6260SOL    HW226625   4.791   2.019   1.176  0.2223 -0.3566 -2.1470
 6261SOL     OW26626   1.917   7.220   6.843  0.0543  0.0937  0.6024
 6261SOL    HW126627   1.927   7.174   6.755  0.1064  2.7261 -0.8108
 6261SOL    HW226628   1.821   7.245   6.857  0.4465  1.8833  0.1447
 6263SOL     OW26629   0.018   3.622   0.736 -0.0868  0.2789 -0.6299
 6263SOL    HW126630  -0.047   3.689   0.701 -0.1646  0.9938  0.8920
 6263SOL    HW226631  -0.031   3.542   0.770  0.0097 -0.6140 -2.5178
 6264SOL     OW26632   7.865   8.779   6.934  0.9512 -0.6247 -0.1211
 6264SOL    HW126633   7.875   8.689   6.891  2.9816 -0.2423 -0.5153
 6264SOL    HW226634   7.871   8.769   7.033 -1.6022 -1.2446  0.0019
 6265SOL     OW26635   6.096   0.984   5.886 -0.0547 -0.3899  0.1959
 6265SOL    HW126636   6.049   1.047   5.949  1.0008  0.3182  0.2830
 6265SOL    HW226637   6.029   0.923   5.845 -0.8908 -0.2357  1.2955
 6266SOL     OW26638   8.649   3.996   4.038  0.0376 -0.0598 -0.2103
 6266SOL    HW126639   8.631   3.987   3.940  0.5455  0.1934 -0.3283
 6266SOL    HW226640   8.734   3.947   4.061 -1.2966 -2.1176  0.5198
 6267SOL     OW26641   3.465   5.508   3.332 -0.0674  0.1036 -0.0836
 6267SOL    HW126642   3.506   5.519   3.242  0.3057  0.1656  0.0897
 6267SOL    HW226643   3.383   5.451   3.325  0.2037 -0.2557 -0.4009
 6270SOL     OW26644   3.722   9.014   2.237 -0.4954 -0.0575  0.6184
 6270SOL    HW126645   3.702   9.011   2.335 -1.0031 -1.0092  0.4923
 6270SOL    HW226646   3.638   8.997   2.186 -0.3802  1.2007  0.0017
 6271SOL     OW26647   5.829   7.799   2.972  0.6423  0.5103 -0.3217
 6271SOL    HW126648   5.732   7.786   2.991  1.1913 -1.1591  1.5137
 6271SOL    HW226649   5.861   7.883   3.017  0.2904  0.4443  0.0554
 6272SOL     OW26650   8.381   7.568   5.041  0.0971 -0.7875 -0.1512
 6272SOL    HW126651   8.287   7.552   5.068 -0.3445 -0.9185 -1.6995
 6272SOL    HW226652   8.412   7.656   5.077 -1.4938  0.5031 -1.8423
 6273SOL     OW26653   8.144   7.849   0.990  0.3513  0.2548 -0.2482
 6273SOL    HW126654   8.198   7.914   1.044  0.5996  0.6647 -0.9929
 6273SOL    HW226655   8.100   7.896   0.915 -3.6029  0.5409  2.1321
 6274SOL     OW26656   9.337   4.604   4.064 -0.0907  0.1969 -0.1156
 6274SOL    HW126657   9.402   4.677   4.044 -0.8256  0.3941 -1.8949
 6274SOL    HW226658   9.306   4.562   3.978 -2.2783  0.1023  0.6689
 6275SOL     OW26659   9.100   6.330   2.329  0.4914  0.1153  0.3047
 6275SOL    HW126660   9.031   6.320   2.401  0.0862 -1.4690 -0.2841
 6275SOL    HW226661   9.183   6.369   2.369 -0.1031  0.2652  1.4161
 6276SOL     OW26662   4.457   5.659   3.528 -0.2242 -0.2672 -0.0423
 6276SOL    HW126663   4.413   5.615   3.606  1.3366  1.5640  1.9285
 6276SOL    HW226664   4.535   5.603   3.498 -1.4084 -1.4617 -0.9432
 6277SOL     OW26665   7.082   6.052   2.219  0.4179 -0.4135  0.3477
 6277SOL    HW126666   7.062   6.105   2.302 -2.4420 -2.4522  1.0259
 6277SOL    HW226667   7.029   6.089   2.143  0.6103 -0.5329  0.1574
 6278SOL     OW26668   6.166   1.527   2.140 -0.1149 -0.0798 -0.2484
 6278SOL    HW126669   6.215   1.469   2.205  1.2407  0.0268 -1.1517
 6278SOL    HW226670   6.095   1.578   2.188  1.8518  1.1476  1.4683
 6279SOL     OW26671   3.670   8.887   3.632 -0.2094  0.0185  0.3101
 6279SOL    HW126672   3.769   8.884   3.648 -0.2409  0.1070  0.5174
 6279SOL    HW226673   3.624   8.821   3.691 -0.1718 -0.7925 -0.5631
 6281SOL     OW26674   3.224   8.156   0.264  0.4626  0.2428  0.9542
 6281SOL    HW126675   3.230   8.217   0.343 -0.9768 -0.1639  1.3980
 6281SOL    HW226676   3.194   8.065   0.295 -0.0341  0.0606 -0.0636
 6282SOL     OW26677   3.036   6.352   7.921 -0.4246  0.2412 -0.1642
 6282SOL    HW126678   3.091   6.402   7.987 -0.3847  1.8135 -1.3515
 6282SOL    HW226679   2.940   6.378   7.931 -0.4272  0.4413 -0.6671
 6283SOL     OW26680   5.219   6.477   0.118  0.6183  0.6565 -0.3300
 6283SOL    HW126681   5.294   6.485   0.185 -0.1582  0.5155  0.5711
 6283SOL    HW226682   5.208   6.382   0.092  1.4833  0.8222 -1.3186
 6284SOL     OW26683   1.560   1.552   3.053  0.3515  0.4588 -0.2741
 6284SOL    HW126684   1.658   1.546   3.073  0.2451 -0.2968  0.0514
 6284SOL    HW226685   1.546   1.606   2.971  1.0840  0.1708 -0.5917
 6286SOL     OW26686   4.015   5.277   3.712  0.4411  0.4380 -0.6051
 6286SOL    HW126687   3.954   5.219   3.657  1.2929 -0.0893 -1.0147
 6286SOL    HW226688   4.034   5.231   3.799  0.2022  0.6365 -0.4463
 6287SOL     OW26689   9.960   6.144   2.425 -0.3392  0.1823  0.1175
 6287SOL    HW126690   9.895   6.220   2.420 -1.9090 -1.1344  0.1538
 6287SOL    HW226691   9.997   6.138   2.517 -0.7098  0.4980  0.2878
 6288SOL     OW26692   3.142   1.863   7.293  0.2678 -0.2507 -0.1080
 6288SOL    HW126693   3.184   1.773   7.283 -1.1838 -0.8614 -0.9788
 6288SOL    HW226694   3.043   1.852   7.302  0.2615  1.1453  1.8143
 6289SOL     OW26695   4.178   2.571   4.562 -0.2059 -0.4377 -0.4253
 6289SOL    HW126696   4.211   2.648   4.616  1.7374  0.1429 -2.3768
 6289SOL    HW226697   4.176   2.597   4.465 -1.1545 -2.3015 -0.9276
 6291SOL     OW26698   8.662   1.756   4.080  0.1418  0.6254  1.0334
 6291SOL    HW126699   8.728   1.697   4.032  0.0250  1.1193  0.2604
 6291SOL    HW226700   8.711   1.823   4.135  0.2894  1.1184  0.3062
 6292SOL     OW26701   7.558   6.477   3.303 -0.5448 -0.3113  0.2248
 6292SOL    HW126702   7.599   6.386   3.309 -0.0692 -0.0166  1.6223
 6292SOL    HW226703   7.593   6.534   3.377 -0.9861  0.9531 -0.5259
 6293SOL     OW26704   2.890   7.825   7.208  0.0965  0.3916  0.1513
 6293SOL    HW126705   2.873   7.807   7.111  1.9239  0.8895 -0.2774
 6293SOL    HW226706   2.933   7.745   7.250 -1.6868 -0.2251  0.8136
 6295SOL     OW26707   2.262   0.503   4.428  0.0419 -0.3856  0.1416
 6295SOL    HW126708   2.328   0.501   4.353 -1.5256  1.2546 -1.3224
 6295SOL    HW226709   2.303   0.547   4.508  1.0247 -0.1996 -0.4656
 6297SOL     OW26710   4.818   3.792   5.063  0.0363  0.0632  0.3322
 6297SOL    HW126711   4.848   3.765   5.154 -0.7471 -0.8377  0.3343
 6297SOL    HW226712   4.843   3.887   5.046  1.0274 -0.0517  1.1159
 6298SOL     OW26713   9.718   8.074   3.067  0.3960 -0.5245 -0.6968
 6298SOL    HW126714   9.773   7.990   3.063 -1.4410 -1.7649 -0.2831
 6298SOL    HW226715   9.628   8.053   3.104 -0.4346  1.4736 -1.5378
 6299SOL     OW26716   7.668   0.203   7.535 -0.1400  0.8493  0.1693
 6299SOL    HW126717   7.596   0.141   7.566 -0.6705  0.7698 -1.1928
 6299SOL    HW226718   7.676   0.279   7.599 -1.3206  0.7714  0.4185
 6300SOL     OW26719   2.055   3.158   7.720 -0.1336 -0.0211  0.5382
 6300SOL    HW126720   2.070   3.192   7.813  1.1820 -1.0632  0.7175
 6300SOL    HW226721   2.143   3.137   7.678 -0.9264 -4.5438  0.9210
 6301SOL     OW26722   9.491   2.293   3.802  0.4096  0.2504  0.4380
 6301SOL    HW126723   9.420   2.260   3.865  1.4083  0.0528  1.4668
 6301SOL    HW226724   9.451   2.307   3.712 -1.1887  1.0957  1.2509
 6302SOL     OW26725   8.054   9.867   3.637  0.2410 -0.5929  0.2273
 6302SOL    HW126726   7.974   9.807   3.624 -0.3130  0.3812 -1.0012
 6302SOL    HW226727   8.037   9.955   3.593  2.2737 -0.6117 -0.6652
 6303SOL     OW26728   0.732   0.201   3.614 -0.0066 -0.1241  0.3882
 6303SOL    HW126729   0.784   0.215   3.529  0.8011  0.6556  1.0024
 6303SOL    HW226730   0.653   0.143   3.595  0.3555 -0.2395 -0.8328
 6304SOL     OW26731   9.385   6.609   1.760  0.4111 -0.8834  0.2537
 6304SOL    HW126732   9.308   6.552   1.733 -0.4204 -0.5085  1.7742
 6304SOL    HW226733   9.352   6.699   1.788  1.5354 -0.2714 -0.3735
 6306SOL     OW26734   3.087   1.268   3.951  0.0382 -0.3273 -0.0505
 6306SOL    HW126735   3.106   1.354   4.000  0.0166 -0.7620  0.7347
 6306SOL    HW226736   3.057   1.199   4.017 -1.4117 -0.5097 -0.8861
 6307SOL     OW26737   3.079   8.432   3.140  0.3381  0.2374 -0.5737
 6307SOL    HW126738   3.077   8.509   3.205  0.3370  0.2824 -0.6264
 6307SOL    HW226739   3.149   8.448   3.071  3.0817 -1.6505  1.6551
 6308SOL     OW26740   5.819   5.175   1.867  0.1600  0.3800  0.2716
 6308SOL    HW126741   5.730   5.220   1.873 -0.3410 -0.6668  0.7058
 6308SOL    HW226742   5.877   5.207   1.943 -0.3058  0.0450  0.7680
 6309SOL     OW26743   0.310   7.893   3.057 -0.8420  0.0460  0.3598
 6309SOL    HW126744   0.263   7.805   3.047  1.2486 -1.1493  0.7973
 6309SOL    HW226745   0.304   7.923   3.152  0.5385 -0.8528  0.7426
 6311SOL     OW26746   4.274   8.458   1.325  0.2657 -0.1313 -0.0200
 6311SOL    HW126747   4.227   8.489   1.408  0.0943  0.0296 -0.1790
 6311SOL    HW226748   4.212   8.400   1.272 -0.0634  0.8049 -0.6796
 6312SOL     OW26749   6.918   3.035   2.035  0.6043 -0.1817  0.5826
 6312SOL    HW126750   6.957   2.971   2.100  0.4882 -0.2229  0.6119
 6312SOL    HW226751   6.824   3.058   2.062  0.8598  0.4815  0.9183
 6313SOL     OW26752   0.593   6.249   7.798  0.4409 -0.2776 -0.2498
 6313SOL    HW126753   0.549   6.256   7.888  1.4979  0.2492  0.2386
 6313SOL    HW226754   0.564   6.326   7.741  0.5492 -0.0518 -0.0030
 6316SOL     OW26755   2.214   9.515   3.396  0.0404  0.6847  0.2928
 6316SOL    HW126756   2.160   9.560   3.325 -0.3391 -0.0958  0.0738
 6316SOL    HW226757   2.262   9.583   3.450  0.7028  1.2690 -1.0074
 6317SOL     OW26758   8.069   5.012   2.994 -0.5224 -0.3137  0.0024
 6317SOL    HW126759   7.980   4.974   3.017 -0.5197 -0.2953  0.0448
 6317SOL    HW226760   8.058   5.082   2.923 -0.2992 -1.7469 -1.4607
 6318SOL     OW26761   7.693   8.654   2.679 -0.3761  0.1541  0.2084
 6318SOL    HW126762   7.643   8.738   2.658 -1.4908 -0.3529  0.7604
 6318SOL    HW226763   7.753   8.630   2.602  1.4619  2.5148  0.8572
 6319SOL     OW26764   6.113   9.991   1.218  0.1581  0.0095 -0.0431
 6319SOL    HW126765   6.024  10.036   1.220  0.1048 -0.0401 -1.0209
 6319SOL    HW226766   6.105   9.899   1.258  0.1298  0.6188  1.3544
 6320SOL     OW26767   5.020   7.860   3.814  0.0261 -0.0623 -0.4092
 6320SOL    HW126768   5.033   7.763   3.790 -1.1011 -0.3628  0.1612
 6320SOL    HW226769   5.108   7.902   3.831  0.4136 -1.5252  1.4050
 6321SOL     OW26770   2.683   1.800   4.512 -0.6113 -0.0088 -0.3039
 6321SOL    HW126771   2.663   1.852   4.429 -2.6679  2.3347  1.5860
 6321SOL    HW226772   2.599   1.755   4.544  0.1033 -0.6673  0.6638
 6323SOL     OW26773   1.772   2.473   4.493 -0.4391  0.1235 -0.3712
 6323SOL    HW126774   1.763   2.393   4.433  0.4462 -0.1098 -0.1988
 6323SOL    HW226775   1.825   2.544   4.446  1.0990 -0.4303  0.4801
 6324SOL     OW26776   3.819   4.876   7.110  0.0559 -0.1402 -0.8141
 6324SOL    HW126777   3.911   4.915   7.105  0.8297 -1.8651 -0.3486
 6324SOL    HW226778   3.799   4.827   7.025 -0.3096 -0.0569 -0.7781
 6325SOL     OW26779   2.283   8.131   6.022  0.3372 -0.1472  0.3611
 6325SOL    HW126780   2.267   8.211   6.080 -1.8045  0.7636 -1.4405
 6325SOL    HW226781   2.248   8.148   5.930  1.1738 -2.6104 -0.4598
 6326SOL     OW26782   3.422   5.066   0.495 -0.4049 -0.2216 -0.1385
 6326SOL    HW126783   3.322   5.061   0.495 -0.4502  0.4554  0.9842
 6326SOL    HW226784   3.454   5.080   0.589  0.7562 -0.6837 -0.4659
 6328SOL     OW26785   8.715   4.327   0.022 -0.4503  0.4144  0.4109
 6328SOL    HW126786   8.751   4.272   0.096 -0.5835 -0.6025 -0.2685
 6328SOL    HW226787   8.757   4.298  -0.065 -0.8335  1.0898 -0.0057
 6329SOL     OW26788   6.017   9.710   3.914  0.4202  0.0234  0.1520
 6329SOL    HW126789   6.061   9.799   3.929 -2.2928  1.5066 -0.3229
 6329SOL    HW226790   5.931   9.724   3.864 -0.2892 -2.8433  0.5091
 6330SOL     OW26791   6.022   0.457   4.545 -0.1987 -0.2726  0.1112
 6330SOL    HW126792   5.963   0.501   4.613  1.3208  0.9837  0.6722
 6330SOL    HW226793   6.013   0.504   4.457 -0.0068 -0.0562  0.2066
 6334SOL     OW26794   7.159   2.378   0.906 -0.3652 -0.2659  0.0094
 6334SOL    HW126795   7.155   2.278   0.903  2.2192 -0.4414  1.4450
 6334SOL    HW226796   7.144   2.409   1.000 -0.3507  0.6629 -0.2912
 6335SOL     OW26797   0.537   6.471   7.657  0.2552  0.2973 -0.2703
 6335SOL    HW126798   0.608   6.540   7.654  0.4365  0.1238 -0.0037
 6335SOL    HW226799   0.472   6.486   7.582  1.0862 -0.1072 -1.0807
 6336SOL     OW26800   3.221   7.398   6.737  0.6804 -0.8256  0.1576
 6336SOL    HW126801   3.251   7.356   6.823  1.3792 -1.6348 -0.4764
 6336SOL    HW226802   3.189   7.327   6.674 -1.9875 -0.0317  0.5810
 6337SOL     OW26803   6.721   1.203   7.267 -0.1760 -0.5030 -0.1889
 6337SOL    HW126804   6.771   1.127   7.225  0.5499 -0.2152  0.1341
 6337SOL    HW226805   6.707   1.184   7.364  0.6591  0.0898  0.0603
 6340SOL     OW26806   5.219   4.769   7.825 -0.2317  0.2952 -0.4456
 6340SOL    HW126807   5.183   4.687   7.780  0.1146  0.6278 -1.3280
 6340SOL    HW226808   5.305   4.795   7.783  0.4152  0.2531  0.8188
 6342SOL     OW26809   4.755   3.046   5.813  0.3660  0.1267  0.5665
 6342SOL    HW126810   4.785   2.994   5.893  2.4669 -2.4134 -1.7774
 6342SOL    HW226811   4.677   3.001   5.770 -1.4786  2.0917  1.7585
 6343SOL     OW26812   3.728   6.403   4.900  0.2372  0.1950  0.9031
 6343SOL    HW126813   3.647   6.345   4.900  0.1584  0.2824  2.0279
 6343SOL    HW226814   3.786   6.381   4.822 -0.7921  0.0283  0.1707
 6344SOL     OW26815   7.263   5.561   7.196  0.4291 -0.2505  0.5646
 6344SOL    HW126816   7.267   5.520   7.287  2.3992 -2.0482 -0.2802
 6344SOL    HW226817   7.302   5.653   7.198  3.3332 -1.4425  0.9779
 6345SOL     OW26818   4.762   1.999   0.543 -0.5900 -0.1660  0.2730
 6345SOL    HW126819   4.686   2.013   0.479 -0.7363 -0.1889  0.4407
 6345SOL    HW226820   4.778   1.901   0.555 -2.2566 -0.2335  2.2526
 6346SOL     OW26821   1.643   5.224   1.814  0.1759  0.3380 -0.2839
 6346SOL    HW126822   1.583   5.189   1.886  0.3239 -2.4209 -1.4745
 6346SOL    HW226823   1.738   5.201   1.835  0.2603 -0.1090 -1.1457
 6348SOL     OW26824   0.239   2.528   6.715  0.0302 -0.1407  0.0887
 6348SOL    HW126825   0.276   2.544   6.624 -0.1748  0.8683  0.1776
 6348SOL    HW226826   0.179   2.449   6.713 -0.6703  0.4072 -0.8429
 6349SOL     OW26827   3.307   3.666   1.551 -0.3829 -0.1743 -0.0441
 6349SOL    HW126828   3.395   3.631   1.583  0.4100  0.1019 -1.8500
 6349SOL    HW226829   3.317   3.762   1.524 -1.0576 -0.3551 -0.9603
 6350SOL     OW26830   0.919   0.839   0.457  0.4683 -0.3167  0.1196
 6350SOL    HW126831   0.892   0.834   0.554  1.3703  0.1304  0.3974
 6350SOL    HW226832   0.966   0.755   0.431 -0.2497 -0.6596 -0.0789
 6351SOL     OW26833   8.008   0.411   4.656 -0.2220  0.4954  0.2667
 6351SOL    HW126834   8.084   0.351   4.631  0.3094  0.4450  1.9356
 6351SOL    HW226835   7.983   0.468   4.578 -3.2291 -4.4491 -2.6699
 6353SOL     OW26836   2.872   9.592   2.857 -0.4435  0.0182 -0.1348
 6353SOL    HW126837   2.825   9.507   2.880  0.3755 -0.1120  1.1278
 6353SOL    HW226838   2.805   9.662   2.833 -1.1194 -0.9934 -1.2176
 6354SOL     OW26839   8.241   5.496   4.460  0.1297  0.2654  0.2334
 6354SOL    HW126840   8.305   5.518   4.387  0.7317  0.9549  0.9648
 6354SOL    HW226841   8.278   5.420   4.514  0.2662  0.5733  0.5730
 6355SOL     OW26842   6.510   8.903   4.631 -0.2790  0.0183  0.5986
 6355SOL    HW126843   6.570   8.879   4.555 -1.2873  1.3426 -0.6519
 6355SOL    HW226844   6.530   8.844   4.710  3.0457  0.8073  0.4220
 6356SOL     OW26845   7.624   4.007   0.764  0.2974  0.1010  0.2376
 6356SOL    HW126846   7.595   3.996   0.669 -1.0227  0.7624  0.5599
 6356SOL    HW226847   7.719   3.977   0.773  0.4963  0.2147 -1.3281
 6357SOL     OW26848   4.568   7.685   4.448 -0.3747 -0.1755 -0.3426
 6357SOL    HW126849   4.607   7.776   4.464 -2.4229  0.2423  2.7445
 6357SOL    HW226850   4.484   7.694   4.394 -0.1858 -0.3318 -0.6647
 6358SOL     OW26851   2.983   7.067   4.324  0.2160  0.1852 -0.4303
 6358SOL    HW126852   2.912   7.129   4.292 -2.2753 -0.7778  2.9283
 6358SOL    HW226853   3.048   7.118   4.381  0.7557  0.5717 -1.3886
 6359SOL     OW26854   8.422   8.838   3.530 -0.5351  0.5466  0.0444
 6359SOL    HW126855   8.414   8.788   3.443  1.2226 -0.6202  0.5131
 6359SOL    HW226856   8.370   8.791   3.600 -1.4454  1.1420 -0.2258
 6360SOL     OW26857   3.744   9.192   5.115  0.8321  0.0673 -0.6357
 6360SOL    HW126858   3.828   9.199   5.062 -0.1501 -3.1009 -2.7934
 6360SOL    HW226859   3.684   9.269   5.093  1.5159  0.1804 -2.1554
 6361SOL     OW26860   7.863   5.869   3.408 -0.5768  0.3084 -0.0461
 6361SOL    HW126861   7.774   5.834   3.380 -1.9877  3.8013 -0.1961
 6361SOL    HW226862   7.895   5.819   3.488 -3.1585 -0.3471  0.6181
 6363SOL     OW26863   9.522   3.160   2.828 -0.3422 -0.0546  0.4232
 6363SOL    HW126864   9.582   3.147   2.750  0.0948  0.5840  0.6448
 6363SOL    HW226865   9.433   3.119   2.809  0.4333 -1.7890  0.4406
 6364SOL     OW26866   5.540   1.266   0.719 -0.5420 -0.0901  0.0766
 6364SOL    HW126867   5.512   1.304   0.808  0.5432  0.4538  0.1923
 6364SOL    HW226868   5.521   1.168   0.718  0.4782 -0.3095  1.3302
 6365SOL     OW26869   2.047   8.360   7.136  0.0953  0.5787 -0.1746
 6365SOL    HW126870   2.009   8.375   7.044  1.4001 -2.2838 -1.2401
 6365SOL    HW226871   2.020   8.435   7.196 -3.0399  1.1463 -2.1905
 6366SOL     OW26872   2.834   5.823   5.516 -0.0030  0.2485  0.1224
 6366SOL    HW126873   2.736   5.840   5.516 -0.5641 -2.7511 -0.7408
 6366SOL    HW226874   2.878   5.882   5.447 -1.0467  2.1421  1.0395
 6367SOL     OW26875   6.959   6.633   5.357  0.0301 -0.2729  0.5317
 6367SOL    HW126876   7.051   6.616   5.392  1.3657 -1.7633 -3.5355
 6367SOL    HW226877   6.942   6.732   5.356  2.1177  0.1012  0.0124
 6368SOL     OW26878   5.669   3.725   1.739 -0.5889  0.6415 -0.0114
 6368SOL    HW126879   5.726   3.807   1.748 -1.2554  0.8868  2.4062
 6368SOL    HW226880   5.719   3.646   1.774 -0.6425  0.3321 -0.6251
 6372SOL     OW26881   9.413   6.237   5.469 -0.6529  0.3870  0.0015
 6372SOL    HW126882   9.418   6.200   5.562  1.3629  0.0397 -0.2240
 6372SOL    HW226883   9.412   6.163   5.403  1.5369  0.6354 -0.3714
 6373SOL     OW26884   6.009   8.256   4.487  0.2076  0.0302  0.0667
 6373SOL    HW126885   5.991   8.201   4.405  0.1618  1.3935 -0.8542
 6373SOL    HW226886   6.106   8.280   4.491 -0.2520  2.1344 -0.9821
 6374SOL     OW26887   3.880   8.567   7.758 -0.5406 -0.1618 -0.0304
 6374SOL    HW126888   3.912   8.569   7.663  0.6863  0.8490  0.4014
 6374SOL    HW226889   3.794   8.618   7.765 -0.9526 -0.7593 -0.7130
 6375SOL     OW26890   9.790   7.705   7.429  0.0628  0.2667 -0.3461
 6375SOL    HW126891   9.869   7.671   7.377 -1.4834 -2.8936 -0.7354
 6375SOL    HW226892   9.712   7.716   7.367 -0.4888  1.0528  0.4764
 6376SOL     OW26893   1.488   8.985   4.826 -0.0288 -0.0837 -0.2699
 6376SOL    HW126894   1.566   9.020   4.773 -1.7630  4.3909 -0.0368
 6376SOL    HW226895   1.515   8.974   4.921  0.7724 -0.0764 -0.4908
 6377SOL     OW26896   2.195   7.846   1.488 -0.1523 -0.1585 -0.2114
 6377SOL    HW126897   2.236   7.911   1.425  1.0883 -0.9719 -0.2469
 6377SOL    HW226898   2.168   7.764   1.438  0.6535 -0.7260  0.2818
 6378SOL     OW26899   8.370   0.724   6.477 -0.5322 -0.0983  0.3268
 6378SOL    HW126900   8.289   0.780   6.460 -1.0516 -0.8229  0.3897
 6378SOL    HW226901   8.410   0.749   6.565 -0.3526  0.6595  0.0323
 6379SOL     OW26902   7.060   4.614   2.731  0.1610  0.2810 -0.1335
 6379SOL    HW126903   6.992   4.672   2.774  0.6644  0.6881  0.1107
 6379SOL    HW226904   7.015   4.532   2.694 -0.1292 -0.5138  1.9441
 6380SOL     OW26905   9.920   8.298   7.097  0.9068  0.4137 -1.1263
 6380SOL    HW126906   9.981   8.310   7.175 -1.3755  2.3372  0.4218
 6380SOL    HW226907   9.897   8.388   7.059 -3.2778 -0.0155  0.1928
 6381SOL     OW26908   8.826   1.720   6.067  0.8228  0.0900 -0.4780
 6381SOL    HW126909   8.836   1.689   5.973  1.2230  0.2172 -0.4774
 6381SOL    HW226910   8.898   1.786   6.089 -1.1623  2.5086 -1.0718
 6383SOL     OW26911   3.291   0.440   6.980  0.1731  0.0918 -0.3737
 6383SOL    HW126912   3.381   0.473   6.951  0.2445 -0.0268 -0.2832
 6383SOL    HW226913   3.223   0.511   6.962  0.5298  0.8224  1.0415
 6384SOL     OW26914   8.392   1.283   4.454  0.4536  0.3409  0.6068
 6384SOL    HW126915   8.459   1.356   4.436 -0.3934  1.0879  0.4138
 6384SOL    HW226916   8.330   1.312   4.527  0.0855 -0.1719  0.5011
 6386SOL     OW26917   7.784   7.018   7.250 -0.1525  0.4720  0.6408
 6386SOL    HW126918   7.794   7.025   7.151  0.6063  1.9604  0.8118
 6386SOL    HW226919   7.708   6.957   7.272 -0.1018 -0.1417 -0.8477
 6387SOL     OW26920   1.609   3.838   2.159  0.5888  0.1462 -0.1527
 6387SOL    HW126921   1.523   3.797   2.188 -0.2566  1.4574 -0.7625
 6387SOL    HW226922   1.671   3.767   2.126 -0.3688 -0.7675  0.0213
 6388SOL     OW26923   8.102   7.535   1.816 -0.2674 -0.1690  0.6632
 6388SOL    HW126924   8.064   7.477   1.743 -0.2922  1.0848 -0.3403
 6388SOL    HW226925   8.120   7.626   1.780  2.9608 -0.4948  1.3429
 6389SOL     OW26926   9.433   0.124   2.315 -0.1170  0.1164 -0.3095
 6389SOL    HW126927   9.452   0.221   2.328  0.3329  0.0511 -0.4772
 6389SOL    HW226928   9.512   0.080   2.272 -0.0782 -0.4375  0.3103
 6390SOL     OW26929   2.851   9.290   6.941 -0.5592 -0.1273 -0.2010
 6390SOL    HW126930   2.848   9.360   6.870  0.5604  0.2506  0.1189
 6390SOL    HW226931   2.806   9.207   6.908 -0.4362  0.1890 -1.1805
 6391SOL     OW26932   6.129   4.666   0.936 -0.2721  0.5546 -0.3367
 6391SOL    HW126933   6.082   4.729   0.997 -2.4841 -0.7952 -0.5998
 6391SOL    HW226934   6.194   4.612   0.988  1.2074  2.5830 -0.0039
 6392SOL     OW26935   4.991   5.178   7.596 -0.2393 -0.6374 -0.0263
 6392SOL    HW126936   5.053   5.152   7.670 -0.6748 -0.1043  0.5194
 6392SOL    HW226937   5.043   5.229   7.526  0.3219 -1.7536 -0.4396
 6393SOL     OW26938   8.940   6.054   7.531 -0.1124  1.0359 -0.6636
 6393SOL    HW126939   8.960   5.976   7.590 -1.0619  1.0481 -0.3157
 6393SOL    HW226940   9.024   6.084   7.486  0.6816  1.2524  0.9302
 6394SOL     OW26941   2.192   1.449   1.571 -0.3256  0.7424  0.2364
 6394SOL    HW126942   2.282   1.460   1.612 -0.6102  0.0877  1.0510
 6394SOL    HW226943   2.193   1.371   1.508 -0.2348  0.9349  0.0010
 6395SOL     OW26944   1.609   8.766   6.310 -0.8265  0.3932 -0.5099
 6395SOL    HW126945   1.555   8.843   6.344 -0.3834  0.8471 -0.8286
 6395SOL    HW226946   1.697   8.763   6.358  0.2614  1.6937 -2.3545
 6396SOL     OW26947   1.046   2.040   3.438 -0.5045 -0.2496  0.0501
 6396SOL    HW126948   1.116   2.098   3.396 -0.1409 -0.5847  0.1859
 6396SOL    HW226949   1.041   2.060   3.536  0.4539 -1.2678  0.3213
 6397SOL     OW26950   8.244   7.117   6.321  0.3203 -0.2192  0.3401
 6397SOL    HW126951   8.341   7.132   6.302  0.4268  0.8457  1.6576
 6397SOL    HW226952   8.189   7.186   6.274  0.3410  0.3325  1.1224
 6398SOL     OW26953   4.194   2.916   6.607 -0.1807  0.2446  0.3566
 6398SOL    HW126954   4.169   2.894   6.512  1.1352 -0.0493  0.0725
 6398SOL    HW226955   4.282   2.875   6.629 -0.2142  0.7872  1.5371
 6399SOL     OW26956   1.842   5.639   0.215 -0.0246 -0.4237 -0.0766
 6399SOL    HW126957   1.842   5.709   0.286  0.2440 -0.7596  0.2533
 6399SOL    HW226958   1.930   5.639   0.168  0.3321 -1.2077  0.5824
 6400SOL     OW26959   0.118   7.424   5.639  0.2185  0.3065  0.4815
 6400SOL    HW126960   0.211   7.460   5.648  0.0313  1.2694 -1.2193
 6400SOL    HW226961   0.091   7.427   5.543 -1.2751 -0.7456  0.8560
 6401SOL     OW26962   2.747   5.780   5.819 -0.4831  0.3909 -0.3686
 6401SOL    HW126963   2.788   5.691   5.800 -0.4642 -0.2086  2.3124
 6401SOL    HW226964   2.793   5.850   5.764  0.0816 -1.1137 -1.8574
 6402SOL     OW26965   0.068   8.481   0.286  0.1362 -0.6047  0.1046
 6402SOL    HW126966   0.032   8.512   0.198 -0.5379 -0.3749  0.4595
 6402SOL    HW226967  -0.007   8.449   0.343 -0.0352  3.4959  2.3460
 6403SOL     OW26968   8.636   3.548   0.145  0.1649  0.3200  0.2576
 6403SOL    HW126969   8.726   3.582   0.116  0.6954 -1.0189  0.2841
 6403SOL    HW226970   8.637   3.448   0.143 -1.9183  0.3031 -1.5893
 6404SOL     OW26971   1.901   6.321   0.916 -0.6087  0.2042 -0.1579
 6404SOL    HW126972   1.946   6.411   0.913  1.7486 -0.9038  0.9382
 6404SOL    HW226973   1.893   6.291   1.011 -2.8062 -0.1002 -0.4049
 6405SOL     OW26974   2.023   1.986   6.883 -0.6601 -0.4976 -0.0247
 6405SOL    HW126975   2.116   1.963   6.913 -0.3719  0.0771 -0.4783
 6405SOL    HW226976   1.976   2.037   6.955  0.0185  0.8486 -0.5289
 6406SOL     OW26977   8.538   7.088   4.256 -0.0477  0.5499 -0.6666
 6406SOL    HW126978   8.492   7.096   4.167 -0.8419 -0.5984 -0.3671
 6406SOL    HW226979   8.637   7.096   4.243  0.0579 -2.4707 -2.0404
 6407SOL     OW26980   8.277   7.887   5.117 -0.0423  0.0574 -0.6007
 6407SOL    HW126981   8.275   7.914   5.021  1.3845 -2.9147 -1.5536
 6407SOL    HW226982   8.371   7.871   5.145 -0.5674 -0.6488  0.8182
 6408SOL     OW26983   9.430   9.873   2.944 -0.3857  0.4701 -0.1782
 6408SOL    HW126984   9.350   9.821   2.913 -0.9236 -0.0490  2.0438
 6408SOL    HW226985   9.510   9.847   2.889 -1.0127 -1.4896 -0.1844
 6409SOL     OW26986   9.351   4.431   2.709  0.2158  0.2462 -0.0945
 6409SOL    HW126987   9.352   4.334   2.684  0.0378  0.2634 -0.1635
 6409SOL    HW226988   9.257   4.461   2.725  0.2114  0.5835 -0.7389
 6410SOL     OW26989   2.702   7.103   4.869 -0.5338 -0.2580  0.0729
 6410SOL    HW126990   2.742   7.022   4.827 -0.5203 -0.2516  0.0739
 6410SOL    HW226991   2.774   7.167   4.895 -0.5639 -0.1180 -0.1910
 6412SOL     OW26992   5.007   9.246   1.781 -0.1069  0.5712 -0.2775
 6412SOL    HW126993   4.919   9.292   1.771 -0.2133  0.1788 -1.1706
 6412SOL    HW226994   5.057   9.249   1.694  0.2640 -0.2192 -0.1000
 6415SOL     OW26995   2.263   3.460   7.237  0.1170 -0.8789  0.2436
 6415SOL    HW126996   2.260   3.504   7.147 -0.1640 -0.4558  0.4564
 6415SOL    HW226997   2.191   3.499   7.295  2.0789  0.8615  1.5804
 6416SOL     OW26998   4.677   2.119   1.669 -0.8495 -0.1125 -0.1683
 6416SOL    HW126999   4.736   2.098   1.747 -0.9052 -1.2662 -0.4264
 6416SOL    HW227000   4.583   2.091   1.689 -1.1202  0.7897 -0.1505
 6417SOL     OW27001   2.861   2.506   4.214  0.5217  0.1156  0.1179
 6417SOL    HW127002   2.842   2.576   4.283 -2.4031 -0.3722 -0.1058
 6417SOL    HW227003   2.888   2.421   4.260  0.1348  0.2496  0.6078
 6418SOL     OW27004   9.731   5.854   2.087 -0.8888  0.0552  0.6921
 6418SOL    HW127005   9.704   5.944   2.053  0.9166  0.6926  0.8703
 6418SOL    HW227006   9.651   5.805   2.122 -1.9363  1.4498  0.2556
 6419SOL     OW27007   9.820   2.211   6.766  0.1110  0.4980 -0.2188
 6419SOL    HW127008   9.790   2.119   6.742  2.5466 -1.0481  2.3203
 6419SOL    HW227009   9.903   2.234   6.715 -0.0552  0.9696 -0.2769
 6421SOL     OW27010   6.643   2.381   2.471 -0.6860 -0.2706  0.3802
 6421SOL    HW127011   6.736   2.370   2.438 -1.2207  1.6745 -2.0093
 6421SOL    HW227012   6.598   2.292   2.478  0.7468 -1.0483 -0.3098
 6425SOL     OW27013   8.200   9.896   5.096  0.0061  0.7482 -0.4212
 6425SOL    HW127014   8.226   9.954   5.174 -2.2894  0.5682  0.5278
 6425SOL    HW227015   8.191   9.952   5.014 -1.2117  1.6006  0.2716
 6426SOL     OW27016   5.019   6.803   1.797 -0.2945 -0.0413 -0.3035
 6426SOL    HW127017   4.997   6.707   1.810  0.9816 -0.1762  0.8869
 6426SOL    HW227018   4.950   6.859   1.843  0.6324 -0.4377  1.5917
 6427SOL     OW27019   7.358   2.299   5.433  0.3293 -0.3139  0.5078
 6427SOL    HW127020   7.424   2.352   5.380  0.2890  0.7140  1.4586
 6427SOL    HW227021   7.279   2.277   5.376  1.6235 -1.8179 -0.7232
 6428SOL     OW27022   9.471   0.662   4.786  0.6542 -0.2614  0.3346
 6428SOL    HW127023   9.442   0.725   4.715 -0.4728  0.7615  1.6817
 6428SOL    HW227024   9.519   0.585   4.744 -1.2489 -0.4201 -1.6693
 6430SOL     OW27025   5.508   8.965   1.755  0.1530 -0.3774  0.2068
 6430SOL    HW127026   5.475   8.877   1.720 -0.7478  1.2653 -3.3213
 6430SOL    HW227027   5.432   9.030   1.757  1.4803  1.2298 -0.3785
 6431SOL     OW27028   4.094   5.333   4.485 -0.3689 -0.3506 -0.2782
 6431SOL    HW127029   4.162   5.373   4.425 -2.5754  1.0364 -1.9434
 6431SOL    HW227030   4.137   5.264   4.543  2.4442  0.6068 -1.1321
 6433SOL     OW27031   3.548   1.849   7.562  0.2225 -0.5091 -0.3638
 6433SOL    HW127032   3.592   1.849   7.652 -0.4116 -0.5346 -0.0508
 6433SOL    HW227033   3.456   1.886   7.570  0.1310 -0.5902 -0.9932
 6434SOL     OW27034   4.124   2.969   7.412  0.8378 -0.1679  0.6945
 6434SOL    HW127035   4.087   3.042   7.469  1.1869 -0.2924  1.0845
 6434SOL    HW227036   4.223   2.981   7.404  0.4295  1.7777 -2.5954
 6435SOL     OW27037   1.848   4.708   2.091 -0.0176 -0.6584 -0.1851
 6435SOL    HW127038   1.844   4.795   2.138 -2.0574 -0.4788 -0.6147
 6435SOL    HW227039   1.897   4.718   2.004  0.9431 -0.2638  0.4050
 6436SOL     OW27040   2.220   5.378   1.407  0.1632 -0.4223  0.6002
 6436SOL    HW127041   2.290   5.334   1.351 -0.8685 -0.0803 -0.9984
 6436SOL    HW227042   2.254   5.466   1.441  0.2697  0.0604 -0.7396
 6438SOL     OW27043   4.218   2.825   5.271 -0.6069 -0.6311 -0.3766
 6438SOL    HW127044   4.194   2.885   5.195  0.9493  0.3802 -0.0902
 6438SOL    HW227045   4.293   2.765   5.243 -0.5398 -0.7799  0.1199
 6439SOL     OW27046   7.865   9.471   4.053 -0.2605  0.4034 -0.0277
 6439SOL    HW127047   7.877   9.570   4.058 -1.8404  0.7409 -2.0955
 6439SOL    HW227048   7.954   9.426   4.063  0.4686  2.0104  0.9858
 6440SOL     OW27049   0.859   0.580   2.353 -0.4999  0.1514 -0.0495
 6440SOL    HW127050   0.818   0.666   2.384 -1.0093 -0.9340  2.3532
 6440SOL    HW227051   0.918   0.598   2.274 -3.5130  2.1417 -1.9301
 6444SOL     OW27052   4.082   7.988   4.959 -0.1920 -0.4863 -0.4361
 6444SOL    HW127053   4.019   8.029   5.026 -1.8714 -0.3544 -2.0554
 6444SOL    HW227054   4.133   8.061   4.913 -0.4759 -0.4364 -0.6771
 6445SOL     OW27055   5.027   0.293   5.047  0.9059  0.8510 -0.1479
 6445SOL    HW127056   4.941   0.332   5.014  0.4140 -0.4211 -0.3608
 6445SOL    HW227057   5.087   0.275   4.969  0.7733  0.3171 -0.1254
 6446SOL     OW27058   3.993   8.233   7.772 -0.0726  0.7006 -0.4484
 6446SOL    HW127059   4.058   8.191   7.835  1.3472  0.1574 -2.2636
 6446SOL    HW227060   3.927   8.287   7.825  0.6201 -0.3542  1.5673
 6448SOL     OW27061   6.147   9.982   2.771  0.1608 -0.3799  0.7966
 6448SOL    HW127062   6.138   9.899   2.716 -1.6598 -0.3150  0.9865
 6448SOL    HW227063   6.164  10.060   2.710  0.6990 -0.7038  0.5293
 6451SOL     OW27064   8.157   1.778   1.318  0.0298 -0.1054 -1.0269
 6451SOL    HW127065   8.072   1.794   1.266 -1.3367  0.8711  1.4103
 6451SOL    HW227066   8.230   1.835   1.280 -1.6119  2.5560 -0.3469
 6452SOL     OW27067   7.994   1.996   4.987  0.5167 -0.2732 -0.0403
 6452SOL    HW127068   8.007   1.899   5.008  0.4713 -0.3097 -0.1787
 6452SOL    HW227069   7.904   2.025   5.021  0.5399 -0.2751  0.0233
 6453SOL     OW27070   2.804   8.727   4.085  0.3991  0.4550 -0.2351
 6453SOL    HW127071   2.813   8.821   4.051  1.5042  0.6188  0.4638
 6453SOL    HW227072   2.780   8.729   4.182 -0.6492  0.0051 -0.4826
 6454SOL     OW27073   9.950   1.683   3.200 -0.0140 -0.1594 -0.3564
 6454SOL    HW127074  10.023   1.650   3.260  0.3061  0.3107 -0.4913
 6454SOL    HW227075   9.985   1.696   3.107 -0.2030  0.3153 -0.3632
 6455SOL     OW27076   8.947   1.851   7.804  0.0410 -0.0327 -1.0545
 6455SOL    HW127077   8.951   1.810   7.896  0.5093  2.0610 -0.1081
 6455SOL    HW227078   9.039   1.876   7.775 -0.3610  1.2958 -1.1796
 6456SOL     OW27079   7.852   7.302   2.017  0.6633  0.1924  0.3601
 6456SOL    HW127080   7.835   7.275   1.922  2.5423  0.3788 -0.0447
 6456SOL    HW227081   7.920   7.241   2.057  0.7877  0.8817  1.2092
 6457SOL     OW27082   1.059   1.404   6.289  0.0128  0.6038  0.5966
 6457SOL    HW127083   1.017   1.317   6.263  1.3876  0.2809 -0.6551
 6457SOL    HW227084   0.996   1.478   6.269 -0.9971 -0.0754  1.2422
 6458SOL     OW27085   2.420   6.042   4.851  0.5821 -0.2148  0.6177
 6458SOL    HW127086   2.442   5.997   4.938  3.9419  0.1938  0.0285
 6458SOL    HW227087   2.461   5.990   4.776 -3.1346 -1.1461 -0.9004
 6459SOL     OW27088   9.581   6.688   5.672  0.3608 -0.0499 -0.2403
 6459SOL    HW127089   9.501   6.727   5.717  0.2417 -1.7758  1.1200
 6459SOL    HW227090   9.557   6.660   5.579 -0.6394 -0.5940  0.1751
 6460SOL     OW27091   1.136   2.327   1.887 -0.6498  0.4159  0.0521
 6460SOL    HW127092   1.214   2.283   1.933  0.2896  1.4396 -0.5301
 6460SOL    HW227093   1.071   2.360   1.956 -0.2501  0.1255  0.5763
 6461SOL     OW27094   3.583   6.728   3.769  0.1662  0.2466  0.2324
 6461SOL    HW127095   3.498   6.776   3.746  0.4206  1.4572  1.7280
 6461SOL    HW227096   3.641   6.725   3.688 -0.4890  1.1466 -0.2937
 6462SOL     OW27097   2.248   3.107   2.375 -0.1597 -0.5937  0.4760
 6462SOL    HW127098   2.336   3.116   2.329  0.2247 -0.4228  1.2255
 6462SOL    HW227099   2.239   3.179   2.444 -1.0369 -0.3981  0.1567
 6463SOL     OW27100   2.680   6.594   0.750 -0.5863  0.0804 -0.3849
 6463SOL    HW127101   2.628   6.605   0.834  0.5608  1.4209  0.1781
 6463SOL    HW227102   2.693   6.497   0.731 -0.9275 -0.2317  0.9445
 6464SOL     OW27103   8.534   9.853   5.390  0.4285  0.0380  0.1806
 6464SOL    HW127104   8.634   9.857   5.383  0.3627  0.8498 -0.2427
 6464SOL    HW227105   8.495   9.939   5.360 -0.3898 -0.1616  0.6793
 6465SOL     OW27106   1.536   1.204   6.937 -0.2335 -0.1507  0.3534
 6465SOL    HW127107   1.448   1.164   6.912 -0.2239  0.1009 -0.0881
 6465SOL    HW227108   1.550   1.195   7.036 -0.9386  0.1729  0.4840
 6467SOL     OW27109   1.903   3.534   4.234  0.8533 -0.6031  0.2802
 6467SOL    HW127110   1.849   3.484   4.301  0.5646 -0.6821 -0.0130
 6467SOL    HW227111   1.981   3.478   4.205  0.6013 -0.8334  0.0461
 6468SOL     OW27112   9.324   2.123   7.174  0.2579  0.3599 -0.1924
 6468SOL    HW127113   9.369   2.198   7.126  0.8731  0.3436  0.3503
 6468SOL    HW227114   9.316   2.044   7.114  0.9990  0.3486 -0.2795
 6469SOL     OW27115   4.985   1.115   5.191 -0.2244 -0.2881  0.0023
 6469SOL    HW127116   4.893   1.152   5.207  0.2929  2.4121 -2.7200
 6469SOL    HW227117   5.050   1.166   5.247  0.1915  1.3661 -1.9251
 6470SOL     OW27118   1.909   7.016   2.514  0.2200 -0.0737  0.2799
 6470SOL    HW127119   1.898   6.984   2.608  0.3350  2.7867  1.3249
 6470SOL    HW227120   1.819   7.032   2.473  0.1508 -2.1328 -0.4221
 6471SOL     OW27121   9.135   8.116   6.888  0.2705  0.1110 -1.2896
 6471SOL    HW127122   9.085   8.183   6.833 -1.4847 -0.2409 -0.1620
 6471SOL    HW227123   9.218   8.158   6.923 -0.2926  1.3828 -1.4371
 6472SOL     OW27124   4.937   0.779   5.582  0.1834 -0.1507  0.0441
 6472SOL    HW127125   4.999   0.717   5.629  1.0838  1.0806  0.5242
 6472SOL    HW227126   4.928   0.753   5.486  1.3322 -0.4239  0.0131
 6473SOL     OW27127   7.721   2.028   4.107  0.2590  0.2619  0.5322
 6473SOL    HW127128   7.680   1.936   4.108 -0.9005  0.7660  1.4550
 6473SOL    HW227129   7.790   2.034   4.178  1.7522 -0.4973 -0.8248
 6474SOL     OW27130   0.225   3.258   3.055 -0.1123  0.0994  0.6637
 6474SOL    HW127131   0.138   3.307   3.053 -0.1807 -0.0543 -0.7941
 6474SOL    HW227132   0.208   3.160   3.048  0.3039  0.2585 -3.4759
 6475SOL     OW27133   8.635   0.833   3.111  0.4501 -0.0409  0.3678
 6475SOL    HW127134   8.560   0.821   3.176 -0.1084  1.0164 -0.0456
 6475SOL    HW227135   8.628   0.764   3.039 -1.6969  1.6030 -1.0799
 6476SOL     OW27136   6.808   7.546   2.897  0.4301 -0.7441 -0.6298
 6476SOL    HW127137   6.718   7.538   2.939 -0.0036  0.1706 -1.3721
 6476SOL    HW227138   6.808   7.498   2.809  0.1969  0.5663 -1.3571
 6477SOL     OW27139   6.083   7.627   4.671  0.2030  0.3113 -0.7267
 6477SOL    HW127140   6.172   7.625   4.716  0.9079  1.9320 -1.9871
 6477SOL    HW227141   6.052   7.534   4.653  0.6407 -0.3223  1.6345
 6479SOL     OW27142   0.802   4.639   3.275  0.1394 -0.4371  0.3033
 6479SOL    HW127143   0.707   4.606   3.270 -0.4552  1.1164  0.9955
 6479SOL    HW227144   0.805   4.723   3.330  1.6989  0.3004 -0.8642
 6480SOL     OW27145   9.849   8.181   1.051  0.1614 -1.0409 -0.0319
 6480SOL    HW127146   9.802   8.121   1.115  1.6093 -1.7384  0.4093
 6480SOL    HW227147   9.943   8.195   1.082  1.2316 -2.2974 -2.5453
 6481SOL     OW27148   1.948   5.967   3.428 -0.0054 -0.2656 -0.4443
 6481SOL    HW127149   1.877   5.897   3.419 -1.3247  1.0124 -0.1872
 6481SOL    HW227150   1.972   5.978   3.524 -1.4754  1.2405 -0.2276
 6482SOL     OW27151   8.459   3.872   2.686  0.7055  0.5508  0.0486
 6482SOL    HW127152   8.404   3.908   2.611  0.0192  0.3257  0.4312
 6482SOL    HW227153   8.456   3.772   2.684 -1.0782  0.5395  1.6201
 6483SOL     OW27154   9.440   2.691   7.853  0.1668  0.0642  0.4148
 6483SOL    HW127155   9.473   2.781   7.824  0.3492  0.1196  0.7921
 6483SOL    HW227156   9.345   2.681   7.825  0.6314 -0.2804 -1.0827
 6484SOL     OW27157   6.702   2.278   4.577  0.0372 -0.1678 -0.0503
 6484SOL    HW127158   6.636   2.350   4.555  0.6487  0.2114 -0.6923
 6484SOL    HW227159   6.655   2.202   4.621 -0.5807  0.7310  0.8852
 6485SOL     OW27160   1.809   8.532   4.916  0.2694 -0.4741  0.0507
 6485SOL    HW127161   1.893   8.507   4.964 -0.1959 -1.6969  0.2148
 6485SOL    HW227162   1.753   8.451   4.901  0.2710 -0.0733 -2.2887
 6486SOL     OW27163   8.986   5.997   6.197  0.0183  0.0467  0.3214
 6486SOL    HW127164   9.070   5.984   6.250 -0.9796  1.5551  2.3580
 6486SOL    HW227165   8.932   6.071   6.238 -2.0558 -0.5390 -1.2590
 6487SOL     OW27166   3.231   9.415   3.738 -0.4029  0.1408  0.5673
 6487SOL    HW127167   3.238   9.508   3.773 -3.0946  0.4218  0.4064
 6487SOL    HW227168   3.192   9.416   3.646 -0.5405 -1.1572  0.5944
 6489SOL     OW27169   9.950   3.370   5.081  0.4137 -0.0932 -0.2368
 6489SOL    HW127170   9.960   3.465   5.052  0.6214 -0.1293 -0.2776
 6489SOL    HW227171   9.940   3.312   5.000 -0.3617 -0.0303 -0.1931
 6490SOL     OW27172   1.911   1.723   1.316  0.1472 -0.5072  0.4362
 6490SOL    HW127173   1.928   1.626   1.295  0.8989 -0.3028  0.0564
 6490SOL    HW227174   1.987   1.778   1.281 -0.4011  0.2500  0.4263
 6491SOL     OW27175   4.343   4.358   3.796  0.1064  0.1903  0.2009
 6491SOL    HW127176   4.261   4.317   3.757  0.2839  0.4597 -0.4753
 6491SOL    HW227177   4.407   4.286   3.824  0.5110 -0.0208 -1.1773
 6492SOL     OW27178   4.467   9.318   1.615  0.1613  0.3464 -0.0360
 6492SOL    HW127179   4.424   9.254   1.551  0.1634  0.6989 -0.3931
 6492SOL    HW227180   4.481   9.273   1.703 -2.1607  0.6374  0.5047
 6494SOL     OW27181   0.615   3.996   5.852  0.1742 -0.6128  0.0004
 6494SOL    HW127182   0.537   3.979   5.792 -0.3279  0.2446  0.3893
 6494SOL    HW227183   0.591   3.970   5.945  0.0782  0.3671  0.2546
 6495SOL     OW27184   8.870   4.857   3.847  0.0298 -0.2800  0.1544
 6495SOL    HW127185   8.936   4.867   3.922  0.4081  2.7311 -0.4943
 6495SOL    HW227186   8.898   4.915   3.771 -2.4138 -0.3481 -0.8345
 6496SOL     OW27187   9.501   5.664   1.677  0.3143 -0.3801 -0.8725
 6496SOL    HW127188   9.487   5.615   1.591  2.0930 -2.2417 -0.1514
 6496SOL    HW227189   9.453   5.616   1.751  1.2925 -0.5203 -0.3225
 6498SOL     OW27190   0.809   7.689   2.196 -0.2399 -0.1001  0.2649
 6498SOL    HW127191   0.905   7.681   2.224  0.0254  1.0033 -0.2878
 6498SOL    HW227192   0.750   7.678   2.276  0.3604 -0.4169  0.6733
 6499SOL     OW27193   3.621   3.043   4.567 -0.2578  0.6182  0.1859
 6499SOL    HW127194   3.634   3.007   4.659 -0.5236 -1.0614 -0.4265
 6499SOL    HW227195   3.668   2.984   4.501  1.4338  2.7742 -0.5984
 6500SOL     OW27196   5.472   2.318   0.625  0.5401  0.2352 -0.1321
 6500SOL    HW127197   5.439   2.271   0.543  1.6228  2.5598 -1.9658
 6500SOL    HW227198   5.405   2.308   0.699 -1.2430 -0.4759 -1.8167
 6501SOL     OW27199   7.540   5.478   3.245  0.1296 -0.0309  0.1068
 6501SOL    HW127200   7.606   5.404   3.258  0.0351 -0.4054 -1.4376
 6501SOL    HW227201   7.461   5.462   3.305  0.5456 -0.6455  0.5064
 6502SOL     OW27202   2.047   7.622   5.311  0.0187  0.3915 -0.6352
 6502SOL    HW127203   2.027   7.647   5.216 -2.3097 -0.0671 -0.2874
 6502SOL    HW227204   1.961   7.609   5.361  1.2086 -1.0041  1.1041
 6503SOL     OW27205   7.596   4.211   2.001  0.2158 -0.2269 -0.4580
 6503SOL    HW127206   7.675   4.157   1.972  1.0539 -0.0136  1.3324
 6503SOL    HW227207   7.568   4.182   2.093 -1.0940  0.4692 -0.6188
 6504SOL     OW27208   7.061   8.977   4.958 -0.1850  0.2484 -0.3613
 6504SOL    HW127209   7.113   8.898   4.992  1.4775  2.2221  1.8948
 6504SOL    HW227210   6.988   8.999   5.023  0.5399  1.6955 -0.0246
 6505SOL     OW27211   6.587   1.323   7.055  0.1847  0.2986 -0.2651
 6505SOL    HW127212   6.614   1.267   7.133  1.1076  0.0689 -0.7382
 6505SOL    HW227213   6.633   1.411   7.060  0.6432  0.0935 -0.8139
 6506SOL     OW27214   9.505   6.129   4.221 -0.6233 -0.2192  0.1433
 6506SOL    HW127215   9.469   6.222   4.226  0.8403  0.4571 -1.4026
 6506SOL    HW227216   9.507   6.088   4.312 -1.3182  1.2395  0.8171
 6507SOL     OW27217   1.625   9.684   5.590 -0.5650  0.8076  0.3497
 6507SOL    HW127218   1.619   9.784   5.598 -1.7234  0.5776  2.6109
 6507SOL    HW227219   1.539   9.649   5.553 -1.1252  0.4347  1.9663
 6508SOL     OW27220   9.056   1.250   2.638 -0.3486  0.5554  0.3862
 6508SOL    HW127221   9.138   1.277   2.588 -0.8719  0.7407 -0.3727
 6508SOL    HW227222   9.037   1.153   2.620 -2.4324  1.4200 -2.4952
 6509SOL     OW27223   3.969   7.755   4.941 -0.1507 -0.1811  0.1363
 6509SOL    HW127224   3.959   7.707   5.028  0.5856  0.9368  0.8370
 6509SOL    HW227225   4.025   7.836   4.953 -1.3948  0.8887 -1.0393
 6510SOL     OW27226   2.335   8.633   0.674 -0.0994  0.3297  0.5317
 6510SOL    HW127227   2.321   8.612   0.771 -1.3290  2.7042  0.9145
 6510SOL    HW227228   2.379   8.722   0.665 -1.2384  0.7516 -1.1202
 6511SOL     OW27229   0.115   9.639   1.700 -0.3993  0.4602  0.4323
 6511SOL    HW127230   0.043   9.571   1.711 -0.0535  0.0660  0.2899
 6511SOL    HW227231   0.151   9.666   1.789  1.6113 -1.8663  0.3893
 6512SOL     OW27232   0.254   5.322   0.343 -0.0256  0.3683  0.6039
 6512SOL    HW127233   0.156   5.341   0.354  0.2134  1.5468  0.7382
 6512SOL    HW227234   0.299   5.400   0.301  0.4600 -1.0773 -1.6702
 6513SOL     OW27235   8.046   0.111   5.255  0.4703 -0.0355 -0.1123
 6513SOL    HW127236   7.998   0.170   5.191  1.2527 -0.1687 -0.8297
 6513SOL    HW227237   7.980   0.065   5.315 -0.2622 -0.0106 -0.9029
 6514SOL     OW27238   3.647   6.751   6.334  0.1371 -0.1358 -0.0698
 6514SOL    HW127239   3.742   6.754   6.306 -0.4658 -0.9432 -2.2995
 6514SOL    HW227240   3.618   6.656   6.344 -0.0302  0.1318  2.0492
 6516SOL     OW27241   8.603   0.625   4.473 -0.5619  0.5829 -0.1092
 6516SOL    HW127242   8.541   0.560   4.428 -0.5946  0.6497 -0.1600
 6516SOL    HW227243   8.599   0.713   4.426  0.2045  0.3406 -0.6445
 6517SOL     OW27244   0.708   1.926   7.742  0.1303  0.0211 -0.5124
 6517SOL    HW127245   0.633   1.985   7.772  1.2585  1.6067 -0.7778
 6517SOL    HW227246   0.671   1.854   7.682 -1.2219  0.5798 -0.3704
 6518SOL     OW27247   7.917   2.823   4.558  0.2708 -0.1800 -0.0609
 6518SOL    HW127248   7.955   2.902   4.509  1.0414 -1.4427 -1.5506
 6518SOL    HW227249   7.965   2.811   4.645  0.7592  0.4637 -0.2405
 6519SOL     OW27250   9.079   9.528   4.896  0.6380  0.1031 -0.1137
 6519SOL    HW127251   9.017   9.466   4.848  0.7712 -0.5486  0.5530
 6519SOL    HW227252   9.104   9.603   4.835 -0.0993 -0.1050 -0.6837
 6520SOL     OW27253   9.869   5.496   7.600 -0.2758 -0.0600 -0.1531
 6520SOL    HW127254   9.865   5.401   7.629  1.3181 -0.0090  0.2782
 6520SOL    HW227255   9.965   5.523   7.587 -0.7094  1.5038 -0.1903
 6521SOL     OW27256   3.394   0.517   7.654 -0.6131  0.4929  0.2267
 6521SOL    HW127257   3.373   0.515   7.557 -1.8446  1.2116  0.4567
 6521SOL    HW227258   3.326   0.463   7.704 -0.7881  1.2516  0.8177
 6522SOL     OW27259   1.061   2.864   4.034  0.3050 -0.6812 -0.4018
 6522SOL    HW127260   1.045   2.848   3.937 -2.0520  1.7321 -0.4515
 6522SOL    HW227261   0.995   2.810   4.087  0.1054 -0.2456 -0.2102
 6523SOL     OW27262   8.082   1.889   3.346  0.0151  0.0432 -0.5120
 6523SOL    HW127263   8.105   1.918   3.439 -0.8586  2.4985 -1.0192
 6523SOL    HW227264   7.995   1.931   3.319  0.8628  0.3569 -2.8738
 6524SOL     OW27265   0.544   5.417   0.882  0.1252  0.3999  0.2660
 6524SOL    HW127266   0.630   5.366   0.890  0.1683  0.5351  0.7200
 6524SOL    HW227267   0.469   5.360   0.915  0.3131  0.9918  1.7771
 6526SOL     OW27268   6.856   9.573   6.201 -0.0455 -0.2224  0.3160
 6526SOL    HW127269   6.878   9.644   6.267 -0.7123 -0.8099  1.1720
 6526SOL    HW227270   6.851   9.613   6.109  1.9394  0.3951  0.4563
 6527SOL     OW27271   0.782   5.427   0.292 -0.0891  0.6470 -0.4594
 6527SOL    HW127272   0.755   5.522   0.305  1.7375  1.2731 -0.9825
 6527SOL    HW227273   0.785   5.380   0.380  1.2138  1.7233  0.0965
 6528SOL     OW27274   2.158   4.872   4.152 -0.8369 -0.4454 -0.0326
 6528SOL    HW127275   2.137   4.887   4.055  3.9397  0.0280 -1.1532
 6528SOL    HW227276   2.136   4.955   4.203 -0.7481  0.3544 -1.2484
 6529SOL     OW27277   3.992   6.721   0.877 -0.3276  0.6250  0.5051
 6529SOL    HW127278   4.014   6.784   0.952  1.7960  0.3833  0.1056
 6529SOL    HW227279   4.074   6.703   0.823 -0.9932 -2.2116  0.3755
 6531SOL     OW27280   1.540   2.559   5.808  0.0284 -0.8747 -0.3297
 6531SOL    HW127281   1.604   2.621   5.762 -1.5400 -0.7286 -2.3606
 6531SOL    HW227282   1.546   2.468   5.766 -0.2861 -1.1584  0.2408
 6532SOL     OW27283   0.103   3.889   2.453  0.1945 -0.5914 -0.7931
 6532SOL    HW127284   0.198   3.863   2.468 -0.1652 -2.1658 -1.1991
 6532SOL    HW227285   0.080   3.968   2.511  1.0579 -1.6756  1.0616
 6533SOL     OW27286   1.797   1.014   3.949 -0.2230 -0.2556  0.1043
 6533SOL    HW127287   1.815   0.959   3.868  0.4658  0.7485 -0.4435
 6533SOL    HW227288   1.702   1.047   3.947 -0.7889 -1.7915  0.6821
 6534SOL     OW27289   9.293   4.214   4.082 -0.0620  0.3130  0.0264
 6534SOL    HW127290   9.195   4.192   4.081  0.2755 -1.2618 -0.3711
 6534SOL    HW227291   9.334   4.187   3.994  0.5976  1.6218 -0.0815
 6535SOL     OW27292   7.709   2.478   3.704 -0.1393 -0.0656  0.3419
 6535SOL    HW127293   7.689   2.544   3.631  1.1948 -1.5361 -1.3758
 6535SOL    HW227294   7.657   2.503   3.786 -1.6364  1.6293 -1.0792
 6536SOL     OW27295   2.913   8.227   1.677 -0.4985 -0.4745  0.4654
 6536SOL    HW127296   2.845   8.284   1.630  0.5079 -0.8041 -1.4504
 6536SOL    HW227297   2.868   8.173   1.748 -1.8721  0.8839  0.6552
 6538SOL     OW27298   4.057   7.677   3.892 -0.1070 -0.0320  0.0089
 6538SOL    HW127299   4.006   7.595   3.918 -0.8091  0.8518  1.4961
 6538SOL    HW227300   4.149   7.652   3.863  0.2813 -1.1901  2.1734
 6539SOL     OW27301   8.339   3.197   4.821 -0.1362  0.2554 -0.0391
 6539SOL    HW127302   8.424   3.163   4.779 -1.0479  0.0439 -1.7630
 6539SOL    HW227303   8.348   3.295   4.840  0.5548  0.2045 -0.0917
 6540SOL     OW27304   0.958   6.220   4.698 -0.9267  0.0559 -0.2173
 6540SOL    HW127305   0.887   6.218   4.628 -0.4752  1.0061 -0.7000
 6540SOL    HW227306   0.979   6.314   4.722  1.1596 -0.1685 -1.0833
 6541SOL     OW27307   0.348   6.516   3.219  0.3694 -0.1750 -0.4433
 6541SOL    HW127308   0.337   6.424   3.257 -1.3803  0.3369  0.3216
 6541SOL    HW227309   0.430   6.558   3.258  0.3024 -0.8121  0.3930
 6542SOL     OW27310   4.980   4.186   1.864  0.1083 -0.5267 -0.1977
 6542SOL    HW127311   4.920   4.252   1.819 -0.9839 -0.8402  0.7657
 6542SOL    HW227312   5.057   4.234   1.907  0.2811 -0.0682 -1.0185
 6543SOL     OW27313   3.803   5.761   0.122  1.2045  0.0843  0.2241
 6543SOL    HW127314   3.834   5.856   0.122 -1.1393  0.8883  0.8890
 6543SOL    HW227315   3.749   5.743   0.204  0.1038 -1.2909 -0.7691
 6545SOL     OW27316   8.468   6.832   6.700 -0.4224  0.1586  0.2788
 6545SOL    HW127317   8.555   6.822   6.748 -0.7218  0.5621  0.9038
 6545SOL    HW227318   8.484   6.871   6.609  0.0206  0.4619  0.4859
 6546SOL     OW27319   5.426   2.235   1.458 -0.1064  0.4005  0.0423
 6546SOL    HW127320   5.500   2.170   1.439 -2.0424 -1.5731 -0.8916
 6546SOL    HW227321   5.448   2.323   1.416  1.3692 -0.3842 -0.8800
 6547SOL     OW27322   6.720   4.596   0.501 -0.4049 -0.3551 -0.6447
 6547SOL    HW127323   6.634   4.586   0.450 -0.0457 -3.0172 -0.7609
 6547SOL    HW227324   6.700   4.592   0.599 -0.3499 -1.7049 -0.6792
 6548SOL     OW27325   3.180   5.272   5.221 -0.2182 -0.2141  0.9194
 6548SOL    HW127326   3.233   5.267   5.136 -1.1257  0.8607  0.2892
 6548SOL    HW227327   3.208   5.353   5.273 -0.6317 -0.1245  1.0006
 6550SOL     OW27328   9.258   6.598   2.639 -0.0174  0.6650 -0.1755
 6550SOL    HW127329   9.172   6.629   2.599  0.6833  0.0052 -2.2730
 6550SOL    HW227330   9.326   6.671   2.634  0.4728  0.1335 -1.4898
 6551SOL     OW27331   0.251   0.246   0.575  0.0488  0.2125 -0.8275
 6551SOL    HW127332   0.310   0.169   0.600 -0.2634  0.0840 -0.4795
 6551SOL    HW227333   0.197   0.222   0.493 -1.1538 -0.5151  0.1555
 6552SOL     OW27334   7.195   0.305   1.685  0.2667 -0.4202  0.4000
 6552SOL    HW127335   7.282   0.255   1.689 -0.1462 -1.1810 -0.1504
 6552SOL    HW227336   7.210   0.394   1.642  0.5323 -1.0720 -0.8840
 6553SOL     OW27337   7.499   7.917   3.509 -0.1995  0.3111  0.5571
 6553SOL    HW127338   7.429   7.974   3.465 -1.6598 -0.7857  1.4331
 6553SOL    HW227339   7.555   7.874   3.439 -0.9551  0.5163 -0.1895
 6554SOL     OW27340   2.060   2.970   0.224  0.1232  0.2458  0.3694
 6554SOL    HW127341   2.121   3.025   0.167  0.8653  0.1606  1.0675
 6554SOL    HW227342   2.088   2.875   0.222  0.2833  0.2758  1.0407
 6555SOL     OW27343   1.824   6.769   4.865 -0.1573  0.2929 -0.4608
 6555SOL    HW127344   1.837   6.676   4.829 -0.0439 -0.9651  2.6702
 6555SOL    HW227345   1.905   6.824   4.845  0.4147 -0.7278 -1.0060
 6556SOL     OW27346   0.625   3.114   4.167 -0.0006 -0.2938 -0.2959
 6556SOL    HW127347   0.598   3.024   4.132  0.3263 -0.3947 -0.2937
 6556SOL    HW227348   0.575   3.185   4.118 -1.0486 -0.5152  0.4381
 6557SOL     OW27349   3.760   9.796   1.094 -0.1887  0.3521  0.5539
 6557SOL    HW127350   3.733   9.780   1.189  3.0982 -0.7463  1.3727
 6557SOL    HW227351   3.775   9.894   1.079 -2.3842  0.7223  0.6621
 6559SOL     OW27352   1.422   3.655   5.384 -0.1389  0.3748 -0.0078
 6559SOL    HW127353   1.412   3.736   5.327 -0.5542  0.1424 -0.2744
 6559SOL    HW227354   1.440   3.682   5.479 -0.6284  0.7800 -0.0281
 6560SOL     OW27355   2.340   6.465   2.961 -0.0400 -0.2276  0.1426
 6560SOL    HW127356   2.402   6.408   3.017 -0.0430  0.3316  0.7216
 6560SOL    HW227357   2.382   6.554   2.946 -0.7458  0.1870  0.6192
 6561SOL     OW27358   2.349   6.825   3.961  0.0438 -0.1304  0.2339
 6561SOL    HW127359   2.428   6.864   3.914  0.2697 -2.5813 -1.5506
 6561SOL    HW227360   2.270   6.885   3.947  1.0521  1.2112  0.1355
 6562SOL     OW27361   4.941   3.289   1.110  0.1998  0.2303 -0.1263
 6562SOL    HW127362   5.007   3.215   1.126  0.2991  0.6032  1.2763
 6562SOL    HW227363   4.972   3.347   1.035  1.5644  0.5162  0.6555
 6563SOL     OW27364   8.871   5.458   7.403 -0.0684  0.1671 -0.1324
 6563SOL    HW127365   8.914   5.540   7.363  1.1407 -0.1544  0.4743
 6563SOL    HW227366   8.872   5.465   7.502  1.0834 -1.0776 -0.0350
 6564SOL     OW27367   3.662   9.278   6.937 -0.1420  0.7739 -0.2754
 6564SOL    HW127368   3.587   9.230   6.981  0.3931  0.2937  0.1250
 6564SOL    HW227369   3.715   9.329   7.005 -0.8756  2.1824 -0.7316
 6565SOL     OW27370   5.404   7.995   1.975  0.5602 -0.0399 -0.6474
 6565SOL    HW127371   5.358   8.032   1.895  1.1143  0.3537 -0.7865
 6565SOL    HW227372   5.502   8.015   1.970  0.9081 -1.7170 -0.8289
 6566SOL     OW27373   2.178   8.074   6.707 -0.2346 -0.2890  0.0798
 6566SOL    HW127374   2.216   8.068   6.799 -1.0531 -0.3370  0.4264
 6566SOL    HW227375   2.205   7.994   6.654 -0.4138 -0.6633  0.5406
 6567SOL     OW27376   1.936   2.492   3.695 -0.3388 -0.0094  0.0162
 6567SOL    HW127377   1.983   2.564   3.746  0.8715 -1.7521  1.4145
 6567SOL    HW227378   1.847   2.475   3.736 -0.8934  1.0938 -0.6969
 6568SOL     OW27379   4.074   3.099   7.625 -0.8941  0.5125 -0.0377
 6568SOL    HW127380   4.115   3.189   7.638 -1.5584  1.0612 -1.6445
 6568SOL    HW227381   4.040   3.065   7.713  0.1322  1.4367  0.7316
 6569SOL     OW27382   4.372   8.776   1.591 -0.3386 -0.5466  0.1408
 6569SOL    HW127383   4.330   8.834   1.661  0.8323  0.9454 -0.3642
 6569SOL    HW227384   4.315   8.777   1.509  0.9965  2.0579 -0.7997
 6571SOL     OW27385   2.610   2.816   3.151 -0.2360  0.1034  0.0498
 6571SOL    HW127386   2.687   2.857   3.200 -0.2535  0.7532 -0.4615
 6571SOL    HW227387   2.618   2.717   3.154 -2.1772 -0.0235  4.5078
 6572SOL     OW27388   7.448   4.342   0.776 -0.0844  0.4179  0.1904
 6572SOL    HW127389   7.516   4.333   0.703 -1.5348  0.2526 -1.1731
 6572SOL    HW227390   7.467   4.275   0.848  1.2451  0.4489 -0.1175
 6573SOL     OW27391   5.001   9.832   2.321  0.2088 -0.0786  0.3021
 6573SOL    HW127392   5.030   9.746   2.364 -1.3101 -0.0266  1.4519
 6573SOL    HW227393   5.082   9.887   2.298  1.1067 -0.9741  1.2841
 6574SOL     OW27394   2.704   9.007   0.129 -0.2780 -0.2833  0.2270
 6574SOL    HW127395   2.694   9.009   0.228 -0.5090 -1.0246  0.2179
 6574SOL    HW227396   2.653   8.930   0.092 -1.0594  0.6042 -0.5684
 6575SOL     OW27397   2.986   0.431   1.479  0.4096  0.4133  0.0345
 6575SOL    HW127398   2.995   0.333   1.458 -1.5782  0.2312 -0.1051
 6575SOL    HW227399   3.002   0.446   1.576 -1.3474 -0.3939  0.4825
 6576SOL     OW27400   9.479   5.591   7.645  0.1912  0.3345 -0.3224
 6576SOL    HW127401   9.456   5.560   7.738  1.9655 -1.9682 -0.6164
 6576SOL    HW227402   9.538   5.671   7.651  1.1839 -0.4379  0.5925
 6577SOL     OW27403   1.620   3.657   5.768 -0.3998  0.1800 -0.0065
 6577SOL    HW127404   1.696   3.716   5.795  0.1730 -1.1203  1.2666
 6577SOL    HW227405   1.534   3.709   5.772  0.1229  1.0023  0.8349
 6578SOL     OW27406   3.168   3.479   7.244  0.3243  0.2574  0.5116
 6578SOL    HW127407   3.103   3.540   7.288 -0.2983 -1.0608  1.4426
 6578SOL    HW227408   3.208   3.525   7.165 -0.6204  1.6227  0.8091
 6579SOL     OW27409   2.060   5.535   6.152 -0.2024  0.3298 -0.1805
 6579SOL    HW127410   1.979   5.535   6.093  2.1601 -0.5257 -3.6023
 6579SOL    HW227411   2.071   5.626   6.193 -1.3139  1.2921 -1.9462
 6580SOL     OW27412   3.255   0.281   6.438  0.0672 -0.6094  0.2355
 6580SOL    HW127413   3.175   0.336   6.461  1.2771  0.6916  1.4449
 6580SOL    HW227414   3.274   0.216   6.512  1.4440  0.6469  1.0198
 6581SOL     OW27415   4.293   8.616   6.412  0.1185  0.0536 -0.0103
 6581SOL    HW127416   4.239   8.694   6.381  1.3174 -0.2724 -3.0537
 6581SOL    HW227417   4.231   8.545   6.448 -1.4201  0.1217 -2.4244
 6582SOL     OW27418   6.295   4.572   1.118  0.1011  0.2261  0.3703
 6582SOL    HW127419   6.330   4.650   1.170 -0.5754  1.5644 -1.1333
 6582SOL    HW227420   6.239   4.514   1.178  1.2213  0.4706  1.6847
 6583SOL     OW27421   0.946   6.678   5.200  0.8435 -0.1082  0.0415
 6583SOL    HW127422   0.861   6.649   5.244 -0.7949  2.7802 -1.0333
 6583SOL    HW227423   1.016   6.696   5.269 -0.2407 -0.0550  1.1350
 6584SOL     OW27424   0.537   8.875   0.957  0.1018  0.0020 -0.3800
 6584SOL    HW127425   0.574   8.801   1.014  0.3986  0.0225 -0.5435
 6584SOL    HW227426   0.488   8.940   1.014 -1.7655 -1.3052 -0.4742
 6587SOL     OW27427   1.019   6.375   7.110  0.5773  0.0739  0.0639
 6587SOL    HW127428   1.110   6.416   7.106 -0.1423  1.5588 -1.7109
 6587SOL    HW227429   0.987   6.357   7.017 -1.2539  0.2330  0.6645
 6588SOL     OW27430   8.322   4.598   7.388  0.1880  0.1891  0.2588
 6588SOL    HW127431   8.262   4.641   7.321  0.8283 -0.9575 -1.0782
 6588SOL    HW227432   8.295   4.502   7.399  1.1250 -0.0642  0.4006
 6589SOL     OW27433   1.426   1.657   0.484 -0.1337  0.8206 -0.7784
 6589SOL    HW127434   1.502   1.655   0.550 -0.2363  1.2725 -0.6444
 6589SOL    HW227435   1.447   1.597   0.407 -0.2084 -0.0682 -0.1203
 6590SOL     OW27436   3.008   2.487   7.881  0.6647 -0.0380  0.3540
 6590SOL    HW127437   2.971   2.527   7.797 -0.1886 -0.0840  0.7081
 6590SOL    HW227438   2.995   2.388   7.879  1.4440 -0.1449  0.1492
 6591SOL     OW27439   9.056   1.497   7.326 -0.0837 -0.1262  0.4220
 6591SOL    HW127440   9.057   1.577   7.386 -0.5947  1.0847 -1.1242
 6591SOL    HW227441   9.121   1.511   7.251 -1.1680 -0.5499 -0.6215
 6592SOL     OW27442   3.749   7.356   4.272 -0.0219 -0.3420 -0.4589
 6592SOL    HW127443   3.813   7.402   4.334  0.2948 -1.5784  0.1329
 6592SOL    HW227444   3.734   7.414   4.192 -0.4102  1.2493  0.7402
 6593SOL     OW27445   3.800   1.367   7.522  0.2505 -0.0457  0.9389
 6593SOL    HW127446   3.804   1.446   7.460 -1.0558 -1.3191 -0.8296
 6593SOL    HW227447   3.889   1.321   7.523  0.3724  0.1580  0.2094
 6594SOL     OW27448   4.135   1.625   0.956 -0.1652  0.4248  0.4395
 6594SOL    HW127449   4.126   1.720   0.925  0.4321 -0.2013 -1.6944
 6594SOL    HW227450   4.046   1.590   0.983 -0.5281  1.2984  0.3806
 6595SOL     OW27451   4.969   8.787   7.558  0.2364 -0.2508 -0.1392
 6595SOL    HW127452   4.929   8.785   7.466  3.2898 -0.7434 -1.5241
 6595SOL    HW227453   5.029   8.866   7.565  1.7389 -1.4478  0.6644
 6596SOL     OW27454   8.148   2.192   4.605 -0.0816 -0.6296 -0.0316
 6596SOL    HW127455   8.087   2.271   4.598  0.4897  0.0352  2.0899
 6596SOL    HW227456   8.104   2.112   4.564 -0.3844  0.9176 -2.8018
 6597SOL     OW27457   7.926   6.570   7.627  0.2162 -0.2337 -0.8456
 6597SOL    HW127458   7.836   6.532   7.649 -0.1594  0.0149 -1.9456
 6597SOL    HW227459   7.940   6.655   7.678  0.3628 -0.9401  0.3107
 6598SOL     OW27460   8.546   2.609   2.257  0.2506  0.3239  0.0156
 6598SOL    HW127461   8.489   2.529   2.276 -1.4379  1.2161 -1.2642
 6598SOL    HW227462   8.623   2.582   2.199 -0.7491 -0.2322 -1.0570
 6599SOL     OW27463   3.908   7.276   0.057  0.3040  0.1705 -0.0363
 6599SOL    HW127464   3.988   7.288  -0.002  1.1832 -0.1282  1.0657
 6599SOL    HW227465   3.860   7.193   0.030  0.6768  0.0532 -0.3583
 6600SOL     OW27466   5.289   0.054   3.780 -0.1862  0.3932 -0.1026
 6600SOL    HW127467   5.196   0.069   3.817 -0.9989 -0.8863 -1.5802
 6600SOL    HW227468   5.352   0.037   3.856 -1.1707  1.2175  0.9198
 6601SOL     OW27469   0.620   6.011   5.562  0.6371  0.2575 -0.1525
 6601SOL    HW127470   0.649   6.073   5.489  0.0687 -1.3229 -1.7653
 6601SOL    HW227471   0.596   6.064   5.643  2.7632  1.9427 -0.5886
 6602SOL     OW27472   7.738   0.356   1.872  0.2033  0.1156 -0.1778
 6602SOL    HW127473   7.732   0.277   1.932 -0.2803  1.7009  1.9265
 6602SOL    HW227474   7.669   0.349   1.800 -0.7173 -0.7466  0.7677
 6604SOL     OW27475   9.528   2.380   5.187  0.6637  0.8111  0.0894
 6604SOL    HW127476   9.526   2.340   5.278  2.1841  2.3871  0.8519
 6604SOL    HW227477   9.607   2.344   5.137 -0.9959 -1.1709 -1.1584
 6607SOL     OW27478   7.955   2.663   0.598  0.2453 -0.1047  0.1662
 6607SOL    HW127479   7.964   2.567   0.570 -2.1361 -0.9676  2.1519
 6607SOL    HW227480   7.859   2.690   0.594  0.2899  0.8824  3.7008
 6610SOL     OW27481   0.349   0.640   5.974 -0.3178  0.1366  0.1257
 6610SOL    HW127482   0.434   0.687   5.951 -1.1236  0.6429 -1.9116
 6610SOL    HW227483   0.370   0.548   6.007  1.0473  0.5647  0.5041
 6611SOL     OW27484   0.546   4.325   0.481  0.0145 -0.1983 -0.2807
 6611SOL    HW127485   0.545   4.414   0.434 -0.0945 -0.1976 -0.2760
 6611SOL    HW227486   0.640   4.301   0.503  0.0959 -0.3543 -0.7954
 6612SOL     OW27487   0.126   6.715   7.415 -0.1032  0.1518  0.8560
 6612SOL    HW127488   0.038   6.675   7.387 -1.2543  0.0708  4.3712
 6612SOL    HW227489   0.113   6.810   7.441  0.8884  0.1931  1.2280
 6613SOL     OW27490   0.798   1.406   4.479  0.5586 -0.3493  0.5352
 6613SOL    HW127491   0.733   1.480   4.498  1.6845  0.8495 -0.1761
 6613SOL    HW227492   0.758   1.319   4.505 -0.8556  0.4994  1.2571
 6614SOL     OW27493   9.851   6.225   5.484  0.6025 -0.0345 -0.0280
 6614SOL    HW127494   9.850   6.299   5.551  1.3531 -1.8403  2.0314
 6614SOL    HW227495   9.942   6.183   5.481 -0.0992 -1.6046 -0.3316
 6615SOL     OW27496   7.132   6.883   5.438 -0.1254 -0.0522 -0.0929
 6615SOL    HW127497   7.140   6.943   5.358  2.6096  1.4315  1.2320
 6615SOL    HW227498   7.067   6.922   5.503 -0.7282 -0.1512 -0.6416
 6617SOL     OW27499   4.822   9.805   4.503  0.5705 -0.1523  0.0793
 6617SOL    HW127500   4.792   9.752   4.583  0.1866  1.7542  1.2179
 6617SOL    HW227501   4.921   9.819   4.508  0.5177  0.1308  0.3097
 6618SOL     OW27502   0.415   7.371   6.761 -0.0967  0.0108  0.4903
 6618SOL    HW127503   0.332   7.422   6.736 -0.9542 -2.6422 -2.4062
 6618SOL    HW227504   0.492   7.435   6.768 -1.0219  1.7577 -3.5132
 6619SOL     OW27505   8.267   0.059   2.418 -0.7527  0.7604 -0.0819
 6619SOL    HW127506   8.206   0.014   2.353  1.4915 -1.3787 -0.7525
 6619SOL    HW227507   8.298   0.146   2.380  1.6334 -1.1009 -2.5894
 6620SOL     OW27508   0.237   3.344   1.146  0.0412 -1.2030 -0.2055
 6620SOL    HW127509   0.157   3.343   1.086 -0.7281  2.4424  0.5865
 6620SOL    HW227510   0.320   3.328   1.092 -0.6087  2.1477 -2.4072
 6621SOL     OW27511   0.528   2.397   7.227  0.0091  0.2148 -0.2931
 6621SOL    HW127512   0.482   2.396   7.138 -0.3280 -0.9022 -0.1051
 6621SOL    HW227513   0.585   2.316   7.236  0.7084  0.7500  0.1734
 6622SOL     OW27514   1.395   9.890   5.932  0.1746 -0.0058 -0.3547
 6622SOL    HW127515   1.383   9.832   6.012  0.3204 -0.4083 -0.6234
 6622SOL    HW227516   1.480   9.942   5.941  0.1521  0.0053 -0.2131
 6623SOL     OW27517   2.849   7.776   2.434 -0.1927  0.1971  0.6207
 6623SOL    HW127518   2.801   7.839   2.495 -1.3818 -0.3888  0.3010
 6623SOL    HW227519   2.855   7.817   2.343  1.2113  0.8910  1.0130
 6624SOL     OW27520   7.942   1.066   3.950  0.3149 -0.0683  0.0623
 6624SOL    HW127521   8.020   1.115   3.910 -0.2139 -0.6477 -1.7304
 6624SOL    HW227522   7.964   0.969   3.957  0.0956 -0.0914  0.3923
 6625SOL     OW27523   2.395   2.259   5.797  0.4596 -0.0525 -0.4323
 6625SOL    HW127524   2.304   2.289   5.825  0.2551 -0.8022 -0.2780
 6625SOL    HW227525   2.390   2.165   5.763  0.6815  0.8422 -3.1048
 6626SOL     OW27526   5.920   2.149   1.501 -0.3441 -0.0736 -0.2738
 6626SOL    HW127527   5.915   2.117   1.595  1.0275 -0.7100 -0.4097
 6626SOL    HW227528   5.876   2.239   1.494 -1.9770 -0.7787  0.6134
 6627SOL     OW27529   8.527   5.476   5.793 -0.2184  0.3357 -0.1049
 6627SOL    HW127530   8.606   5.506   5.846  2.2061 -0.3350 -3.1723
 6627SOL    HW227531   8.504   5.382   5.819  1.4592 -0.2772 -0.7775
 6628SOL     OW27532   8.899   7.599   0.704 -0.5447 -0.6688 -0.6285
 6628SOL    HW127533   8.947   7.625   0.620 -1.7936 -2.2499 -1.8682
 6628SOL    HW227534   8.805   7.634   0.700  0.0595  1.3058  1.2075
 6629SOL     OW27535   5.626   8.426   7.182  0.3242  0.4930 -0.1824
 6629SOL    HW127536   5.554   8.390   7.241 -2.3136  1.9283 -2.4473
 6629SOL    HW227537   5.644   8.521   7.205  0.5254  0.5376 -0.5211
 6630SOL     OW27538   4.981   9.842   6.428 -0.1513  0.0693  0.1729
 6630SOL    HW127539   5.067   9.803   6.394 -0.1171  0.9234 -0.7267
 6630SOL    HW227540   4.985   9.848   6.528  1.6942  2.0170  0.0318
 6631SOL     OW27541   6.149   0.625   1.526  0.5143 -0.1738  0.4537
 6631SOL    HW127542   6.127   0.671   1.440  1.8734  0.9087  0.6710
 6631SOL    HW227543   6.095   0.540   1.533 -1.7904  1.2004 -0.0913
 6632SOL     OW27544   9.649   7.317   0.925 -0.1940 -0.2421  0.2417
 6632SOL    HW127545   9.565   7.288   0.878 -0.3079 -0.2498  0.4463
 6632SOL    HW227546   9.683   7.242   0.982 -0.0994 -0.2084  0.2284
 6633SOL     OW27547   6.905   8.244   6.718 -0.5210  0.0200  0.1062
 6633SOL    HW127548   6.880   8.243   6.621  2.1112  0.7369 -0.6354
 6633SOL    HW227549   7.003   8.261   6.726 -0.4101 -1.6614  2.8629
 6634SOL     OW27550   3.919   5.871   4.866 -0.3696  0.0474  0.2733
 6634SOL    HW127551   3.981   5.932   4.817 -1.3494  1.0023  0.1933
 6634SOL    HW227552   3.969   5.790   4.897  0.7517  0.4813 -0.3724
 6635SOL     OW27553   0.303   2.089   7.238 -0.0433 -0.1308 -0.8940
 6635SOL    HW127554   0.388   2.071   7.189  0.3464  0.5360 -0.4638
 6635SOL    HW227555   0.323   2.130   7.327 -0.8582  1.1501 -1.2875
 6636SOL     OW27556   3.806   4.559   7.082 -0.1781 -0.0778 -0.0910
 6636SOL    HW127557   3.901   4.544   7.053  0.2074 -0.8988  1.5273
 6636SOL    HW227558   3.803   4.635   7.146 -0.4441 -0.7637  0.7190
 6637SOL     OW27559   8.889   6.375   3.980 -0.8220  0.1550  0.2617
 6637SOL    HW127560   8.961   6.421   3.928 -1.1028  0.6099  0.2725
 6637SOL    HW227561   8.930   6.305   4.039 -0.0517  2.4337  2.5344
 6638SOL     OW27562   1.437   8.279   3.336  0.2084  0.2929 -0.1823
 6638SOL    HW127563   1.471   8.334   3.259  1.1154  1.7568  1.2199
 6638SOL    HW227564   1.341   8.300   3.352 -0.3442 -0.9759 -1.7119
 6639SOL     OW27565   0.625   2.010   6.710  0.2195 -0.3221 -0.3917
 6639SOL    HW127566   0.559   2.001   6.784 -0.5392 -1.8318 -1.2231
 6639SOL    HW227567   0.674   1.923   6.699  2.3908  0.7656  0.2340
 6640SOL     OW27568   9.294   4.475   5.183 -0.1373  0.0766 -0.3419
 6640SOL    HW127569   9.236   4.414   5.129 -0.7090 -0.2208  0.5835
 6640SOL    HW227570   9.253   4.566   5.187 -0.8720 -0.2897  0.8120
 6643SOL     OW27571   6.286   1.322   0.239  0.4116 -0.0179 -0.4439
 6643SOL    HW127572   6.309   1.228   0.262 -1.8426 -0.1955  1.2496
 6643SOL    HW227573   6.229   1.324   0.156 -2.4502 -0.4704  1.4583
 6644SOL     OW27574   8.478   3.079   2.952  0.5681 -0.9609  0.0411
 6644SOL    HW127575   8.411   3.150   2.931  0.6264  0.4259  4.0365
 6644SOL    HW227576   8.434   2.989   2.945 -0.8383 -0.2551 -0.4723
 6645SOL     OW27577   6.027   3.651   0.446  0.2191 -0.2485 -0.6849
 6645SOL    HW127578   6.005   3.694   0.533  0.1046  0.2541 -0.9613
 6645SOL    HW227579   5.952   3.590   0.419 -0.6463  1.1182 -1.4013
 6646SOL     OW27580   5.311   0.500   6.407  0.2413  0.1430 -0.2207
 6646SOL    HW127581   5.311   0.489   6.307 -1.7139 -0.6414 -0.1557
 6646SOL    HW227582   5.360   0.584   6.431  2.5570 -0.7572 -1.6894
 6649SOL     OW27583   0.781   4.160   0.141  0.2681  0.1436  0.1194
 6649SOL    HW127584   0.723   4.200   0.070  0.5740 -2.2131 -1.5203
 6649SOL    HW227585   0.866   4.212   0.147  0.6333 -0.1590 -1.9221
 6650SOL     OW27586   1.210   0.454   4.278  0.8031  0.1051  0.2853
 6650SOL    HW127587   1.301   0.422   4.253  0.4842  0.6347 -1.6647
 6650SOL    HW227588   1.159   0.380   4.321  1.0318 -1.1882 -1.6194
 6651SOL     OW27589   2.414   8.343   7.520  0.6481  0.1813 -0.1768
 6651SOL    HW127590   2.388   8.259   7.567  0.9800 -0.1057 -0.5053
 6651SOL    HW227591   2.443   8.322   7.426  3.2014  0.3368  0.5364
 6655SOL     OW27592   2.353   1.975   1.998  0.2693  0.6392 -0.1165
 6655SOL    HW127593   2.370   2.065   2.037 -2.8961  1.9434 -1.6248
 6655SOL    HW227594   2.300   1.920   2.063  0.7049  0.4696  0.0970
 6656SOL     OW27595   7.161   0.698   7.036 -0.1436  0.4386 -0.1600
 6656SOL    HW127596   7.163   0.768   7.108  1.4896  0.2762 -0.0167
 6656SOL    HW227597   7.237   0.635   7.050  0.9251  1.1003 -2.7083
 6657SOL     OW27598   0.011   1.223   4.436  0.0715 -0.8451 -0.2409
 6657SOL    HW127599  -0.039   1.297   4.480  0.4265 -1.4265  1.1702
 6657SOL    HW227600  -0.022   1.211   4.342 -0.9774  0.1417 -0.0030
 6661SOL     OW27601   8.019   2.483   2.748  0.1852 -0.0022  0.5889
 6661SOL    HW127602   8.028   2.394   2.702  0.4800  1.6344 -2.6244
 6661SOL    HW227603   8.009   2.468   2.847  3.1817 -3.5019  0.4960
 6662SOL     OW27604   7.290   0.260   7.785  0.3007  0.3989  0.1632
 6662SOL    HW127605   7.261   0.278   7.691  0.5459  1.5354  0.3058
 6662SOL    HW227606   7.243   0.178   7.819 -0.1867  0.2889 -0.7613
 6664SOL     OW27607   9.658   4.273   4.428 -0.3654 -0.5739  0.4266
 6664SOL    HW127608   9.741   4.264   4.484  0.1046  0.1913 -0.1466
 6664SOL    HW227609   9.595   4.199   4.452 -0.3528 -0.0131  2.2813
 6665SOL     OW27610   2.725   0.272   3.623 -0.2520  0.6812  0.5578
 6665SOL    HW127611   2.724   0.368   3.595 -0.9044  0.5698  0.1829
 6665SOL    HW227612   2.631   0.240   3.635 -0.0311  0.1424  0.8661
 6666SOL     OW27613   2.580   4.069   1.089  0.5882 -0.1233  0.4489
 6666SOL    HW127614   2.571   3.975   1.057  1.1011 -0.5371  1.5011
 6666SOL    HW227615   2.495   4.119   1.072  0.8960 -0.2867 -1.6972
 6667SOL     OW27616   9.049   1.331   5.360 -0.1904  0.2807  0.1173
 6667SOL    HW127617   9.005   1.312   5.447 -1.0855 -1.4359 -0.6795
 6667SOL    HW227618   9.052   1.247   5.305 -1.3412  1.7545 -2.2696
 6669SOL     OW27619   3.238   1.791   1.996 -0.0284 -0.1906  0.1859
 6669SOL    HW127620   3.181   1.740   1.931 -1.0065  2.4908 -1.1270
 6669SOL    HW227621   3.182   1.856   2.046  1.4007  0.4632  0.9667
 6670SOL     OW27622   9.217   4.221   0.928  0.2008 -0.6125  0.0772
 6670SOL    HW127623   9.290   4.177   0.876  0.9727  0.7723 -0.0359
 6670SOL    HW227624   9.137   4.161   0.931  1.2372 -2.0301 -0.0356
 6672SOL     OW27625   8.405   4.986   0.784  0.3019  0.6618 -0.1437
 6672SOL    HW127626   8.492   5.005   0.829  0.4804  0.3574 -0.3634
 6672SOL    HW227627   8.362   5.072   0.757  1.6735  0.7051 -2.2434
 6673SOL     OW27628   2.487   1.833   5.186 -0.3711 -0.2582 -0.1381
 6673SOL    HW127629   2.430   1.792   5.114  1.4872 -0.0206 -1.7655
 6673SOL    HW227630   2.526   1.760   5.243  0.0999 -0.5653 -0.8560
 6674SOL     OW27631   4.011   8.607   1.427  0.1199  0.3986  0.8132
 6674SOL    HW127632   3.937   8.642   1.484  0.9116  2.1649  0.8048
 6674SOL    HW227633   4.035   8.514   1.456 -1.6401  0.0499  1.2246
 6675SOL     OW27634   9.989   2.118   3.478  0.0889  0.4803  0.5244
 6675SOL    HW127635  10.060   2.099   3.547  1.0917 -1.1987 -0.9308
 6675SOL    HW227636   9.974   2.036   3.423  0.6599  2.3417 -2.4776
 6676SOL     OW27637   8.369   6.084   2.166  0.2159  0.2052 -0.4528
 6676SOL    HW127638   8.388   5.986   2.163 -0.5343  0.0317  0.3496
 6676SOL    HW227639   8.287   6.101   2.220  1.4195  1.4474  1.0234
 6677SOL     OW27640   7.367   0.533   4.498  0.0235  0.0942  0.1079
 6677SOL    HW127641   7.387   0.630   4.486  1.1935 -0.1077  0.4139
 6677SOL    HW227642   7.447   0.479   4.474  0.1304 -0.6807  2.1401
 6678SOL     OW27643   8.378   0.397   6.348 -0.1656 -0.3297  0.7108
 6678SOL    HW127644   8.470   0.418   6.381  0.6575 -1.1160 -1.0670
 6678SOL    HW227645   8.342   0.476   6.299  0.5327 -0.8710 -0.6981
 6679SOL     OW27646   2.864   1.707   7.245  0.0360  0.0357  0.4122
 6679SOL    HW127647   2.885   1.645   7.322 -0.2623 -0.5810  0.0016
 6679SOL    HW227648   2.888   1.662   7.159  2.0197  1.3878  0.2066
 6680SOL     OW27649   1.405   0.833   7.469  0.3836 -0.4304  0.3617
 6680SOL    HW127650   1.400   0.924   7.429 -2.4342 -1.3502 -1.5283
 6680SOL    HW227651   1.483   0.783   7.431  0.8486  0.5390  0.0378
 6681SOL     OW27652   1.391   7.318   4.405  0.0636  0.3839  0.1550
 6681SOL    HW127653   1.368   7.372   4.325 -0.1389  1.0685  0.6736
 6681SOL    HW227654   1.457   7.247   4.380 -0.3507  0.3001 -0.7085
 6682SOL     OW27655   0.346   0.164   1.345 -0.4937  0.1776  0.5730
 6682SOL    HW127656   0.382   0.222   1.271  0.0876 -0.2168  0.5446
 6682SOL    HW227657   0.339   0.070   1.313  0.8045 -0.1970  1.3692
 6684SOL     OW27658   3.873   2.576   0.700  0.5342 -0.4516  0.6920
 6684SOL    HW127659   3.943   2.632   0.745 -0.4329  1.7181 -0.4430
 6684SOL    HW227660   3.803   2.550   0.767 -0.4320  2.0106  0.6911
 6685SOL     OW27661   1.975   3.858   7.250  0.5593  0.4753  0.5686
 6685SOL    HW127662   1.962   3.830   7.155  0.8408  0.2011  0.6094
 6685SOL    HW227663   2.065   3.900   7.261 -0.5866  3.1588  0.1007
 6686SOL     OW27664   5.029   6.094   0.388 -0.3801 -0.1850  0.2419
 6686SOL    HW127665   4.932   6.078   0.408  0.4150 -1.7631  3.1313
 6686SOL    HW227666   5.054   6.047   0.303 -2.3437  1.0783 -1.0772
 6687SOL     OW27667   1.148   6.731   0.523  0.4960  0.5055 -0.2192
 6687SOL    HW127668   1.187   6.796   0.589 -0.2389 -0.5719  1.3105
 6687SOL    HW227669   1.049   6.727   0.535  0.3885  0.1049 -1.2233
 6688SOL     OW27670   8.443   1.771   6.568 -0.4409  0.1974  0.0092
 6688SOL    HW127671   8.444   1.673   6.585 -1.8842  0.0255 -0.8842
 6688SOL    HW227672   8.466   1.789   6.473 -0.1745  0.7388  0.1671
 6689SOL     OW27673   1.256   4.895   0.629  0.6127 -0.2988  0.2528
 6689SOL    HW127674   1.167   4.912   0.588  0.1944  0.4809  1.4538
 6689SOL    HW227675   1.327   4.947   0.581 -0.1975  2.4209  1.9237
 6690SOL     OW27676   2.131   6.649   5.252 -0.2431 -0.1549  0.5525
 6690SOL    HW127677   2.199   6.658   5.325  0.7129  0.4842 -0.3955
 6690SOL    HW227678   2.131   6.732   5.196 -1.7812 -0.1641  0.5026
 6691SOL     OW27679   9.991   3.621   4.970  0.1894 -0.1396 -0.3205
 6691SOL    HW127680  10.085   3.605   5.001 -0.0650 -0.8442  0.1149
 6691SOL    HW227681   9.987   3.618   4.870  0.7519  0.5820 -0.3596
 6692SOL     OW27682   5.245   8.047   2.435 -0.0804  0.2744 -0.1381
 6692SOL    HW127683   5.336   8.082   2.414 -0.5738  1.6438 -0.0385
 6692SOL    HW227684   5.228   8.056   2.533 -0.1612 -0.3791 -0.0900
 6693SOL     OW27685   1.499   3.376   1.882 -0.5673 -0.2836  0.2125
 6693SOL    HW127686   1.531   3.447   1.819 -0.6398 -1.3212 -1.0021
 6693SOL    HW227687   1.408   3.400   1.915  0.0878  1.0222  1.1210
 6695SOL     OW27688   3.651   8.111   7.591  0.6289  0.2320  0.5073
 6695SOL    HW127689   3.594   8.039   7.631 -0.6685  0.5579 -0.6983
 6695SOL    HW227690   3.747   8.083   7.593  0.0269 -2.1200 -1.1692
 6697SOL     OW27691   4.457   9.572   7.892 -0.0531 -0.2488 -0.9299
 6697SOL    HW127692   4.372   9.607   7.931 -0.5208 -0.9092 -1.3507
 6697SOL    HW227693   4.440   9.484   7.849  1.0286 -0.8065 -0.2343
 6699SOL     OW27694   7.859   8.072   6.163 -0.2598  0.0702  0.2363
 6699SOL    HW127695   7.832   8.158   6.121 -1.5521 -0.4595 -0.0590
 6699SOL    HW227696   7.882   8.087   6.259  0.9882  0.9855 -0.1877
 6700SOL     OW27697   6.090   9.640   3.297  0.0845 -0.0546  0.0621
 6700SOL    HW127698   6.040   9.642   3.211 -0.6634  1.3329  0.5150
 6700SOL    HW227699   6.028   9.665   3.372  1.8537  3.7954  0.3882
 6701SOL     OW27700   7.036   3.020   2.278  0.0911 -0.2369 -0.0066
 6701SOL    HW127701   7.035   3.038   2.376  0.8509  0.4721 -0.1242
 6701SOL    HW227702   7.127   2.989   2.250 -0.1160 -0.4135 -0.4858
 6702SOL     OW27703   7.935   8.137   7.750  0.5090  0.4957  0.3879
 6702SOL    HW127704   7.920   8.117   7.653 -0.5998 -1.0994  0.8614
 6702SOL    HW227705   8.012   8.083   7.784  1.2326  1.4550  0.2598
 6703SOL     OW27706   8.892   4.988   2.722 -0.1798  0.1017 -0.0029
 6703SOL    HW127707   8.933   4.930   2.793  2.0806  1.5099 -0.1182
 6703SOL    HW227708   8.815   5.039   2.761 -1.0055 -1.5340  0.5753
 6704SOL     OW27709   8.067   9.648   6.653  0.3716  0.5470  0.3975
 6704SOL    HW127710   8.025   9.558   6.649 -0.4384  0.9445 -0.0812
 6704SOL    HW227711   7.999   9.716   6.679  1.1160  0.9443  1.3620
 6705SOL     OW27712   1.721   7.876   3.916 -0.4435  0.3603  0.2880
 6705SOL    HW127713   1.674   7.929   3.846 -1.7040 -2.4387 -1.0357
 6705SOL    HW227714   1.818   7.867   3.892  0.0971  3.1795  1.2423
 6706SOL     OW27715   2.499   2.064   0.766 -0.0960 -0.2444  0.1917
 6706SOL    HW127716   2.549   1.995   0.714  0.6455  0.0547  0.5087
 6706SOL    HW227717   2.533   2.155   0.744  0.3358 -0.1222  1.3111
 6707SOL     OW27718   0.448   3.633   6.071  0.2670 -0.3495 -0.0458
 6707SOL    HW127719   0.505   3.715   6.072 -0.7878  0.3656  1.6716
 6707SOL    HW227720   0.507   3.552   6.077  1.2154  0.3157 -0.2071
 6708SOL     OW27721   5.281   6.399   1.304  0.7805  0.2660  0.0695
 6708SOL    HW127722   5.352   6.371   1.239 -0.0016  0.1090 -0.7203
 6708SOL    HW227723   5.294   6.495   1.328  2.2262 -0.2009  1.1784
 6710SOL     OW27724   8.670   3.746   2.091  0.1136  0.2898 -0.1864
 6710SOL    HW127725   8.703   3.663   2.136 -0.3430  0.0564 -0.2920
 6710SOL    HW227726   8.732   3.822   2.114  0.6511 -0.1220 -0.2706
 6711SOL     OW27727   3.024   5.345   6.913  0.0492 -0.1424 -0.3219
 6711SOL    HW127728   3.017   5.297   6.825 -0.5670  0.4071 -0.5759
 6711SOL    HW227729   3.112   5.323   6.956  0.5156 -0.1184 -1.2539
 6712SOL     OW27730   7.228   7.774   5.276  0.2396 -1.1097 -0.1066
 6712SOL    HW127731   7.155   7.715   5.243  0.6964 -1.2485 -0.8963
 6712SOL    HW227732   7.253   7.839   5.204 -1.1648  0.9375  1.1972
 6713SOL     OW27733   3.476   0.877   7.086 -0.4733 -0.4537 -0.0852
 6713SOL    HW127734   3.392   0.874   7.031 -1.0429 -0.5356  0.7890
 6713SOL    HW227735   3.485   0.967   7.128 -1.6669 -1.3720  2.2161
 6715SOL     OW27736   7.920   8.300   2.642 -0.5691 -0.1528 -0.0203
 6715SOL    HW127737   7.974   8.310   2.559 -1.2561 -1.3324 -0.6356
 6715SOL    HW227738   7.937   8.377   2.704  0.9360  0.0550 -0.6879
 6716SOL     OW27739   0.307   8.185   6.264 -0.0489  0.2904  0.3438
 6716SOL    HW127740   0.287   8.089   6.248  1.0251  0.0276  0.5000
 6716SOL    HW227741   0.288   8.237   6.181 -0.8653 -0.0205  0.3390
 6717SOL     OW27742   2.384   7.174   3.404  0.0261 -0.0858 -0.2900
 6717SOL    HW127743   2.475   7.174   3.362  2.2572 -0.2543  4.1302
 6717SOL    HW227744   2.370   7.262   3.450 -1.3270 -0.7010  0.4810
 6718SOL     OW27745   9.553   0.890   3.384  0.4485  0.1651 -0.2301
 6718SOL    HW127746   9.636   0.908   3.437  1.4312 -1.2793 -1.2477
 6718SOL    HW227747   9.556   0.941   3.299  1.4861 -1.7723 -1.4001
 6719SOL     OW27748   0.346   0.109   2.337  0.7207 -0.0971 -0.1428
 6719SOL    HW127749   0.324   0.189   2.392 -0.3202  0.0845 -0.8024
 6719SOL    HW227750   0.292   0.031   2.367 -1.4376  0.5249 -2.2224
 6720SOL     OW27751   9.709   8.411   0.061  0.2249 -0.2299  0.2394
 6720SOL    HW127752   9.668   8.501   0.078  1.0003  0.3525 -0.9049
 6720SOL    HW227753   9.809   8.420   0.059  0.2928 -1.0506 -0.1716
 6721SOL     OW27754   2.690   6.078   3.377  0.4699 -0.1048 -0.1166
 6721SOL    HW127755   2.592   6.056   3.378  0.6316 -0.8785 -0.2471
 6721SOL    HW227756   2.739   6.015   3.437  0.9209  0.0928 -0.2731
 6722SOL     OW27757   4.876   6.812   1.076 -0.9468 -0.8465 -0.0766
 6722SOL    HW127758   4.868   6.849   0.984  0.7189 -0.6010 -0.1289
 6722SOL    HW227759   4.842   6.879   1.142  0.2215 -0.0007 -0.3227
 6723SOL     OW27760   0.359   3.928   3.296  0.1341  0.1258 -0.0346
 6723SOL    HW127761   0.384   3.871   3.218 -1.3435  0.6976 -0.9396
 6723SOL    HW227762   0.264   3.910   3.321 -0.6019  2.6917 -0.8082
 6724SOL     OW27763   2.597   6.788   6.209  0.7113  0.1830  0.4180
 6724SOL    HW127764   2.683   6.794   6.159  0.3251 -1.4813 -0.5027
 6724SOL    HW227765   2.606   6.833   6.297  1.7724  2.1426 -0.6564
 6726SOL     OW27766   3.150   7.426   2.308 -0.0232  0.5146  0.0519
 6726SOL    HW127767   3.217   7.352   2.315  1.1565  1.5123 -0.5329
 6726SOL    HW227768   3.067   7.392   2.264 -0.2291 -0.9404  1.5258
 6727SOL     OW27769   7.704   3.997   1.201 -0.7201 -0.2011  0.3175
 6727SOL    HW127770   7.652   4.047   1.269 -2.4601  0.6891 -1.6092
 6727SOL    HW227771   7.689   3.899   1.212 -1.9913  0.0012  0.4438
 6728SOL     OW27772   1.483   4.883   5.544 -0.0774  0.7149  0.0524
 6728SOL    HW127773   1.583   4.882   5.549  0.0079  1.9434 -0.9455
 6728SOL    HW227774   1.455   4.867   5.449 -0.8701 -0.8847  0.5502
 6729SOL     OW27775   7.511   6.508   3.021  0.8330 -0.0096  0.1790
 6729SOL    HW127776   7.516   6.501   3.121  0.8383  0.8211  0.2347
 6729SOL    HW227777   7.491   6.417   2.983  0.0812 -0.1914  0.9836
 6730SOL     OW27778   6.646   3.004   2.057 -0.6718 -0.1000 -0.0367
 6730SOL    HW127779   6.581   2.945   2.106 -1.5684  0.0054 -1.0845
 6730SOL    HW227780   6.609   3.026   1.967  1.9437 -2.1132 -1.6666
 6731SOL     OW27781   2.263   5.324   6.615 -0.1129 -0.4475 -0.0544
 6731SOL    HW127782   2.263   5.423   6.632  1.9536 -0.2557 -0.9770
 6731SOL    HW227783   2.201   5.279   6.680 -1.2120  1.4641  0.2571
 6732SOL     OW27784   9.743   2.915   5.664  0.1532 -0.3250  0.3368
 6732SOL    HW127785   9.755   2.817   5.679  0.5293  0.0219  2.3425
 6732SOL    HW227786   9.825   2.964   5.693 -0.1872  0.6426 -0.2882
 6733SOL     OW27787   5.593   5.920   0.249  0.1574  0.3672  0.3122
 6733SOL    HW127788   5.614   5.906   0.346 -0.7088  0.0677  0.4575
 6733SOL    HW227789   5.497   5.898   0.232  0.3242  0.3465 -0.6276
 6734SOL     OW27790   2.214   8.771   4.394 -0.0143  0.0488  0.3740
 6734SOL    HW127791   2.183   8.676   4.393 -0.5365  0.2135  0.3938
 6734SOL    HW227792   2.298   8.779   4.449  0.0435 -0.4042  0.3471
 6735SOL     OW27793   0.665   5.088   0.260  0.1895 -0.7499 -0.4726
 6735SOL    HW127794   0.758   5.094   0.296  0.2319 -1.7890 -0.4054
 6735SOL    HW227795   0.658   5.147   0.179  0.4249  0.6469  0.5089
 6736SOL     OW27796   9.721   7.407   2.650 -0.1427  0.2469 -1.0785
 6736SOL    HW127797   9.790   7.435   2.717 -0.3814  2.1568 -1.6038
 6736SOL    HW227798   9.731   7.310   2.631 -0.2596 -0.4135  1.9497
 6737SOL     OW27799   5.336   7.791   3.184 -0.5066  0.1105 -0.0643
 6737SOL    HW127800   5.261   7.857   3.195  0.6691  1.0869  2.5557
 6737SOL    HW227801   5.410   7.815   3.247  1.8604 -1.0765 -2.3352
 6739SOL     OW27802   7.196   7.339   4.705 -0.2328 -0.6871 -0.1290
 6739SOL    HW127803   7.270   7.378   4.649  0.1109  0.4514  1.0787
 6739SOL    HW227804   7.109   7.378   4.676 -0.4737 -2.5583 -2.0260
 6740SOL     OW27805   4.454   2.647   0.812 -0.2602 -0.5105 -0.3062
 6740SOL    HW127806   4.357   2.643   0.789 -0.5170  1.5541  0.3061
 6740SOL    HW227807   4.476   2.573   0.876 -1.9384  0.3295  1.2933
 6741SOL     OW27808   1.461   8.654   2.354 -0.5122 -0.2457  0.2494
 6741SOL    HW127809   1.375   8.604   2.361 -0.6398 -0.0536  0.0556
 6741SOL    HW227810   1.461   8.711   2.272 -1.2784  1.7923  1.6096
 6742SOL     OW27811   5.384   3.510   2.317  0.0185  0.4174 -0.0145
 6742SOL    HW127812   5.425   3.573   2.383  0.7400 -1.2293  1.1443
 6742SOL    HW227813   5.448   3.494   2.242 -0.7147  2.1198 -1.0294
 6743SOL     OW27814   1.041   6.149   1.347 -0.0596  0.3502 -0.3771
 6743SOL    HW127815   1.114   6.215   1.365 -0.1344  0.9759 -2.1886
 6743SOL    HW227816   0.956   6.198   1.325 -1.2004 -0.3673  2.2791
 6745SOL     OW27817   2.685   4.021   5.429  0.1643 -0.2542 -0.0230
 6745SOL    HW127818   2.668   4.069   5.515 -0.0849 -1.1870  0.4483
 6745SOL    HW227819   2.598   4.008   5.380  0.2257 -0.2660 -0.1299
 6748SOL     OW27820   0.782   5.666   5.124  0.3456 -0.1109  0.1254
 6748SOL    HW127821   0.720   5.662   5.203  2.0811  1.5817  1.6356
 6748SOL    HW227822   0.841   5.585   5.124 -0.9140 -1.0438 -0.5278
 6750SOL     OW27823   2.455   2.973   0.599 -0.4166 -0.2747  0.1990
 6750SOL    HW127824   2.518   2.901   0.568 -0.2426 -1.2241  2.6768
 6750SOL    HW227825   2.508   3.051   0.631 -0.5412 -0.3487  0.5823
 6753SOL     OW27826   4.183   4.569   4.555 -0.6685 -0.1876 -0.6752
 6753SOL    HW127827   4.247   4.504   4.595  0.1725  0.2774 -1.2408
 6753SOL    HW227828   4.234   4.638   4.503 -1.6441  0.0488 -1.3325
 6754SOL     OW27829   1.390   9.294   0.449 -0.4737 -0.3146 -0.2384
 6754SOL    HW127830   1.461   9.362   0.466  0.5377 -1.2253 -0.7761
 6754SOL    HW227831   1.350   9.265   0.536 -1.8855  1.9654 -0.0837
 6755SOL     OW27832   4.088   7.743   1.105  0.4491  0.3204 -0.8656
 6755SOL    HW127833   4.114   7.667   1.165  0.2588  1.0088  0.1007
 6755SOL    HW227834   4.150   7.746   1.026  1.4172  0.1156 -0.1207
 6756SOL     OW27835   4.534   7.181   2.831 -0.2904  0.4320 -0.0855
 6756SOL    HW127836   4.583   7.101   2.867 -0.5590 -0.4952 -1.7661
 6756SOL    HW227837   4.533   7.253   2.901  2.1517 -0.0897  0.5259
 6757SOL     OW27838   8.756   6.101   2.792  0.4006  0.2309 -0.4230
 6757SOL    HW127839   8.801   6.057   2.715 -1.5070 -0.5044 -1.1586
 6757SOL    HW227840   8.787   6.059   2.877  0.5293 -0.7832 -0.9630
 6758SOL     OW27841   6.801   7.213   4.772 -0.0326 -0.0729 -0.0911
 6758SOL    HW127842   6.746   7.296   4.785  0.6154  0.3668 -0.1302
 6758SOL    HW227843   6.790   7.180   4.679 -0.6078 -0.2597  0.0415
 6759SOL     OW27844   8.174   3.093   0.683 -0.1304 -0.0527  0.7018
 6759SOL    HW127845   8.115   3.020   0.648  0.7150  0.0199 -0.8877
 6759SOL    HW227846   8.154   3.178   0.634  1.9798 -0.2544 -0.5516
 6760SOL     OW27847   9.649   5.759   1.165  0.1335 -0.3397  0.3804
 6760SOL    HW127848   9.646   5.788   1.261  0.1175  3.5144 -0.7039
 6760SOL    HW227849   9.744   5.758   1.134  0.1369 -1.5764  0.4220
 6761SOL     OW27850   0.596   9.967   0.631 -0.0972 -0.0115  0.2859
 6761SOL    HW127851   0.673   9.911   0.659 -0.6137 -1.3858 -0.9629
 6761SOL    HW227852   0.629  10.045   0.577  0.3951 -0.9227 -0.7615
 6762SOL     OW27853   8.916   7.909   0.814  0.2161 -0.6731  0.1980
 6762SOL    HW127854   8.888   8.005   0.805 -1.5078 -1.2008 -0.3075
 6762SOL    HW227855   8.914   7.865   0.725  1.8192 -0.9755  0.3059
 6763SOL     OW27856   1.638   3.883   0.142  0.0402  0.1646 -0.0040
 6763SOL    HW127857   1.540   3.899   0.144 -0.2695 -1.5165 -0.5728
 6763SOL    HW227858   1.665   3.830   0.222 -0.0838 -2.2370 -1.5067
 6764SOL     OW27859   8.655   7.565   6.131 -0.3993  0.1487 -0.1750
 6764SOL    HW127860   8.651   7.544   6.228 -1.2011  0.0180 -0.2287
 6764SOL    HW227861   8.710   7.495   6.084  0.2398  0.3798  0.2234
 6767SOL     OW27862   7.888   4.226   0.860  0.5600 -0.0635 -0.1317
 6767SOL    HW127863   7.808   4.227   0.920  0.1720  1.8573 -0.6401
 6767SOL    HW227864   7.859   4.221   0.765  1.0156  0.9607 -0.3341
 6769SOL     OW27865   7.502   7.507   3.731 -0.5432 -0.5224  0.1380
 6769SOL    HW127866   7.596   7.538   3.719 -0.7956  0.2434  0.1071
 6769SOL    HW227867   7.500   7.407   3.739  0.0544 -0.7610 -2.2491
 6770SOL     OW27868   0.060   4.010   7.080 -0.6793  0.0335 -0.2334
 6770SOL    HW127869  -0.024   3.958   7.097  0.1769 -1.0159  0.8470
 6770SOL    HW227870   0.126   3.993   7.154 -0.1395  2.1540 -0.2094
 6771SOL     OW27871   7.175   5.449   7.912  0.3882  0.1575  0.3254
 6771SOL    HW127872   7.252   5.489   7.961  0.8129 -1.5424  1.0919
 6771SOL    HW227873   7.127   5.520   7.860  1.3114  1.5630  1.3736
 6772SOL     OW27874   8.953   0.603   7.764  0.3516  0.0651 -0.0493
 6772SOL    HW127875   8.981   0.605   7.668 -0.8635  1.0436 -0.3942
 6772SOL    HW227876   8.862   0.564   7.772  0.4472 -0.0222  0.7111
 6773SOL     OW27877   0.912   2.756   3.447 -0.2938  0.6141  0.3233
 6773SOL    HW127878   0.870   2.732   3.360 -0.3845  0.5334  0.3896
 6773SOL    HW227879   0.853   2.820   3.496 -0.6009  0.0744  0.6597
 6774SOL     OW27880   9.665   5.336   2.489 -0.0022  0.0661 -0.2633
 6774SOL    HW127881   9.638   5.414   2.432 -1.1678 -0.3262 -0.2428
 6774SOL    HW227882   9.685   5.367   2.581  0.8373  0.5402 -0.5977
 6775SOL     OW27883   8.241   2.111   3.821 -0.9942 -0.2757 -0.1376
 6775SOL    HW127884   8.293   2.197   3.821 -2.6429  0.7450 -1.9739
 6775SOL    HW227885   8.304   2.034   3.808  0.3600  0.7240  0.3719
 6776SOL     OW27886   1.653   3.982   3.482 -0.2683 -0.7399  0.2263
 6776SOL    HW127887   1.716   3.978   3.560 -1.7331  0.8811  1.5273
 6776SOL    HW227888   1.626   4.077   3.466 -0.6459 -1.1562 -1.7403
 6777SOL     OW27889   6.666   7.814   3.948 -0.2835 -0.0425 -0.2396
 6777SOL    HW127890   6.624   7.876   4.014 -1.5512 -0.1909 -0.9032
 6777SOL    HW227891   6.666   7.721   3.985 -3.0154 -0.5172 -1.3357
 6778SOL     OW27892   6.159   1.444   1.893 -0.1748  0.1665 -0.4019
 6778SOL    HW127893   6.149   1.492   1.981 -0.2886 -0.4385 -0.0791
 6778SOL    HW227894   6.152   1.510   1.818 -1.4079  0.5103 -0.0035
 6780SOL     OW27895   3.119   0.243   7.602  0.0879 -0.1493  0.5456
 6780SOL    HW127896   3.175   0.248   7.520  0.3417 -2.1417  0.5804
 6780SOL    HW227897   3.024   0.223   7.577  0.4675 -2.3870  0.8082
 6781SOL     OW27898   4.607   6.298   0.535  0.9364  0.0114 -0.0414
 6781SOL    HW127899   4.701   6.323   0.554  0.7860  1.8697 -1.5554
 6781SOL    HW227900   4.604   6.239   0.453  0.7831 -0.0861  0.0333
 6783SOL     OW27901   3.191   2.671   5.561  0.0199  0.3614 -0.4839
 6783SOL    HW127902   3.098   2.707   5.557  0.1745  0.6017 -2.3755
 6783SOL    HW227903   3.256   2.747   5.562  0.2200  0.1875  0.4673
 6784SOL     OW27904   6.968   1.301   7.489 -0.9985  0.8208 -0.2439
 6784SOL    HW127905   6.949   1.232   7.560  0.6875 -0.7021 -1.2475
 6784SOL    HW227906   6.884   1.319   7.437 -1.2809 -1.0010 -0.4343
 6785SOL     OW27907   8.099   0.202   6.381  0.7990  0.4844  0.0396
 6785SOL    HW127908   8.086   0.128   6.446  2.0246 -2.0897 -2.5387
 6785SOL    HW227909   8.197   0.216   6.366  0.5661  2.0842 -0.1364
 6786SOL     OW27910   3.715   8.305   5.926  0.2464 -0.5808 -0.1675
 6786SOL    HW127911   3.758   8.394   5.942  2.1990 -1.2993 -1.1636
 6786SOL    HW227912   3.645   8.288   5.995 -0.2779  1.7928 -0.0681
 6787SOL     OW27913   4.473   8.868   0.909 -0.1205  0.1925  0.4709
 6787SOL    HW127914   4.455   8.793   0.973  1.5779  0.4045  1.2199
 6787SOL    HW227915   4.571   8.873   0.890 -0.2510  2.0313  0.1928
 6789SOL     OW27916   1.216   0.653   1.945 -0.4332 -0.0199 -0.1973
 6789SOL    HW127917   1.154   0.629   1.870 -2.0979  1.0423  0.8311
 6789SOL    HW227918   1.260   0.741   1.925  1.7259 -1.3505 -1.5083
 6791SOL     OW27919   2.040   7.311   2.032 -0.1304 -0.0423  0.4431
 6791SOL    HW127920   2.003   7.310   1.939  0.8684 -0.2312  0.0425
 6791SOL    HW227921   2.010   7.228   2.080  0.9830 -0.9194 -0.3641
 6792SOL     OW27922   1.472   0.403   6.792 -0.4021 -0.4615  0.4496
 6792SOL    HW127923   1.433   0.352   6.869 -0.1942 -0.0865  0.8029
 6792SOL    HW227924   1.398   0.442   6.738 -0.5383 -0.3117  0.7418
 6793SOL     OW27925   1.022   4.504   6.578  0.3525 -0.0812 -0.0467
 6793SOL    HW127926   0.934   4.513   6.532  0.8836  1.3414 -0.8335
 6793SOL    HW227927   1.008   4.471   6.671 -0.7337 -3.1278 -1.2348
 6795SOL     OW27928   2.711   0.043   3.450 -0.7412 -0.2814 -0.0356
 6795SOL    HW127929   2.728   0.130   3.496 -0.3494 -0.8623  0.9336
 6795SOL    HW227930   2.766  -0.029   3.492 -0.5165 -0.8713 -1.3000
 6796SOL     OW27931   1.115   6.171   1.613  0.4195 -0.1335  0.3513
 6796SOL    HW127932   1.101   6.136   1.521  2.6472 -0.3644  0.0550
 6796SOL    HW227933   1.132   6.095   1.675 -0.0422  0.0902  0.7541
 6797SOL     OW27934   8.029   9.424   1.619  0.0861  0.2674  0.0494
 6797SOL    HW127935   8.034   9.340   1.566  0.3191  0.8297 -0.8179
 6797SOL    HW227936   8.102   9.487   1.591  0.4046  0.4500  1.2372
 6798SOL     OW27937   8.782   5.650   7.017  0.3430  0.6842 -0.4301
 6798SOL    HW127938   8.726   5.568   7.031 -0.3422  0.9924 -1.2625
 6798SOL    HW227939   8.738   5.708   6.948  2.2772  0.3995 -1.9394
 6799SOL     OW27940   8.196   1.426   2.898  0.3811  0.5047 -0.5237
 6799SOL    HW127941   8.148   1.384   2.821  1.5298  0.8013 -1.4252
 6799SOL    HW227942   8.154   1.514   2.920  0.1132  0.4661 -0.8767
 6800SOL     OW27943   1.937   2.537   0.759 -0.4445  0.2600 -0.0011
 6800SOL    HW127944   1.891   2.591   0.687  0.3485  2.5864  1.1871
 6800SOL    HW227945   1.870   2.478   0.804 -1.2174 -0.2219 -1.7416
 6803SOL     OW27946   3.089   5.669   6.488  0.4760  0.3464  0.2425
 6803SOL    HW127947   3.144   5.602   6.439 -0.6077 -0.9635  0.7894
 6803SOL    HW227948   3.017   5.703   6.428 -2.3882 -3.0648  1.5296
 6804SOL     OW27949   2.958   4.298   1.881  0.5247  0.2059 -0.3751
 6804SOL    HW127950   2.859   4.285   1.887  0.6955 -1.2882 -0.5793
 6804SOL    HW227951   2.980   4.393   1.903 -1.2136  1.3490 -3.2901
 6808SOL     OW27952   2.224   5.994   2.059 -0.0071 -0.0610  0.1208
 6808SOL    HW127953   2.177   6.065   2.112  0.7552  0.6148 -0.0960
 6808SOL    HW227954   2.202   6.006   1.962  0.8186  0.4171 -0.0092
 6809SOL     OW27955   2.636   4.439   5.584  0.0453 -0.0142  0.3961
 6809SOL    HW127956   2.555   4.420   5.639 -0.1582  0.4835  0.2648
 6809SOL    HW227957   2.701   4.363   5.593 -0.0943 -0.0459  1.1301
 6810SOL     OW27958   9.057   5.837   2.961 -0.4411 -0.1832 -0.0363
 6810SOL    HW127959   9.003   5.831   2.877  1.8455 -0.6354 -1.5122
 6810SOL    HW227960   9.143   5.883   2.942  0.6202 -1.3371  1.8134
 6812SOL     OW27961   0.221   0.078   3.336  0.1132 -0.5771 -0.3013
 6812SOL    HW127962   0.204   0.136   3.415  0.9787 -1.2119  0.3605
 6812SOL    HW227963   0.307   0.105   3.292  0.0200 -0.7194 -0.5745
 6813SOL     OW27964   4.399   7.837   5.007 -0.7135 -0.1855  0.3847
 6813SOL    HW127965   4.433   7.758   5.059  0.7388 -0.2322 -0.6147
 6813SOL    HW227966   4.302   7.849   5.026 -0.4640 -0.8646  2.2653
 6814SOL     OW27967   2.514   7.947   0.301  0.3697 -0.4297  0.6488
 6814SOL    HW127968   2.578   7.924   0.228 -0.2070  0.3882 -0.1225
 6814SOL    HW227969   2.473   7.863   0.337  1.7582 -0.9396  1.0529
 6815SOL     OW27970   9.380   3.664   5.269 -0.1199  0.1589 -0.0196
 6815SOL    HW127971   9.288   3.665   5.306  0.0810 -2.6166  0.6641
 6815SOL    HW227972   9.376   3.654   5.170 -0.5347  0.3912 -0.0285
 6816SOL     OW27973   1.693   8.822   2.700  0.4795 -0.3299 -0.5468
 6816SOL    HW127974   1.709   8.746   2.636  2.7592 -0.2010 -0.1614
 6816SOL    HW227975   1.768   8.888   2.693  0.1224  0.3028  1.3725
 6817SOL     OW27976   9.642   1.828   4.315  0.3257 -0.4540  0.6672
 6817SOL    HW127977   9.560   1.800   4.365  0.6645  0.6356  1.8720
 6817SOL    HW227978   9.638   1.795   4.221 -0.7384 -1.7983  1.1796
 6819SOL     OW27979   8.221   0.259   4.501  0.2493 -0.1877  0.7051
 6819SOL    HW127980   8.291   0.201   4.461 -0.6868 -0.7325 -0.1444
 6819SOL    HW227981   8.131   0.229   4.471 -0.2189  2.0435 -0.2258
 6820SOL     OW27982   1.995   9.867   2.005  0.3518  0.8534 -0.4247
 6820SOL    HW127983   1.898   9.874   1.984  0.1721  1.0606  0.4336
 6820SOL    HW227984   2.049   9.897   1.927 -0.2580 -0.2488 -1.2798
 6821SOL     OW27985   5.905   7.908   7.143  0.4549 -0.3606  0.5197
 6821SOL    HW127986   5.874   8.003   7.153  0.0237 -0.4027 -0.3474
 6821SOL    HW227987   5.827   7.850   7.117 -0.0818 -1.6282  4.6378
 6822SOL     OW27988   1.949   5.293   5.773  0.1847 -0.6908 -0.3627
 6822SOL    HW127989   1.943   5.217   5.839 -0.8263 -0.0438  0.3118
 6822SOL    HW227990   2.043   5.326   5.768  0.2323 -0.6264  0.8922
 6823SOL     OW27991   4.710   6.604   1.784 -0.3008  1.1776  0.2334
 6823SOL    HW127992   4.679   6.606   1.879 -0.9322 -0.7975  0.0918
 6823SOL    HW227993   4.808   6.582   1.781 -0.7511 -1.0131  0.3807
 6825SOL     OW27994   8.517   4.945   1.814  0.0160  0.3755 -0.4295
 6825SOL    HW127995   8.510   5.033   1.767 -0.4573  2.0395  2.6447
 6825SOL    HW227996   8.607   4.937   1.857 -0.9996  0.6805  1.7888
 6826SOL     OW27997   2.988   4.345   4.229 -0.0195 -0.7811  0.3514
 6826SOL    HW127998   2.910   4.325   4.170 -0.3138  2.5048 -0.4390
 6826SOL    HW227999   3.062   4.280   4.208 -1.1338 -1.4628 -1.6093
 6827SOL     OW28000   9.191   2.763   3.162 -0.1885 -0.7230  0.0864
 6827SOL    HW128001   9.289   2.760   3.179 -0.2082  0.0051  0.3548
 6827SOL    HW228002   9.142   2.763   3.249 -0.3902  0.0207 -0.0264
 6828SOL     OW28003   3.317   0.095   0.117  0.0107  0.3321  0.0798
 6828SOL    HW128004   3.358   0.074   0.028 -2.6504  0.0719 -1.1333
 6828SOL    HW228005   3.297   0.010   0.165 -0.1606  0.4256  0.1738
 6829SOL     OW28006   6.953   5.096   7.629 -0.2154 -0.0906  0.2120
 6829SOL    HW128007   6.888   5.132   7.562 -1.4141 -1.1082  0.7960
 6829SOL    HW228008   6.966   5.163   7.702 -0.4823  0.1860  0.0094
 6830SOL     OW28009   2.532   1.361   3.734 -0.0362  0.3437 -0.1053
 6830SOL    HW128010   2.524   1.421   3.654 -1.2245  0.7703  0.3213
 6830SOL    HW228011   2.522   1.415   3.817 -1.9065 -0.5460  0.2662
 6831SOL     OW28012   3.497   7.350   7.227  0.0728 -0.0420 -0.2461
 6831SOL    HW128013   3.552   7.277   7.268 -0.3126 -0.1115  0.1562
 6831SOL    HW228014   3.446   7.397   7.299 -0.2528  0.1380 -0.5932
 6833SOL     OW28015   1.259   7.978   4.808 -0.5185 -0.3100 -0.2994
 6833SOL    HW128016   1.216   8.061   4.773  0.6279  0.0801 -0.8188
 6833SOL    HW228017   1.291   7.922   4.731 -3.7578 -2.6227 -0.0688
 6834SOL     OW28018   7.588   2.501   4.446  0.2143 -0.1452 -0.2418
 6834SOL    HW128019   7.558   2.551   4.527  0.0974 -2.2686  1.0705
 6834SOL    HW228020   7.638   2.562   4.385 -1.8710  2.0786  0.2345
 6836SOL     OW28021   3.712   0.698   2.167 -0.2211  0.1338  0.0751
 6836SOL    HW128022   3.725   0.615   2.221  0.2477  0.3342  0.2750
 6836SOL    HW228023   3.695   0.673   2.071  0.7062 -0.1761 -0.0119
 6837SOL     OW28024   3.283   5.718   6.782  0.1644  0.1689  0.1585
 6837SOL    HW128025   3.226   5.732   6.701  0.4473 -0.2824 -0.1226
 6837SOL    HW228026   3.256   5.782   6.854 -1.0378 -0.3780  0.2102
 6838SOL     OW28027   6.051   3.977   1.125  0.2477  0.5709  0.0475
 6838SOL    HW128028   6.057   4.070   1.161 -1.5065  1.1502 -1.1066
 6838SOL    HW228029   6.043   3.981   1.025  1.0500 -0.8546 -0.0823
 6840SOL     OW28030   6.426   3.920   2.365 -0.3425  0.3346  0.2386
 6840SOL    HW128031   6.425   3.820   2.367 -1.5118  0.3439  3.1184
 6840SOL    HW228032   6.478   3.954   2.444  1.6781  2.0218 -1.7572
 6841SOL     OW28033   9.716   8.182   2.264  0.0985  0.5978 -0.8465
 6841SOL    HW128034   9.773   8.108   2.298 -1.2752 -0.2843 -0.4346
 6841SOL    HW228035   9.728   8.263   2.321 -0.3039 -0.0940  0.2337
 6842SOL     OW28036   2.750   5.274   6.521  0.5854  0.3697 -0.2527
 6842SOL    HW128037   2.818   5.212   6.561 -1.8812 -0.8316  2.2207
 6842SOL    HW228038   2.763   5.366   6.557 -1.4555 -0.6543  3.2747
 6843SOL     OW28039   0.600   3.577   4.217 -0.4549  0.0160  0.1173
 6843SOL    HW128040   0.660   3.604   4.292 -0.3942 -0.1798  0.1403
 6843SOL    HW228041   0.621   3.632   4.136 -0.1971 -0.0993  0.1049
 6844SOL     OW28042   2.413   5.618   7.751  0.0268 -0.1638 -0.0278
 6844SOL    HW128043   2.327   5.655   7.715 -0.1774 -1.5987 -1.0755
 6844SOL    HW228044   2.416   5.630   7.850 -0.3778  1.9062 -0.2467
 6845SOL     OW28045   2.101   5.441   5.202 -0.0472  0.5705 -0.4840
 6845SOL    HW128046   2.072   5.413   5.111  0.4778  0.5990 -0.6615
 6845SOL    HW228047   2.131   5.360   5.253  0.3599  0.6568 -0.5907
 6846SOL     OW28048   0.744   6.721   2.502  0.5384  0.8465 -0.1240
 6846SOL    HW128049   0.655   6.699   2.540  1.4288 -1.0354  0.9441
 6846SOL    HW228050   0.787   6.792   2.559  0.1411  1.0488 -0.0719
 6847SOL     OW28051   4.739   8.136   3.415  0.6488  0.3680  0.0555
 6847SOL    HW128052   4.787   8.096   3.493  1.2146  0.6702 -0.1348
 6847SOL    HW228053   4.680   8.210   3.447 -1.8439 -1.8009  0.6670
 6848SOL     OW28054   4.270   3.057   4.500 -0.1915  0.2202  0.1339
 6848SOL    HW128055   4.340   3.043   4.569  0.8022  1.8385 -0.5072
 6848SOL    HW228056   4.210   3.133   4.527 -0.0932  0.5447 -0.5474
 6849SOL     OW28057   8.269   7.300   3.111  0.4645  0.3821  0.2403
 6849SOL    HW128058   8.212   7.257   3.041 -1.6606  2.6930  0.4699
 6849SOL    HW228059   8.260   7.249   3.197  0.0168 -0.1943 -0.1455
 6851SOL     OW28060   7.741   0.573   7.233 -0.2547  0.6760 -1.0580
 6851SOL    HW128061   7.673   0.500   7.232  0.1128  0.2657  1.5014
 6851SOL    HW228062   7.788   0.575   7.321  1.1506  2.7194 -1.7956
 6852SOL     OW28063   1.392   0.837   4.689 -0.1843  0.1191  0.9217
 6852SOL    HW128064   1.353   0.755   4.646 -1.5170 -0.0303  2.3688
 6852SOL    HW228065   1.396   0.825   4.788  0.7277  1.3437  1.0527
 6853SOL     OW28066   1.604   3.986   5.900  0.8449  0.0449 -0.4487
 6853SOL    HW128067   1.613   4.029   5.990 -1.0406 -1.1572  0.3522
 6853SOL    HW228068   1.592   4.057   5.830 -0.2472  0.9208  0.6020
 6857SOL     OW28069   2.241   4.612   4.816  0.4374  0.0754  0.3317
 6857SOL    HW128070   2.189   4.647   4.738  1.0474 -0.7601 -0.4647
 6857SOL    HW228071   2.224   4.513   4.825 -0.9822  0.4686  2.3219
 6858SOL     OW28072   8.993   7.234   2.490  0.1071  0.3119 -0.6848
 6858SOL    HW128073   8.970   7.269   2.581  0.3901 -0.0831 -0.4601
 6858SOL    HW228074   9.048   7.301   2.441  0.6926  0.1679 -0.2356
 6859SOL     OW28075   6.780   0.494   6.735  0.1763 -0.2305  0.6516
 6859SOL    HW128076   6.875   0.484   6.764  0.7770  1.2794 -0.6897
 6859SOL    HW228077   6.755   0.418   6.675  1.3806  0.6879 -1.0640
 6860SOL     OW28078   4.630   2.213   4.673  0.3212 -0.1142 -0.0071
 6860SOL    HW128079   4.675   2.189   4.587  2.0998  1.4435  0.4507
 6860SOL    HW228080   4.679   2.171   4.749 -1.0000 -1.1435  0.2949
 6861SOL     OW28081   0.337   6.182   1.801 -0.0506 -0.6286  0.0010
 6861SOL    HW128082   0.382   6.223   1.721 -1.7575  2.4746  0.5305
 6861SOL    HW228083   0.238   6.196   1.793 -0.3233 -1.2300  2.1601
 6862SOL     OW28084   3.450   3.225   0.591 -0.0436 -0.0648  0.2101
 6862SOL    HW128085   3.363   3.221   0.542  1.5331 -1.1695 -2.5735
 6862SOL    HW228086   3.491   3.316   0.579  0.2116 -0.2452 -0.2799
 6863SOL     OW28087   0.519   2.603   2.076  0.1664 -0.2019 -0.1422
 6863SOL    HW128088   0.515   2.698   2.045 -0.4012 -0.4481 -0.8305
 6863SOL    HW228089   0.582   2.552   2.017 -1.5717 -0.8727 -1.4549
 6864SOL     OW28090   3.461   3.879   2.555  0.0002 -0.2816 -0.0290
 6864SOL    HW128091   3.387   3.906   2.493  1.5302 -0.8276 -2.1432
 6864SOL    HW228092   3.423   3.827   2.632 -1.8008 -0.6580 -1.1532
 6865SOL     OW28093   0.854   0.371   3.414 -0.7728  0.0689 -0.0753
 6865SOL    HW128094   0.819   0.325   3.332 -0.0950 -0.7680  0.1089
 6865SOL    HW228095   0.923   0.315   3.458 -1.1932  0.4743  1.1373
 6866SOL     OW28096   8.487   3.816   1.837  0.5425  0.3983 -0.1978
 6866SOL    HW128097   8.579   3.788   1.865  0.9141 -0.9556 -2.6199
 6866SOL    HW228098   8.492   3.900   1.784  0.4052  0.2423 -0.4586
 6867SOL     OW28099   4.466   2.646   6.584  0.1920 -0.5096 -0.1210
 6867SOL    HW128100   4.423   2.586   6.516  0.3004 -0.2116 -0.4541
 6867SOL    HW228101   4.532   2.594   6.638  1.3615 -0.3673 -1.3847
 6868SOL     OW28102   9.771   3.254   5.428 -0.6760  0.2780  0.4588
 6868SOL    HW128103   9.747   3.299   5.514  1.9271  1.6107  0.5411
 6868SOL    HW228104   9.741   3.310   5.351  2.2219  2.0942  0.5618
 6871SOL     OW28105   2.955   1.558   3.147 -0.2505 -0.8883  0.0649
 6871SOL    HW128106   2.989   1.530   3.057 -2.0375  0.5181 -1.1052
 6871SOL    HW228107   2.915   1.480   3.194 -0.0645 -1.4712 -0.7368
 6872SOL     OW28108   1.693   7.320   3.518 -0.3213  0.0737 -0.1637
 6872SOL    HW128109   1.774   7.261   3.515  0.3471  0.9500  0.4498
 6872SOL    HW228110   1.660   7.328   3.612 -0.7827  0.1734 -0.3320
 6873SOL     OW28111   4.136   7.163   4.391 -0.0025 -0.4535 -0.4769
 6873SOL    HW128112   4.123   7.082   4.334  1.9932 -1.1812  0.0826
 6873SOL    HW228113   4.227   7.162   4.432 -1.0305  0.5545  1.9694
 6875SOL     OW28114   2.967   5.244   7.755  0.3533 -0.1972  0.4955
 6875SOL    HW128115   2.994   5.230   7.660  1.4971 -1.8748  1.0429
 6875SOL    HW228116   2.901   5.174   7.782  0.3745 -0.0011  1.0655
 6876SOL     OW28117   6.728   8.762   7.106 -0.0459  0.2264  0.5421
 6876SOL    HW128118   6.711   8.735   7.012 -0.5905  0.5848  0.5331
 6876SOL    HW228119   6.664   8.714   7.166 -0.2151  0.5801  0.6477
 6879SOL     OW28120   9.533   0.504   2.804  0.5471  0.7770 -0.6083
 6879SOL    HW128121   9.631   0.514   2.789  0.6905  0.1796 -0.1191
 6879SOL    HW228122   9.498   0.584   2.851  0.7766  1.0432 -0.8838
 6881SOL     OW28123   9.695   0.695   3.047  0.2508 -0.3153 -0.0929
 6881SOL    HW128124   9.608   0.693   2.998 -0.2271 -0.4599  0.7581
 6881SOL    HW228125   9.768   0.721   2.983 -0.3684 -0.4500 -0.8686
 6882SOL     OW28126   2.838   4.474   2.618  0.0009  0.5507 -0.1775
 6882SOL    HW128127   2.819   4.483   2.521 -1.4850  0.9564  0.1418
 6882SOL    HW228128   2.915   4.411   2.631 -0.9756 -0.9612 -1.5110
 6883SOL     OW28129   9.700   5.082   2.586 -0.5456 -0.4008 -0.8306
 6883SOL    HW128130   9.726   5.175   2.559 -1.2921  0.3989  1.0437
 6883SOL    HW228131   9.721   5.018   2.513 -0.4665  1.3273 -2.3511
 6884SOL     OW28132   5.365   7.854   3.670  0.2356 -0.1176 -0.2091
 6884SOL    HW128133   5.438   7.793   3.703  0.3482  0.3079  0.3371
 6884SOL    HW228134   5.311   7.885   3.748  1.4357  2.1213 -0.2442
 6886SOL     OW28135   8.020   7.493   2.535  0.6377  0.7850 -0.2433
 6886SOL    HW128136   8.113   7.476   2.501  0.0250 -0.6760 -1.2381
 6886SOL    HW228137   8.023   7.506   2.634  1.6573 -1.4073  0.0527
 6888SOL     OW28138   7.718   8.875   2.978  0.2946 -0.2484  0.0058
 6888SOL    HW128139   7.805   8.890   2.931  0.1460 -0.9926 -0.5129
 6888SOL    HW228140   7.723   8.790   3.030 -0.2030 -0.4035 -0.2035
 6889SOL     OW28141   9.668   2.694   1.995  0.4217  0.0223  0.0143
 6889SOL    HW128142   9.743   2.637   2.027  0.1075  0.2772  1.2489
 6889SOL    HW228143   9.582   2.644   2.004  0.0029  1.0796  2.2107
 6891SOL     OW28144   4.004   2.789   0.186  0.0606 -0.2311  0.1279
 6891SOL    HW128145   3.992   2.875   0.136 -0.4237 -0.1554  0.3699
 6891SOL    HW228146   3.917   2.739   0.188  0.2475 -0.5482  0.3096
 6892SOL     OW28147   4.203   2.096   6.124  0.0126 -0.0413 -0.2096
 6892SOL    HW128148   4.174   2.039   6.047  2.0235 -3.4078  1.3982
 6892SOL    HW228149   4.199   2.043   6.209  1.9243  2.2145  1.3887
 6893SOL     OW28150   7.061   8.234   5.286  0.1871  0.6412  0.2456
 6893SOL    HW128151   7.034   8.238   5.189 -0.4388 -0.6584  0.3621
 6893SOL    HW228152   7.153   8.195   5.292  1.0152  2.5100  0.0503
 6894SOL     OW28153   8.560   0.930   4.976  0.0710 -0.3912 -0.1720
 6894SOL    HW128154   8.566   0.911   5.074  0.2977  1.9413  0.2805
 6894SOL    HW228155   8.474   0.894   4.940  0.7886 -2.8930  0.4742
 6895SOL     OW28156   0.994   5.918   0.142  0.6827  0.2265 -0.0980
 6895SOL    HW128157   1.016   5.953   0.050 -2.0622 -0.7166 -1.1768
 6895SOL    HW228158   0.896   5.930   0.159  0.6431 -2.1572  1.5883
 6898SOL     OW28159   2.633   4.797   7.629  0.3381 -0.0277 -0.1630
 6898SOL    HW128160   2.711   4.802   7.692 -0.0198  2.9863  0.1228
 6898SOL    HW228161   2.641   4.715   7.573  2.1736 -1.2838  1.8497
 6899SOL     OW28162   3.088   7.104   0.404  0.3384 -0.4922 -0.1987
 6899SOL    HW128163   3.002   7.155   0.401  0.5391 -0.1501 -0.1787
 6899SOL    HW228164   3.108   7.077   0.499  0.6597  0.1317 -0.0834
 6900SOL     OW28165   5.037   6.685   0.662  0.2792 -0.0536  0.0627
 6900SOL    HW128166   4.969   6.684   0.735  0.1577  0.7185 -0.0372
 6900SOL    HW228167   5.097   6.606   0.671 -0.7489 -0.8558  0.0436
 6901SOL     OW28168   2.096   2.474   2.126 -0.0117 -0.4625  0.1340
 6901SOL    HW128169   2.036   2.526   2.187  1.7530 -0.0478  1.5741
 6901SOL    HW228170   2.042   2.433   2.052 -1.7537  1.5435  0.2475
 6903SOL     OW28171   4.965   9.245   7.256  0.3981 -0.2159  0.3573
 6903SOL    HW128172   4.984   9.285   7.167 -1.7867  1.1088  0.4432
 6903SOL    HW228173   4.967   9.145   7.248 -1.1954 -0.1326 -1.5252
 6905SOL     OW28174   6.951   4.044   0.325 -0.2867  0.1253  0.2962
 6905SOL    HW128175   7.033   3.986   0.332  0.2863  0.6921 -1.4476
 6905SOL    HW228176   6.874   3.997   0.369  0.6575 -1.0215  0.7734
 6906SOL     OW28177   7.925   3.269   2.965 -0.3720  0.2871  0.4065
 6906SOL    HW128178   7.900   3.357   2.926  3.0081  0.9174 -0.5054
 6906SOL    HW228179   7.912   3.197   2.897 -1.8221  0.2712  0.6966
 6907SOL     OW28180   6.465   8.112   5.175 -0.0444 -0.5318  0.5557
 6907SOL    HW128181   6.412   8.080   5.253 -2.1231  0.0481 -0.5788
 6907SOL    HW228182   6.404   8.130   5.098  1.4103  3.0122  0.1209
 6908SOL     OW28183   3.001   8.402   7.672  0.2561 -0.2009 -0.0641
 6908SOL    HW128184   3.012   8.302   7.671  0.3557 -0.1812 -1.7038
 6908SOL    HW228185   2.904   8.425   7.673  0.2199 -0.3126 -0.9123
 6909SOL     OW28186   2.943   3.302   2.287 -0.4995 -0.1965  0.3593
 6909SOL    HW128187   2.892   3.220   2.262  3.0120 -0.9939 -4.8179
 6909SOL    HW228188   2.897   3.382   2.248 -0.8557 -0.2833  0.5920
 6910SOL     OW28189   0.834   9.430   6.831 -0.2870  0.0990 -0.3972
 6910SOL    HW128190   0.866   9.518   6.799  1.3284 -0.4878 -0.4431
 6910SOL    HW228191   0.832   9.429   6.931 -1.6337  0.6392 -0.4103
 6911SOL     OW28192   0.810   3.130   2.519  0.2843 -0.0597 -0.5035
 6911SOL    HW128193   0.810   3.031   2.506 -1.9840 -0.1624  0.0844
 6911SOL    HW228194   0.858   3.152   2.604 -0.3184 -0.7695  0.0320
 6912SOL     OW28195   0.644   9.838   7.742 -0.4496 -0.0869  0.1816
 6912SOL    HW128196   0.689   9.915   7.786  0.5578 -1.2281  1.1950
 6912SOL    HW228197   0.608   9.776   7.812 -0.9702 -0.7108 -0.6158
 6916SOL     OW28198   6.019   9.179   3.209 -0.6857  0.0739  0.0584
 6916SOL    HW128199   6.048   9.084   3.218 -0.6959  0.2324  1.9646
 6916SOL    HW228200   5.993   9.197   3.114  0.2645 -1.5408 -0.5270
 6917SOL     OW28201   3.322   6.898   7.790  0.0018  0.5907  0.6189
 6917SOL    HW128202   3.238   6.948   7.766 -0.4433  1.1019  3.1051
 6917SOL    HW228203   3.401   6.946   7.752 -0.7798  0.1937 -1.6139
 6918SOL     OW28204   6.778   1.104   3.874  0.4812  0.1765 -0.1712
 6918SOL    HW128205   6.706   1.076   3.937 -0.9013  5.4302  0.7794
 6918SOL    HW228206   6.749   1.087   3.780 -1.3288  0.7874  0.2632
 6919SOL     OW28207   7.617   9.024   5.556 -0.1802 -0.0033 -0.0109
 6919SOL    HW128208   7.532   9.073   5.538 -0.1231 -0.7425 -2.4246
 6919SOL    HW228209   7.627   8.950   5.490  1.6563 -0.7974  1.1410
 6920SOL     OW28210   1.944   0.595   2.158 -0.0926 -0.3001  0.4024
 6920SOL    HW128211   1.948   0.549   2.070 -1.2758  0.1900  0.0884
 6920SOL    HW228212   2.037   0.607   2.194  0.3184 -1.4944 -0.2521
 6921SOL     OW28213   8.424   1.319   7.631  0.2614 -0.5501  0.2273
 6921SOL    HW128214   8.375   1.309   7.544 -1.8705  0.2328  1.2947
 6921SOL    HW228215   8.474   1.405   7.632  2.1243 -1.5915 -1.0775
 6922SOL     OW28216   7.543   8.129   5.739 -0.4572  0.2435  0.1435
 6922SOL    HW128217   7.506   8.097   5.826 -1.2206  1.2267  0.1869
 6922SOL    HW228218   7.498   8.082   5.663  1.4881 -1.9581  0.3016
 6923SOL     OW28219   9.492   1.804   7.371 -0.2293 -0.0745 -0.2023
 6923SOL    HW128220   9.542   1.862   7.307  1.1343 -1.9285 -0.8536
 6923SOL    HW228221   9.547   1.724   7.393 -0.9958  0.1546  2.7270
 6924SOL     OW28222   1.200   4.673   2.134 -0.4832 -1.0855  0.0466
 6924SOL    HW128223   1.137   4.656   2.058 -0.4366 -0.8345 -0.0487
 6924SOL    HW228224   1.149   4.708   2.213 -0.2648  0.5352 -0.5167
 6925SOL     OW28225   9.129   9.104   3.832  0.3824  0.6262 -0.0296
 6925SOL    HW128226   9.032   9.118   3.814 -0.0521 -1.7806  0.2580
 6925SOL    HW228227   9.183   9.144   3.758 -0.8269  1.6781 -0.3650
 6926SOL     OW28228   3.341   0.903   1.630  0.3302  0.2710  0.1657
 6926SOL    HW128229   3.386   0.851   1.559 -0.0198 -0.0091  0.1457
 6926SOL    HW228230   3.409   0.937   1.695  0.7280  1.1149 -0.6768
 6927SOL     OW28231   2.207   5.889   7.504  0.5333 -0.4083 -0.8814
 6927SOL    HW128232   2.307   5.888   7.507  0.5813  1.1071 -1.3272
 6927SOL    HW228233   2.177   5.969   7.453 -0.9187 -0.6830 -0.4676
 6928SOL     OW28234   1.999   7.325   3.732  0.5994  0.3245 -0.1890
 6928SOL    HW128235   2.089   7.351   3.699  0.3888  1.7295  0.3354
 6928SOL    HW228236   1.951   7.273   3.661  1.0165  1.3794 -1.2400
 6929SOL     OW28237   1.709   2.906   3.989 -0.1307 -0.0667  0.1027
 6929SOL    HW128238   1.689   2.878   3.895  0.1644 -0.7629  0.2426
 6929SOL    HW228239   1.798   2.951   3.993  0.3940 -1.1124  0.2470
 6933SOL     OW28240   0.579   4.843   0.193 -0.1567 -1.1299 -0.6844
 6933SOL    HW128241   0.526   4.807   0.271  0.1698 -1.7454 -0.7450
 6933SOL    HW228242   0.604   4.938   0.211  1.0600 -1.6770  0.5574
 6935SOL     OW28243   6.141   1.924   1.473  0.1237 -0.5928 -0.2560
 6935SOL    HW128244   6.052   1.895   1.507 -0.3261  0.1666 -0.7631
 6935SOL    HW228245   6.131   2.011   1.423  1.5991  1.1401  2.3100
 6936SOL     OW28246   0.221   8.630   4.309  0.3032 -0.0639 -0.2849
 6936SOL    HW128247   0.186   8.718   4.275 -3.2329 -1.5096 -0.5589
 6936SOL    HW228248   0.319   8.625   4.292  0.7759  4.2342  0.6302
 6937SOL     OW28249   2.928   2.712   2.240 -0.4037  0.6277 -0.0069
 6937SOL    HW128250   2.860   2.642   2.260  0.7426 -0.5146 -0.0891
 6937SOL    HW228251   2.947   2.764   2.323 -0.4339  0.1139  0.3243
 6938SOL     OW28252   5.681   9.991   4.791 -0.2494 -0.3372 -0.2535
 6938SOL    HW128253   5.673   9.894   4.817 -0.3215 -0.4253 -0.6012
 6938SOL    HW228254   5.739  10.038   4.857 -0.3194 -0.5892 -0.0088
 6939SOL     OW28255   9.205   6.760   5.518  0.6810 -0.9306 -0.5042
 6939SOL    HW128256   9.147   6.836   5.550  0.1625 -2.0947  1.3954
 6939SOL    HW228257   9.152   6.676   5.518  0.9672 -1.1664 -3.5817
 6940SOL     OW28258   1.480   7.546   2.414  0.1439  1.0382 -0.4047
 6940SOL    HW128259   1.555   7.612   2.420  0.6858  0.4163 -0.2809
 6940SOL    HW228260   1.442   7.546   2.322  0.2902  1.3657 -0.4627
 6941SOL     OW28261   8.283   1.384   6.535 -0.3701  0.6288  0.0375
 6941SOL    HW128262   8.223   1.449   6.487 -1.2661  0.3896  0.8261
 6941SOL    HW228263   8.317   1.427   6.618 -2.7253 -0.6585  1.7116
 6943SOL     OW28264   8.839   8.674   7.454  0.0117  0.0236 -0.3378
 6943SOL    HW128265   8.891   8.732   7.391 -0.3104 -0.2683 -0.8825
 6943SOL    HW228266   8.880   8.677   7.544  0.2082  0.8175 -0.4519
 6944SOL     OW28267   1.989   1.437   2.465  0.4779  0.9396  0.2325
 6944SOL    HW128268   2.033   1.526   2.461  1.0284  0.6243 -1.0382
 6944SOL    HW228269   1.902   1.440   2.416  0.5140  0.7726  0.1575
 6945SOL     OW28270   7.246   5.006   7.542  0.0188 -0.0775  0.0451
 6945SOL    HW128271   7.280   5.004   7.636  0.2687  0.0328 -0.0412
 6945SOL    HW228272   7.155   4.965   7.538 -0.6132  1.2394  0.5890
 6946SOL     OW28273   0.155   5.871   4.767  0.0206 -0.5053  0.3682
 6946SOL    HW128274   0.063   5.883   4.804  0.4694  0.3799  1.2217
 6946SOL    HW228275   0.178   5.949   4.709  0.9929  0.3025  1.8010
 6948SOL     OW28276   9.176   8.295   7.607 -0.0550 -0.4157  0.0223
 6948SOL    HW128277   9.223   8.383   7.606  0.6423 -0.7790  0.3510
 6948SOL    HW228278   9.228   8.230   7.663 -2.6136  0.0934  3.1569
 6950SOL     OW28279   0.514   3.560   5.747 -0.0326 -0.1331 -0.3062
 6950SOL    HW128280   0.537   3.487   5.682  0.2140  1.8611 -2.4888
 6950SOL    HW228281   0.438   3.614   5.711 -1.9386 -0.8257  2.4882
 6952SOL     OW28282   8.880   9.373   3.270 -0.2733  0.8525  1.1609
 6952SOL    HW128283   8.788   9.396   3.238 -0.9944  0.5677  2.9843
 6952SOL    HW228284   8.946   9.436   3.229 -1.1709  0.5660 -0.7775
 6953SOL     OW28285   8.119   2.730   1.763  0.7976 -0.4967 -0.3172
 6953SOL    HW128286   8.150   2.662   1.830  0.3272 -0.4227 -0.0174
 6953SOL    HW228287   8.019   2.726   1.757  0.8559 -0.7396 -1.2645
 6956SOL     OW28288   3.256   8.859   1.839  0.2589 -0.2013 -0.4762
 6956SOL    HW128289   3.270   8.958   1.827  1.3596 -0.2498  0.3149
 6956SOL    HW228290   3.342   8.811   1.819 -0.1348 -0.9632 -0.3510
 6957SOL     OW28291   7.710   4.838   1.741  0.7892  0.0794  0.0598
 6957SOL    HW128292   7.714   4.755   1.686  0.0719  0.9448 -1.3095
 6957SOL    HW228293   7.617   4.853   1.773  0.7940  0.6801 -0.2020
 6958SOL     OW28294   3.876   4.298   5.260 -0.4066 -0.0142 -0.2473
 6958SOL    HW128295   3.851   4.385   5.217 -1.2767  0.3864  1.0267
 6958SOL    HW228296   3.963   4.309   5.309 -0.1488 -0.0650 -0.6927
 6959SOL     OW28297   2.408   8.897   0.646 -0.3285  0.0305  0.1567
 6959SOL    HW128298   2.389   8.899   0.548 -0.0939 -1.3851  0.0740
 6959SOL    HW228299   2.507   8.893   0.660 -0.4016 -0.8067  0.4299
 6960SOL     OW28300   1.571   3.880   6.427 -0.3564  0.2406 -0.1717
 6960SOL    HW128301   1.567   3.783   6.402 -2.0287  0.4360 -0.7225
 6960SOL    HW228302   1.647   3.923   6.378 -1.2127 -0.2406 -1.9707
 6961SOL     OW28303   7.681   0.933   0.279  0.3012  0.2756 -0.0759
 6961SOL    HW128304   7.739   0.972   0.207  1.4782  0.9340  1.2069
 6961SOL    HW228305   7.721   0.847   0.311  0.2670  0.4369  0.4064
 6962SOL     OW28306   0.114   9.487   4.920  0.1230  0.2332  0.0170
 6962SOL    HW128307   0.082   9.512   5.011  0.4948 -1.0223  0.5017
 6962SOL    HW228308   0.071   9.401   4.892  1.8899 -0.6864  0.0510
 6963SOL     OW28309   9.311   7.564   2.988  0.4355 -0.0891  0.1529
 6963SOL    HW128310   9.372   7.622   3.041 -1.0444  1.7435 -0.1187
 6963SOL    HW228311   9.358   7.532   2.906  1.1257  1.0442  0.1006
 6964SOL     OW28312   4.488   7.161   2.553  0.2140 -0.3760  0.2997
 6964SOL    HW128313   4.531   7.145   2.642  0.9281  0.1194  0.0456
 6964SOL    HW228314   4.558   7.163   2.481 -0.2462  0.2113 -0.1440
 6965SOL     OW28315   9.734   0.647   1.074  0.1621  0.2690  0.0382
 6965SOL    HW128316   9.805   0.632   1.005  1.7208  0.4725  1.5817
 6965SOL    HW228317   9.723   0.564   1.129  0.0047  0.6120  0.5249
 6966SOL     OW28318   1.267   6.732   1.166  0.1404  0.2170 -0.1373
 6966SOL    HW128319   1.351   6.777   1.196 -0.9413 -0.0964  3.5568
 6966SOL    HW228320   1.290   6.646   1.120  1.9155  1.4280 -1.6059
 6967SOL     OW28321   2.079   5.089   2.590  0.5505 -0.7557  0.4054
 6967SOL    HW128322   2.154   5.030   2.559  0.6007 -1.8818  2.5613
 6967SOL    HW228323   2.065   5.076   2.688 -1.0764  1.0294  0.4352
 6968SOL     OW28324   7.774   3.313   3.960 -0.2411 -0.3776 -0.3870
 6968SOL    HW128325   7.780   3.406   3.995 -1.2076 -0.6198  0.4582
 6968SOL    HW228326   7.736   3.314   3.868 -0.5568  0.0353 -0.2513
 6969SOL     OW28327   5.461   3.846   0.728  0.9986 -0.2687 -0.3710
 6969SOL    HW128328   5.369   3.814   0.754  1.2044  1.0390  2.1332
 6969SOL    HW228329   5.454   3.907   0.649 -0.5055  0.9873  0.6912
 6971SOL     OW28330   5.544   1.951   0.223 -0.4877  0.2636 -0.0646
 6971SOL    HW128331   5.520   1.854   0.216  2.2079 -0.6064  1.9624
 6971SOL    HW228332   5.620   1.971   0.160 -0.0683  0.7056  0.5742
 6972SOL     OW28333   4.143   2.901   4.272 -0.0631  0.2825  0.2233
 6972SOL    HW128334   4.189   2.940   4.352  1.6431 -0.8615 -0.1708
 6972SOL    HW228335   4.139   2.801   4.281 -0.0123  0.1555 -1.0324
 6973SOL     OW28336   9.906   0.315   4.437  0.3194  0.4469  0.2426
 6973SOL    HW128337   9.832   0.379   4.457 -0.2466  0.1442 -0.8399
 6973SOL    HW228338   9.947   0.339   4.349  2.0391  1.0942  1.1968
 6975SOL     OW28339   9.599   4.510   1.543  0.2211  0.0075 -0.5334
 6975SOL    HW128340   9.647   4.545   1.463  1.3938  0.1810  0.2374
 6975SOL    HW228341   9.644   4.542   1.627 -1.2248  0.1535  0.2079
 6976SOL     OW28342   1.659   4.354   7.475  0.3734 -0.0661 -0.2337
 6976SOL    HW128343   1.640   4.402   7.561 -1.1335 -0.8921 -0.0720
 6976SOL    HW228344   1.573   4.317   7.439  1.0748 -0.1228 -1.8556
 6977SOL     OW28345   3.147   3.011   4.566 -0.1173 -0.0552 -0.5933
 6977SOL    HW128346   3.202   2.927   4.559 -0.4368 -0.2731 -0.4847
 6977SOL    HW228347   3.206   3.090   4.550  0.1039 -0.3226 -1.1240
 6978SOL     OW28348   3.249   0.216   1.444  0.7684 -0.0906  0.2899
 6978SOL    HW128349   3.170   0.222   1.384  1.9165  1.4593 -1.1055
 6978SOL    HW228350   3.261   0.121   1.475 -2.5534 -0.0736  1.8567
 6980SOL     OW28351   7.926   7.163   1.165  0.5137  0.9150 -0.2545
 6980SOL    HW128352   7.944   7.259   1.185 -2.0978  1.4914 -0.5330
 6980SOL    HW228353   7.989   7.105   1.218  2.1405  2.7478 -0.1377
 6981SOL     OW28354   3.963   6.157   7.637 -0.0479 -0.4561 -0.1374
 6981SOL    HW128355   3.951   6.058   7.627  0.6898 -0.3416 -2.5294
 6981SOL    HW228356   4.050   6.185   7.595 -1.1749  1.4520 -1.3074
 6983SOL     OW28357   2.033   3.693   0.798 -0.3458  0.2991  0.3240
 6983SOL    HW128358   1.999   3.622   0.861  1.1901  1.4809  2.5539
 6983SOL    HW228359   2.035   3.781   0.846  1.9332  1.0243 -1.0385
 6985SOL     OW28360   0.018   7.941   5.040 -0.0652  0.1507 -0.0900
 6985SOL    HW128361   0.085   7.970   4.972 -0.6345  0.3058 -0.5878
 6985SOL    HW228362  -0.061   8.002   5.037  0.0205  0.3354  0.9088
 6986SOL     OW28363   3.641   2.942   6.758 -0.4951 -0.2347  0.1628
 6986SOL    HW128364   3.593   2.980   6.679  0.9512  0.0876 -0.5764
 6986SOL    HW228365   3.738   2.932   6.736 -0.0536  0.0074  1.9511
 6987SOL     OW28366   3.939   1.721   3.495  0.3973  0.3468  0.0098
 6987SOL    HW128367   3.978   1.730   3.404  1.3017  1.2742  0.4877
 6987SOL    HW228368   4.004   1.675   3.555 -1.6498 -3.8164 -0.7400
 6989SOL     OW28369   2.162   8.179   1.027  0.0669  0.6211  0.1410
 6989SOL    HW128370   2.196   8.191   0.934 -1.3142  1.8221 -0.2090
 6989SOL    HW228371   2.100   8.101   1.030 -1.2229  1.6296 -0.2976
 6991SOL     OW28372   9.244   3.588   2.836  1.1068  0.3850  0.7247
 6991SOL    HW128373   9.202   3.525   2.901 -0.2506  2.5799  2.0218
 6991SOL    HW228374   9.333   3.618   2.871  1.2340  0.0869  0.6581
 6992SOL     OW28375   3.883   6.560   7.230 -0.2616 -0.1359 -0.4680
 6992SOL    HW128376   3.810   6.542   7.165 -0.4750  0.0264 -0.2754
 6992SOL    HW228377   3.857   6.523   7.320  1.0477 -2.4727 -1.0151
 6993SOL     OW28378   3.049   8.487   7.934 -0.2128 -0.4020 -0.1086
 6993SOL    HW128379   2.981   8.558   7.916  0.5664  0.2886 -0.3399
 6993SOL    HW228380   3.091   8.458   7.848 -1.1523 -1.7882 -0.1242
 6994SOL     OW28381   0.008   5.394   4.038 -0.0784 -0.4299 -0.0409
 6994SOL    HW128382   0.002   5.445   3.952  0.9454  0.0376  0.1638
 6994SOL    HW228383   0.090   5.337   4.037 -0.7698 -1.4534  0.0807
 6995SOL     OW28384   8.595   3.446   1.291 -0.3456  0.0478 -0.3659
 6995SOL    HW128385   8.613   3.349   1.306  0.5641  0.3787  0.8025
 6995SOL    HW228386   8.524   3.477   1.354  0.6348  0.5365  0.5096
 6996SOL     OW28387   0.066   2.441   0.173  0.4646 -0.5750  0.1596
 6996SOL    HW128388   0.162   2.448   0.146 -0.2597 -0.1339 -2.4020
 6996SOL    HW228389   0.040   2.345   0.182  0.8083 -0.7222 -0.4143
 6998SOL     OW28390   8.827   9.944   5.804  0.4108 -0.5545  0.2016
 6998SOL    HW128391   8.923   9.967   5.820  0.6333 -1.1240 -0.2501
 6998SOL    HW228392   8.798   9.874   5.869  0.4985 -0.8603 -0.0854
 6999SOL     OW28393   9.520   6.073   7.399  0.3736 -0.3353  0.1543
 6999SOL    HW128394   9.467   6.065   7.315  0.5053  2.3128 -0.2316
 6999SOL    HW228395   9.580   5.994   7.409 -0.4080 -1.1757 -1.6867
 7000SOL     OW28396   8.329   2.931   5.789 -0.3680  0.0068 -0.9627
 7000SOL    HW128397   8.259   3.000   5.806 -0.5275 -0.0543 -1.3824
 7000SOL    HW228398   8.317   2.892   5.698  0.8285  0.7219 -1.4375
 7001SOL     OW28399   7.363   5.515   2.744 -0.4789 -0.0580  0.0511
 7001SOL    HW128400   7.384   5.608   2.715 -0.5498 -0.4391 -1.2237
 7001SOL    HW228401   7.405   5.498   2.834 -1.9892  1.7874  1.1404
 7002SOL     OW28402   1.909   3.024   7.298 -0.1521 -0.1407  0.2526
 7002SOL    HW128403   1.864   3.064   7.378  1.0872 -0.2313  1.0226
 7002SOL    HW228404   1.859   2.943   7.269 -0.9360  0.2133  0.5893
 7003SOL     OW28405   5.518   1.285   7.438 -0.3726  0.5091  0.1570
 7003SOL    HW128406   5.546   1.190   7.450 -0.7330  0.6906  2.5362
 7003SOL    HW228407   5.599   1.343   7.432 -0.1633  0.5682  3.1140
 7004SOL     OW28408   7.428   1.178   3.774 -0.2033 -0.0898  0.5933
 7004SOL    HW128409   7.431   1.204   3.870 -1.1762 -3.3601  1.5574
 7004SOL    HW228410   7.355   1.229   3.728 -0.1269  1.0375  1.6916
 7005SOL     OW28411   3.764   2.506   0.291 -0.2852  0.3511  0.2503
 7005SOL    HW128412   3.695   2.452   0.339  1.7387 -0.6979  2.0857
 7005SOL    HW228413   3.817   2.559   0.358 -0.7145  2.8473 -1.3207
 7006SOL     OW28414   3.074   4.937   3.874 -0.7796 -0.3930  0.1816
 7006SOL    HW128415   3.015   5.017   3.887 -0.4909 -0.0241 -0.7474
 7006SOL    HW228416   3.169   4.963   3.887 -0.8067 -0.9743  1.5987
 7007SOL     OW28417   3.571   1.068   3.954  0.2217 -0.4104  0.0517
 7007SOL    HW128418   3.591   0.983   4.002  0.9905 -0.2911 -0.0564
 7007SOL    HW228419   3.542   1.048   3.860 -0.0329 -0.5766  0.1675
 7008SOL     OW28420   4.107   1.308   6.919 -0.2406  0.4246 -0.4551
 7008SOL    HW128421   4.092   1.216   6.881  3.1393  0.0546 -1.0448
 7008SOL    HW228422   4.024   1.362   6.908 -1.3024 -1.5932 -2.9691
 7009SOL     OW28423   2.508   7.380   4.000 -0.2768 -0.1816 -0.2293
 7009SOL    HW128424   2.598   7.380   3.956  0.0494  1.1033  0.3907
 7009SOL    HW228425   2.447   7.318   3.951  0.5942 -0.1399 -1.4106
 7010SOL     OW28426   8.788   7.539   7.293  0.0522  0.7667  0.0144
 7010SOL    HW128427   8.755   7.500   7.207  1.5167  1.3603 -0.8400
 7010SOL    HW228428   8.808   7.636   7.280 -1.3093  1.2779  1.4927
 7011SOL     OW28429   5.802   1.675   1.152 -0.2532  0.6086 -0.2997
 7011SOL    HW128430   5.759   1.678   1.242  3.4908  3.5480  1.5437
 7011SOL    HW228431   5.881   1.613   1.154  0.1681  1.0893 -1.3643
 7016SOL     OW28432   8.024   2.476   3.284  0.2618 -0.3310  0.3235
 7016SOL    HW128433   7.931   2.499   3.257  0.8501  1.0680 -0.6112
 7016SOL    HW228434   8.088   2.541   3.241  1.6324 -1.0709  1.2022
 7017SOL     OW28435   3.404   3.274   2.408 -0.0801  0.3547 -0.7870
 7017SOL    HW128436   3.457   3.196   2.374 -0.1339 -0.1843  0.3300
 7017SOL    HW228437   3.462   3.327   2.470 -0.7061 -0.0021  0.1121
 7019SOL     OW28438   8.706   9.183   1.847  0.1945  0.1915 -0.1420
 7019SOL    HW128439   8.646   9.137   1.781  0.3287 -0.3876  0.1432
 7019SOL    HW228440   8.794   9.203   1.805 -0.4053  1.6227 -0.7713
 7020SOL     OW28441   9.481   6.172   2.827 -0.1087 -0.4688  0.5411
 7020SOL    HW128442   9.447   6.079   2.811  1.2437 -0.5874 -1.8454
 7020SOL    HW228443   9.413   6.238   2.795  0.0738 -0.6646 -0.2565
 7023SOL     OW28444   4.675   8.082   3.153 -0.2091  0.4154  0.4951
 7023SOL    HW128445   4.650   8.174   3.123  0.2016  0.8621  1.4889
 7023SOL    HW228446   4.707   8.086   3.248 -0.5666 -0.8104  0.6742
 7024SOL     OW28447   1.967   4.101   5.092 -0.2663  0.5284  0.0747
 7024SOL    HW128448   2.002   4.185   5.132 -0.9738  1.3046 -0.9131
 7024SOL    HW228449   1.941   4.038   5.165  3.5099 -0.2509  0.8569
 7025SOL     OW28450   7.736   8.166   2.509 -0.2076  0.8274 -0.4269
 7025SOL    HW128451   7.647   8.176   2.552  0.1761 -0.1292  0.6273
 7025SOL    HW228452   7.803   8.225   2.554  0.5510 -1.3350  1.4025
 7026SOL     OW28453   8.514   3.345   0.835  0.5240 -0.0581 -1.1653
 7026SOL    HW128454   8.456   3.426   0.847 -0.5285 -0.9790  0.2587
 7026SOL    HW228455   8.591   3.367   0.776 -0.3495  1.6771 -1.6920
 7028SOL     OW28456   7.973   6.189   3.955 -0.0502 -0.6897  0.0509
 7028SOL    HW128457   7.914   6.173   3.876 -0.3195 -0.1256  0.1353
 7028SOL    HW228458   8.039   6.114   3.963  0.1239 -0.6408 -0.8360
 7029SOL     OW28459   2.452   7.636   0.678 -0.5584  0.3850 -0.2177
 7029SOL    HW128460   2.394   7.555   0.668  0.9297 -0.6072 -1.0016
 7029SOL    HW228461   2.547   7.607   0.694 -0.1348  1.9801  0.2572
 7031SOL     OW28462   4.363   1.576   1.161  0.0339 -0.1634 -0.3204
 7031SOL    HW128463   4.274   1.601   1.121 -0.3219  0.1460  0.6431
 7031SOL    HW228464   4.362   1.598   1.259  1.8735  1.7374 -0.6934
 7034SOL     OW28465   8.309   5.624   5.891 -0.0384  0.2901  0.6876
 7034SOL    HW128466   8.374   5.570   5.837 -0.7728  0.0253  0.0537
 7034SOL    HW228467   8.283   5.572   5.973 -0.6155 -0.2585  0.1631
 7035SOL     OW28468   8.613   6.655   0.375 -0.1299 -0.4895  0.0748
 7035SOL    HW128469   8.638   6.589   0.303  1.9950  1.6582 -1.2347
 7035SOL    HW228470   8.517   6.681   0.364 -0.8171 -2.8444  0.2200
 7037SOL     OW28471   3.585   8.433   7.500  0.2686  0.2703 -0.3271
 7037SOL    HW128472   3.656   8.503   7.484 -0.6979  1.0321 -1.3480
 7037SOL    HW228473   3.523   8.464   7.572  0.1244  0.2524 -0.4428
 7038SOL     OW28474   9.097   6.584   3.888 -0.0241  0.0387  0.1078
 7038SOL    HW128475   9.159   6.526   3.836  0.7899  1.7312 -0.8364
 7038SOL    HW228476   9.133   6.595   3.981 -0.3734 -1.2425  0.4061
 7040SOL     OW28477   9.048   0.858   4.643 -0.5070  0.0429 -0.4429
 7040SOL    HW128478   9.077   0.811   4.560 -0.3009  1.5253 -1.2301
 7040SOL    HW228479   8.980   0.803   4.691 -1.8802 -0.0613 -2.4818
 7041SOL     OW28480   0.314   5.969   0.205  0.2849  0.3523  0.1371
 7041SOL    HW128481   0.246   6.001   0.272  0.4118  2.0149 -0.5201
 7041SOL    HW228482   0.392   6.031   0.206 -0.0585  0.8346 -2.1182
 7043SOL     OW28483   2.559   2.377   2.289  0.2224 -0.0343 -0.4887
 7043SOL    HW128484   2.460   2.364   2.296  0.5017 -0.8496  3.0784
 7043SOL    HW228485   2.580   2.472   2.268 -1.2781  0.7402  1.4469
 7044SOL     OW28486   0.901   4.858   6.951 -0.3474 -0.0930  0.3818
 7044SOL    HW128487   0.804   4.876   6.934 -0.3157  0.3524  0.6838
 7044SOL    HW228488   0.955   4.940   6.930 -0.0959 -0.1621  0.7624
 7046SOL     OW28489   3.652   8.346   0.738  0.8882  0.5920 -0.1454
 7046SOL    HW128490   3.713   8.332   0.816  0.3906  1.2570  0.3704
 7046SOL    HW228491   3.706   8.366   0.657  1.3369  1.7611  0.4359
 7047SOL     OW28492   9.867   7.766   3.788  0.4107  0.2842  0.0952
 7047SOL    HW128493   9.931   7.762   3.711 -0.7295  0.2777 -0.8700
 7047SOL    HW228494   9.826   7.857   3.793 -0.1230  0.0414  0.1980
 7048SOL     OW28495   2.149   3.101   1.191  0.5450 -0.0816 -0.2671
 7048SOL    HW128496   2.248   3.089   1.193  0.3603 -1.7816  0.1681
 7048SOL    HW228497   2.125   3.173   1.127  2.1086  0.9758  0.2993
 7049SOL     OW28498   5.497   9.806   1.651 -0.3048  0.0923 -0.1169
 7049SOL    HW128499   5.456   9.882   1.701  0.3416 -0.0182  0.5942
 7049SOL    HW228500   5.558   9.842   1.580 -0.8056  0.2447 -0.4699
 7050SOL     OW28501   1.166   6.437   6.684 -0.0933 -0.2164 -0.6354
 7050SOL    HW128502   1.093   6.396   6.630  0.0054  1.5785 -2.1688
 7050SOL    HW228503   1.229   6.487   6.624  0.4652  1.1351  1.0227
 7051SOL     OW28504   9.832   7.531   5.410 -0.5657  0.0598 -0.1007
 7051SOL    HW128505   9.848   7.529   5.311  0.7098 -1.1677  0.1133
 7051SOL    HW228506   9.798   7.442   5.440  0.2329  0.0274  0.7351
 7052SOL     OW28507   8.987   0.820   5.159  0.4940 -0.4372  0.4092
 7052SOL    HW128508   8.920   0.875   5.109  0.5334  0.8261  1.7280
 7052SOL    HW228509   9.051   0.778   5.094 -1.3035 -1.3096 -0.8223
 7053SOL     OW28510   4.086   1.710   1.833  0.4264  0.1475  0.0998
 7053SOL    HW128511   4.035   1.777   1.780 -0.1439 -2.2358 -2.4346
 7053SOL    HW228512   4.166   1.755   1.875 -0.9632  2.7813  0.0467
 7054SOL     OW28513   9.360   8.688   5.883 -0.0702 -0.3953  0.6849
 7054SOL    HW128514   9.420   8.695   5.803 -0.8378 -1.9061 -0.0432
 7054SOL    HW228515   9.405   8.631   5.952  0.3220  0.4015  1.1045
 7055SOL     OW28516   7.558   5.305   7.671 -0.4476  0.1346  0.2835
 7055SOL    HW128517   7.612   5.362   7.733 -2.6802  2.2674  0.3476
 7055SOL    HW228518   7.615   5.277   7.594  0.6644  2.6776  0.1214
 7056SOL     OW28519   5.147   6.058   1.981  0.0273 -0.1492 -0.6286
 7056SOL    HW128520   5.113   5.974   1.939 -1.0688  0.0432 -0.1653
 7056SOL    HW228521   5.156   6.044   2.080 -2.0559  0.8481 -0.2621
 7057SOL     OW28522   1.940   6.288   2.622  0.3307  0.3926 -0.1528
 7057SOL    HW128523   1.939   6.327   2.715  2.1504  0.7591 -0.2653
 7057SOL    HW228524   1.862   6.324   2.571 -0.5840  0.3481  1.1629
 7058SOL     OW28525   7.502   0.004   1.035  0.0147 -0.1549 -0.0339
 7058SOL    HW128526   7.470   0.072   0.969 -0.3887 -1.5740 -1.3407
 7058SOL    HW228527   7.583   0.038   1.082 -0.6117  1.5216 -0.1366
 7059SOL     OW28528   6.438   5.375   7.145  0.7986  0.2782 -0.0562
 7059SOL    HW128529   6.377   5.435   7.093 -0.6941 -1.3437 -0.2364
 7059SOL    HW228530   6.523   5.423   7.164 -0.2404  2.3549 -0.4344
 7060SOL     OW28531   9.343   8.457   3.930 -0.0661 -0.4324  0.2311
 7060SOL    HW128532   9.394   8.543   3.930  0.1650 -0.5274  3.5184
 7060SOL    HW228533   9.266   8.465   3.866 -0.1983  2.3049  0.6733
 7061SOL     OW28534   6.843   6.866   4.245  0.0342 -0.9167  0.3692
 7061SOL    HW128535   6.940   6.855   4.268  0.2129 -0.6106 -0.2404
 7061SOL    HW228536   6.822   6.814   4.163  0.0389  0.2502 -0.3850
 7063SOL     OW28537   3.251   4.452   3.102 -0.0069 -0.1073 -0.0380
 7063SOL    HW128538   3.303   4.426   3.021 -0.6449 -1.1662 -0.1204
 7063SOL    HW228539   3.288   4.404   3.182 -0.8830 -0.9289 -0.1093
 7064SOL     OW28540   9.962   7.243   4.945  0.0911  0.0493  0.4993
 7064SOL    HW128541  10.015   7.171   4.901  0.2955  0.5385 -0.0678
 7064SOL    HW228542  10.022   7.298   5.003  0.4267  1.2295 -0.9339
 7066SOL     OW28543   3.801   9.063   5.342 -0.2778 -0.5306  0.5234
 7066SOL    HW128544   3.773   9.081   5.248 -1.0226 -0.9115  0.6721
 7066SOL    HW228545   3.860   8.982   5.345  0.7488  0.1881  0.2307
 7067SOL     OW28546   8.176   8.055   1.221  0.1559  0.2480  0.6371
 7067SOL    HW128547   8.177   8.113   1.302  1.0477  1.0142  0.1008
 7067SOL    HW228548   8.214   8.106   1.143 -1.6820 -0.0968 -0.5239
 7068SOL     OW28549   3.133   2.138   4.997  0.4348  0.0293 -0.0023
 7068SOL    HW128550   3.166   2.074   4.927 -1.0758 -0.4900 -0.2609
 7068SOL    HW228551   3.116   2.227   4.956  0.4555 -0.0123 -0.1002
 7069SOL     OW28552   4.206   8.174   4.819  1.0415  0.6785 -0.3876
 7069SOL    HW128553   4.156   8.261   4.814  1.2865  0.9675  1.6399
 7069SOL    HW228554   4.301   8.192   4.845  1.2128 -0.1743 -0.4112
 7070SOL     OW28555   1.729   4.599   1.024 -0.6183 -0.1468  0.1942
 7070SOL    HW128556   1.691   4.649   0.947  2.3134  1.4641 -0.2870
 7070SOL    HW228557   1.776   4.517   0.992  0.1883  0.2661  0.3078
 7071SOL     OW28558   3.700   3.806   5.953 -0.5397 -0.0288  0.3542
 7071SOL    HW128559   3.755   3.769   6.027  1.2080  0.6453 -0.5862
 7071SOL    HW228560   3.656   3.732   5.903 -1.5367 -0.5024  1.8780
 7073SOL     OW28561   1.353   3.860   0.213  0.5513 -0.0752  0.6537
 7073SOL    HW128562   1.357   3.800   0.133  0.1310 -0.6150  1.0334
 7073SOL    HW228563   1.260   3.893   0.225  0.2039 -1.4697  1.9858
 7074SOL     OW28564   5.594   7.753   3.803 -0.4530 -0.2442 -0.0372
 7074SOL    HW128565   5.576   7.685   3.875 -2.5499  2.1741  1.7957
 7074SOL    HW228566   5.628   7.706   3.722  0.0059 -3.2878  1.8098
 7075SOL     OW28567   7.817   9.034   4.806 -0.4411 -0.5239 -0.4331
 7075SOL    HW128568   7.867   9.099   4.862 -0.4120 -0.4895 -0.4990
 7075SOL    HW228569   7.723   9.026   4.840 -1.0601  1.1177 -1.6683
 7077SOL     OW28570   8.163   6.813   6.746  0.1516 -0.2152 -0.0043
 7077SOL    HW128571   8.208   6.763   6.672  0.2726  0.9788 -0.7517
 7077SOL    HW228572   8.187   6.910   6.741 -0.4506  0.0069  1.1409
 7078SOL     OW28573   4.669   3.548   1.562 -0.3269  0.1399 -0.1733
 7078SOL    HW128574   4.645   3.524   1.468 -1.1559 -0.8994  0.2946
 7078SOL    HW228575   4.651   3.470   1.622  0.8488  0.5569  0.7510
 7079SOL     OW28576   4.368   7.401   2.504  0.7327 -0.1317 -0.0618
 7079SOL    HW128577   4.418   7.487   2.502  0.3977  0.1010  1.5249
 7079SOL    HW228578   4.430   7.326   2.527  1.0343 -0.3481 -1.4908
 7081SOL     OW28579   2.006   4.261   4.375 -0.2470  0.4185  0.4211
 7081SOL    HW128580   2.102   4.284   4.387 -0.0493 -1.0290  1.6764
 7081SOL    HW228581   1.993   4.162   4.382 -1.6663  0.4870 -0.8782
 7083SOL     OW28582   2.840   1.322   2.482  0.0790  0.2038  0.0838
 7083SOL    HW128583   2.759   1.305   2.539  0.6037  1.1818  1.1288
 7083SOL    HW228584   2.826   1.405   2.429  0.3827  0.3365  0.2149
 7084SOL     OW28585   9.316   1.583   4.165  0.2840 -0.3995  0.0590
 7084SOL    HW128586   9.409   1.554   4.143  0.5265 -0.6584  1.3910
 7084SOL    HW228587   9.277   1.633   4.087  1.4760 -0.4121 -0.5524
 7085SOL     OW28588   6.261   5.138   7.444 -0.3565  0.1020 -0.0395
 7085SOL    HW128589   6.187   5.071   7.447  1.0141 -1.4634 -0.3062
 7085SOL    HW228590   6.283   5.159   7.348  1.8477 -2.1061 -0.0729
 7086SOL     OW28591   8.879   0.106   7.435 -0.1186 -0.7428 -0.6398
 7086SOL    HW128592   8.924   0.026   7.394  0.5774 -0.3943 -0.5636
 7086SOL    HW228593   8.807   0.075   7.496 -0.3543 -1.2988 -1.1815
 7087SOL     OW28594   7.035   0.998   1.328 -0.2389 -0.4748 -0.0553
 7087SOL    HW128595   7.032   1.043   1.239 -1.0035  0.7208  0.5737
 7087SOL    HW228596   6.943   0.969   1.355 -0.0733 -0.4722  0.5296
 7089SOL     OW28597   4.967   9.438   7.041 -0.2587  0.3173  0.1232
 7089SOL    HW128598   4.921   9.517   7.079 -1.3812  0.1186 -0.8035
 7089SOL    HW228599   4.907   9.392   6.976  0.8519 -0.5610 -0.3026
 7090SOL     OW28600   8.874   8.199   5.897 -0.0310  0.4935  0.3167
 7090SOL    HW128601   8.863   8.272   5.963 -0.4873 -0.1690  0.9913
 7090SOL    HW228602   8.899   8.114   5.944 -2.8863 -0.6182 -0.0035
 7091SOL     OW28603   4.361   2.838   0.223 -0.7223  0.1611 -0.3180
 7091SOL    HW128604   4.415   2.864   0.303 -2.0255 -0.1713  0.6928
 7091SOL    HW228605   4.345   2.918   0.166 -0.3586  0.5453  0.1141
 7094SOL     OW28606   0.543   9.533   7.125  0.3364  0.0728 -0.0154
 7094SOL    HW128607   0.531   9.468   7.050 -1.4323  1.3432 -0.8358
 7094SOL    HW228608   0.528   9.486   7.212  0.1785 -0.8826 -0.5528
 7096SOL     OW28609   7.100   6.303   1.816 -0.4727 -0.3108  0.3300
 7096SOL    HW128610   7.123   6.397   1.842  0.2664  0.0736 -1.6241
 7096SOL    HW228611   7.059   6.302   1.725  0.9057 -2.0331 -0.3091
 7098SOL     OW28612   8.453   2.645   3.581 -0.3941 -0.4989  0.6429
 7098SOL    HW128613   8.503   2.575   3.632 -1.3622 -1.3327  0.4629
 7098SOL    HW228614   8.402   2.603   3.507 -1.0957  0.3782  0.6115
 7099SOL     OW28615   7.894   4.605   1.173 -0.2046 -0.3743  0.0987
 7099SOL    HW128616   7.984   4.585   1.135 -0.7325  0.7357 -1.8074
 7099SOL    HW228617   7.830   4.534   1.146 -0.1837 -0.5038  0.3915
 7100SOL     OW28618   4.491   0.396   2.832  0.4308 -0.1587 -0.0180
 7100SOL    HW128619   4.555   0.371   2.759 -0.2921  0.2791 -0.8024
 7100SOL    HW228620   4.434   0.473   2.803 -0.5765 -0.6526  0.6076
 7101SOL     OW28621   1.659   8.298   4.979 -0.3825  0.0377 -0.2666
 7101SOL    HW128622   1.574   8.245   4.971 -1.3476  1.6438 -0.6755
 7101SOL    HW228623   1.723   8.269   4.908 -0.4640 -1.3868  0.2224
 7102SOL     OW28624   0.388   2.482   6.948  0.7090 -0.5434 -0.0285
 7102SOL    HW128625   0.447   2.404   6.925  1.8062  0.5911 -1.1139
 7102SOL    HW228626   0.319   2.494   6.876  0.3242 -0.7205  0.3101
 7103SOL     OW28627   6.817   7.721   5.384 -0.1313 -0.2427  0.2601
 7103SOL    HW128628   6.878   7.800   5.392 -0.1996 -0.1460 -0.1556
 7103SOL    HW228629   6.743   7.743   5.320 -0.8783 -0.1845  1.1316
 7104SOL     OW28630   0.351   6.558   4.846 -0.1137  0.4212 -0.2212
 7104SOL    HW128631   0.273   6.619   4.854  0.1132  0.6337  0.3777
 7104SOL    HW228632   0.391   6.567   4.755 -0.2851  0.9129 -0.2482
 7105SOL     OW28633   3.843   8.105   3.411  0.0513 -0.5415 -0.3722
 7105SOL    HW128634   3.753   8.137   3.381  0.7678  1.2806 -0.6411
 7105SOL    HW228635   3.866   8.020   3.363 -2.2202 -1.9455  0.9207
 7106SOL     OW28636   2.682   6.378   5.300  0.1229 -0.3693  0.0953
 7106SOL    HW128637   2.768   6.362   5.349  0.8532 -0.6889 -1.2711
 7106SOL    HW228638   2.702   6.408   5.206 -1.2582  0.1635 -0.0444
 7107SOL     OW28639   2.045   1.442   4.557 -0.1365 -0.2655  0.3004
 7107SOL    HW128640   2.026   1.345   4.544  1.0630 -0.4163 -0.2921
 7107SOL    HW228641   2.114   1.453   4.628 -1.6194  0.2546  1.7202
 7108SOL     OW28642   8.077   2.916   3.672 -0.1313 -0.2691 -0.0841
 7108SOL    HW128643   8.004   2.912   3.741 -1.6032 -1.5019 -1.6547
 7108SOL    HW228644   8.055   2.853   3.597  0.0885  2.9345 -2.9687
 7109SOL     OW28645   2.340   4.845   0.641 -0.0712  0.7649 -0.8388
 7109SOL    HW128646   2.420   4.839   0.700 -0.0489  1.2617 -0.8183
 7109SOL    HW228647   2.303   4.938   0.644 -0.6719  0.5300 -0.8127
 7110SOL     OW28648   4.567   6.882   0.765  0.0435 -0.4717  0.2410
 7110SOL    HW128649   4.660   6.914   0.785  0.4677 -1.9056  0.6563
 7110SOL    HW228650   4.504   6.960   0.765  1.1949  0.4837  0.2139
 7111SOL     OW28651   4.495   8.356   5.696 -0.4012  0.3124  0.4073
 7111SOL    HW128652   4.412   8.389   5.653  0.9910  1.2799 -1.6173
 7111SOL    HW228653   4.531   8.426   5.758  1.4340  1.8782 -2.3244
 7112SOL     OW28654   9.859   4.497   5.015 -0.3639 -0.0898 -0.1931
 7112SOL    HW128655   9.931   4.563   4.996 -0.1881 -0.4273 -0.7315
 7112SOL    HW228656   9.868   4.419   4.952 -1.6499  0.2254 -0.7959
 7113SOL     OW28657   8.182   9.434   2.461  0.3433 -0.0014 -0.0369
 7113SOL    HW128658   8.217   9.526   2.472 -0.8421  0.3746  0.6813
 7113SOL    HW228659   8.254   9.374   2.426  0.7075  1.5050 -1.9472
 7115SOL     OW28660   2.143   2.870   2.034  0.0514  0.5025 -0.1409
 7115SOL    HW128661   2.206   2.861   1.957  0.2539 -0.3099  0.1173
 7115SOL    HW228662   2.187   2.836   2.117 -1.6232 -2.4641 -0.4131
 7118SOL     OW28663   2.484   3.243   6.579 -0.1354 -0.3126  0.1009
 7118SOL    HW128664   2.466   3.144   6.574  1.1670 -0.5310 -0.4200
 7118SOL    HW228665   2.401   3.293   6.556 -1.2826 -1.2671  1.9872
 7119SOL     OW28666   1.859   8.445   6.372 -0.1085 -0.1027 -0.1759
 7119SOL    HW128667   1.787   8.496   6.420  0.5379  1.3501 -0.7186
 7119SOL    HW228668   1.820   8.363   6.331 -1.7835  1.4413 -1.7477
 7120SOL     OW28669   9.379   5.519   4.204 -0.3662  0.7460  0.0061
 7120SOL    HW128670   9.281   5.500   4.213 -0.1051 -1.2887 -1.0857
 7120SOL    HW228671   9.401   5.603   4.254 -2.3826  0.4245  1.5264
 7121SOL     OW28672   6.254   9.775   3.503 -0.1856  0.1626  0.3291
 7121SOL    HW128673   6.214   9.719   3.431  1.4156  0.0412 -0.4920
 7121SOL    HW228674   6.182   9.828   3.548 -1.1565  0.5149 -1.5929
 7122SOL     OW28675   7.061   9.925   4.812 -0.3332  0.3888 -0.1305
 7122SOL    HW128676   7.090   9.991   4.881 -0.2969  0.6284 -0.3720
 7122SOL    HW228677   7.120   9.845   4.815 -0.0144  0.6195 -0.2263
 7123SOL     OW28678   5.133   4.518   0.610  0.2250  0.1257 -0.3638
 7123SOL    HW128679   5.175   4.587   0.668  1.1851 -1.1610  0.5182
 7123SOL    HW228680   5.045   4.551   0.576  0.1673  1.3415  0.9249
 7124SOL     OW28681   2.585   5.815   6.570  0.4503 -0.1121 -0.0245
 7124SOL    HW128682   2.498   5.862   6.585 -0.2821 -1.6643  0.7446
 7124SOL    HW228683   2.568   5.729   6.522  1.8082  0.5661 -1.7622
 7126SOL     OW28684   3.676   6.811   1.925  0.0281 -0.3684  0.1428
 7126SOL    HW128685   3.754   6.761   1.887  0.7278  0.3134  0.6938
 7126SOL    HW228686   3.699   6.907   1.936 -0.8540 -0.1807  0.4230
 7127SOL     OW28687   4.417   1.819   5.918  0.1699 -0.2228  0.2061
 7127SOL    HW128688   4.347   1.757   5.955 -1.0211  0.5966 -0.6199
 7127SOL    HW228689   4.497   1.766   5.891 -0.2814 -1.2323  0.7953
 7128SOL     OW28690   4.394   7.091   1.066 -0.7264 -0.7026  1.0994
 7128SOL    HW128691   4.402   7.092   0.966 -2.6586  1.1123  0.9256
 7128SOL    HW228692   4.379   6.997   1.097 -1.1650 -1.1491 -0.4085
 7129SOL     OW28693   6.096   4.926   0.585  0.0397 -0.3794  0.1311
 7129SOL    HW128694   6.069   4.932   0.681  0.1742 -0.2208  0.1589
 7129SOL    HW228695   6.029   4.870   0.535 -0.5484  0.3325  0.1150
 7131SOL     OW28696   9.957   1.771   0.497  0.2589  0.1727 -0.3085
 7131SOL    HW128697   9.958   1.671   0.502 -0.5331  0.1823  0.1388
 7131SOL    HW228698  10.050   1.806   0.505  0.2312 -0.3711  3.4599
 7133SOL     OW28699   1.963   9.147   5.739 -0.0247  0.3700  0.1017
 7133SOL    HW128700   2.052   9.176   5.774  0.6097  0.1845 -1.3130
 7133SOL    HW228701   1.954   9.048   5.745 -0.4505  0.4504  0.9340
 7134SOL     OW28702   8.392   4.365   2.095 -0.0526  0.1066  1.1319
 7134SOL    HW128703   8.492   4.368   2.107 -0.0744  0.8044  1.1589
 7134SOL    HW228704   8.361   4.451   2.054 -0.5047 -0.5820  0.0160
 7135SOL     OW28705   5.268   8.011   3.486 -0.3458 -0.0357  0.1450
 7135SOL    HW128706   5.329   8.024   3.408  1.5533 -0.0274  1.5992
 7135SOL    HW228707   5.318   7.967   3.561 -2.5222 -1.3637  0.8584
 7137SOL     OW28708   9.398   4.390   7.809 -0.3689  0.1623  0.2097
 7137SOL    HW128709   9.432   4.455   7.878  1.5160  0.8028 -1.2781
 7137SOL    HW228710   9.383   4.438   7.723 -1.2278 -0.9350 -0.2622
 7138SOL     OW28711   1.157   5.102   2.067 -0.5777 -0.1197  0.2716
 7138SOL    HW128712   1.092   5.050   2.013 -0.5011 -0.3296  0.3822
 7138SOL    HW228713   1.185   5.048   2.146  2.2908 -1.3868 -1.5374
 7140SOL     OW28714   2.890   6.796   5.423  0.0761 -0.0994 -0.4237
 7140SOL    HW128715   2.800   6.754   5.412  0.4641 -0.9512 -0.3718
 7140SOL    HW228716   2.901   6.828   5.517 -0.2167  0.1004 -0.4589
 7141SOL     OW28717   1.731   9.387   2.119 -0.4942 -0.4850  0.1909
 7141SOL    HW128718   1.632   9.376   2.108 -0.7798  2.7106 -0.9203
 7141SOL    HW228719   1.778   9.338   2.046 -1.2511 -1.5896  0.4235
 7142SOL     OW28720   8.962   6.616   5.462  0.3940  0.5430 -0.2818
 7142SOL    HW128721   8.985   6.520   5.446  2.2173  0.8423  0.4020
 7142SOL    HW228722   8.877   6.622   5.514  0.5945 -0.7158  0.2074
 7143SOL     OW28723   5.083   1.342   4.793  0.3917 -0.4367 -0.4389
 7143SOL    HW128724   5.144   1.300   4.726 -0.5145  0.2165 -1.6883
 7143SOL    HW228725   5.016   1.274   4.824  1.4233 -1.0161  0.5681
 7145SOL     OW28726   7.607   3.396   1.326  0.0723  0.3261  0.1001
 7145SOL    HW128727   7.512   3.367   1.334 -0.5603  1.9782 -1.2370
 7145SOL    HW228728   7.647   3.357   1.243  0.9443 -1.3261  1.2594
 7146SOL     OW28729   0.697   9.675   6.204 -0.2021 -0.8508 -0.3304
 7146SOL    HW128730   0.790   9.688   6.239 -0.1848  1.6570 -1.2107
 7146SOL    HW228731   0.666   9.759   6.159 -4.5402  0.0207  3.8254
 7147SOL     OW28732   5.453   3.285   0.292 -0.3421 -0.1037 -0.4290
 7147SOL    HW128733   5.478   3.225   0.368  0.7240  1.2395  0.2993
 7147SOL    HW228734   5.496   3.250   0.208  0.5028 -0.2114  0.0391
 7148SOL     OW28735   1.163   4.348   5.336  0.2660  1.3324 -0.3468
 7148SOL    HW128736   1.157   4.387   5.244 -1.9343  1.9184  0.0054
 7148SOL    HW228737   1.071   4.340   5.374  0.9761 -1.0260  0.9396
 7149SOL     OW28738   8.918   0.512   4.768 -0.2447  0.4225 -0.0018
 7149SOL    HW128739   8.870   0.591   4.728  1.0212  0.9773 -0.4357
 7149SOL    HW228740   8.993   0.544   4.825  0.2208 -0.4792 -0.1032
 7152SOL     OW28741   9.058   7.446   1.572  0.1905  0.1455 -0.3068
 7152SOL    HW128742   9.152   7.445   1.608  0.8785  0.7099 -2.0473
 7152SOL    HW228743   9.045   7.367   1.513 -0.3539  0.2250 -0.2908
 7154SOL     OW28744   9.074   4.049   5.359 -0.1139 -0.3521  1.0211
 7154SOL    HW128745   9.084   4.007   5.450  2.9562 -1.0635  0.4305
 7154SOL    HW228746   9.118   4.139   5.360 -0.7818 -0.0233  0.4606
 7155SOL     OW28747   8.218   4.680   5.183  0.1316 -0.2139  0.2912
 7155SOL    HW128748   8.176   4.618   5.249 -0.3191 -0.6952 -0.4449
 7155SOL    HW228749   8.275   4.628   5.119 -0.5675  0.0824 -0.5740
 7158SOL     OW28750   5.542   8.697   6.250  0.2348  0.0802 -0.6874
 7158SOL    HW128751   5.446   8.702   6.225  0.5202  2.4606 -1.3729
 7158SOL    HW228752   5.557   8.741   6.339  0.7576  0.1169 -0.7882
 7159SOL     OW28753   3.898   2.053   5.021  0.0448 -0.2323  0.8347
 7159SOL    HW128754   3.948   2.139   5.011 -0.3383  0.0378  1.2355
 7159SOL    HW228755   3.799   2.071   5.021 -0.1325 -0.9303 -1.7254
 7160SOL     OW28756   0.787   9.042   0.887 -0.3291 -0.5718  0.3633
 7160SOL    HW128757   0.715   8.973   0.899  0.2087 -0.8389  2.1077
 7160SOL    HW228758   0.849   9.039   0.965  0.6874  0.7295 -0.3888
 7162SOL     OW28759   7.863   5.816   3.893  0.2616 -0.2572 -0.0104
 7162SOL    HW128760   7.892   5.819   3.989  0.2392  2.4072 -0.0599
 7162SOL    HW228761   7.823   5.904   3.867  1.0410 -0.6414 -2.6992
 7163SOL     OW28762   0.480   0.563   4.405 -0.5562 -0.5958 -0.1599
 7163SOL    HW128763   0.513   0.598   4.317  0.6782 -0.3500  0.3861
 7163SOL    HW228764   0.462   0.639   4.467  0.7601 -0.8510  0.5497
 7164SOL     OW28765   1.225   2.739   0.486 -0.2057 -0.0937  0.4655
 7164SOL    HW128766   1.291   2.706   0.554  0.9767  0.4233 -0.4206
 7164SOL    HW228767   1.270   2.803   0.424 -1.4017 -0.1818 -0.5110
 7166SOL     OW28768   7.607   0.237   6.186  0.3585 -0.1059 -0.0228
 7166SOL    HW128769   7.613   0.161   6.251  1.5757 -1.9492 -2.1943
 7166SOL    HW228770   7.658   0.315   6.222  1.3687 -1.2269  1.0588
 7167SOL     OW28771   0.214   3.424   2.023  0.5021 -0.3062 -0.0904
 7167SOL    HW128772   0.232   3.448   1.928 -0.2510 -0.1748 -0.2072
 7167SOL    HW228773   0.220   3.505   2.081 -3.0726  0.4311 -0.6378
 7168SOL     OW28774   3.216   5.939   6.363 -0.5526 -0.0895  0.2594
 7168SOL    HW128775   3.135   5.913   6.311 -0.4727  0.8610 -0.3584
 7168SOL    HW228776   3.188   5.971   6.454 -0.8097 -0.3973  0.2901
 7170SOL     OW28777   6.248   8.467   5.191  0.3606  0.0253 -0.4941
 7170SOL    HW128778   6.325   8.454   5.254  0.2238 -1.6718 -0.6533
 7170SOL    HW228779   6.243   8.389   5.129 -2.0449 -0.3059  0.0919
 7171SOL     OW28780   4.570   4.659   5.811 -0.0024 -0.5408  0.9015
 7171SOL    HW128781   4.580   4.563   5.784  0.2264 -0.4556  0.6780
 7171SOL    HW228782   4.511   4.706   5.744  2.5655  0.2613 -0.8636
 7174SOL     OW28783   9.761   4.301   4.769 -0.3871 -0.3903  0.1796
 7174SOL    HW128784   9.814   4.268   4.691  1.4741 -0.5286  1.4768
 7174SOL    HW228785   9.676   4.248   4.777 -0.6713 -0.2740 -1.8173
 7175SOL     OW28786   8.914   0.041   0.302 -0.6029 -0.0241  0.5294
 7175SOL    HW128787   8.981  -0.025   0.266 -0.7655 -0.3709  0.8584
 7175SOL    HW228788   8.902   0.115   0.236 -2.6026 -1.8132 -1.1675
 7176SOL     OW28789   8.425   4.207   5.392  0.1439  0.3122  0.3894
 7176SOL    HW128790   8.371   4.212   5.308  0.8897  1.1542 -0.0311
 7176SOL    HW228791   8.363   4.196   5.470 -0.5175 -1.0638 -0.3141
 7177SOL     OW28792   4.538   0.074   4.415  0.4030  0.2395  0.3607
 7177SOL    HW128793   4.578  -0.011   4.380 -0.1834  0.4862 -0.9260
 7177SOL    HW228794   4.602   0.116   4.480  2.3235  0.6829 -1.7585
 7178SOL     OW28795   1.836   5.109   5.076 -0.1475  0.8506  0.3679
 7178SOL    HW128796   1.823   5.134   4.980 -0.9372 -1.4087 -0.1337
 7178SOL    HW228797   1.934   5.097   5.094 -0.1171 -0.3957 -0.5906
 7179SOL     OW28798   7.508   1.740   5.464 -0.2670  0.1410  0.5091
 7179SOL    HW128799   7.527   1.697   5.376 -0.6915  0.1745  0.4012
 7179SOL    HW228800   7.577   1.811   5.481 -0.6062  0.6299 -0.1315
 7181SOL     OW28801   6.682   5.043   1.346 -0.5005 -0.6513  0.0289
 7181SOL    HW128802   6.684   4.960   1.402 -1.0717 -0.6647  0.0362
 7181SOL    HW228803   6.589   5.080   1.346  0.2330  1.2240  1.8189
 7182SOL     OW28804   1.089   8.369   5.239 -0.2865  0.1423 -0.3524
 7182SOL    HW128805   1.115   8.400   5.330 -1.0764  0.4650 -0.2377
 7182SOL    HW228806   1.114   8.273   5.228 -2.0926 -0.4866  0.9421
 7183SOL     OW28807   0.195   6.588   0.269  0.0406  0.5467  0.1390
 7183SOL    HW128808   0.263   6.656   0.241  1.2743 -0.1314  1.4332
 7183SOL    HW228809   0.116   6.634   0.308  0.2828  1.3026 -0.2541
 7185SOL     OW28810   5.868   2.499   0.332 -0.1776 -0.0357 -0.1920
 7185SOL    HW128811   5.793   2.452   0.286 -0.6645 -0.6895  1.2344
 7185SOL    HW228812   5.842   2.594   0.351 -0.4322 -0.1109 -0.1743
 7186SOL     OW28813   2.186   0.190   6.632  0.1040  0.2017  0.9756
 7186SOL    HW128814   2.256   0.180   6.562  0.8403 -2.2559  2.0105
 7186SOL    HW228815   2.130   0.107   6.636  0.7054 -0.1392  3.9262
 7187SOL     OW28816   9.237   2.165   5.101 -0.4272  0.2467  0.7364
 7187SOL    HW128817   9.268   2.260   5.110 -0.3578  0.2537  0.4140
 7187SOL    HW228818   9.140   2.163   5.080 -0.9120  0.2059  2.8356
 7189SOL     OW28819   5.920   3.237   1.116 -0.0961 -0.7124  0.1483
 7189SOL    HW128820   5.858   3.164   1.144  1.0753 -0.3540  3.9539
 7189SOL    HW228821   5.876   3.325   1.130  0.5519 -0.5223  1.0317
 7190SOL     OW28822   2.220   5.902   4.695 -0.2927  0.1350 -0.5707
 7190SOL    HW128823   2.315   5.873   4.685 -0.6550 -1.5865  0.6789
 7190SOL    HW228824   2.216   5.984   4.753  0.2793 -1.0472  1.1631
 7191SOL     OW28825   3.540   2.471   5.433 -0.4113 -0.2056 -0.2924
 7191SOL    HW128826   3.623   2.503   5.387  0.2488 -2.5799 -0.8293
 7191SOL    HW228827   3.461   2.491   5.376 -0.2353  2.1301  0.2435
 7192SOL     OW28828   1.228   8.847   1.906  0.1663  0.3064  0.3521
 7192SOL    HW128829   1.222   8.751   1.932  0.8624  0.6106  1.6851
 7192SOL    HW228830   1.322   8.867   1.877 -0.4921  0.0770 -2.0326
 7193SOL     OW28831   7.054   5.972   7.666 -0.0933  0.0090  0.0687
 7193SOL    HW128832   7.107   5.970   7.751  1.4063 -0.1591 -0.8597
 7193SOL    HW228833   7.043   6.066   7.636 -1.7290  0.1737  1.1099
 7194SOL     OW28834   6.691   1.060   3.622 -0.4673  0.2978 -0.2516
 7194SOL    HW128835   6.746   1.103   3.550 -0.0454  0.0885 -0.0559
 7194SOL    HW228836   6.660   0.971   3.590  1.7715 -0.8755  0.7296
 7195SOL     OW28837   0.687   1.000   4.156  0.3338  0.0060  0.7563
 7195SOL    HW128838   0.732   0.958   4.235  1.6539  0.7852  0.4376
 7195SOL    HW228839   0.600   0.955   4.139  0.4729 -0.7833  2.0909
 7197SOL     OW28840   4.220   1.158   6.063  0.5291  0.1348  0.4278
 7197SOL    HW128841   4.234   1.169   6.162  0.3638 -1.8103  0.6904
 7197SOL    HW228842   4.125   1.179   6.041  0.5718  0.6005  0.6806
 7198SOL     OW28843   7.266   8.734   7.513 -0.1180  0.0853  0.0973
 7198SOL    HW128844   7.190   8.788   7.475  0.2862 -0.1916 -1.1424
 7198SOL    HW228845   7.241   8.637   7.512 -0.5728  0.1804  1.6755
 7199SOL     OW28846   5.229   9.718   5.265 -0.3473  0.1598 -0.3396
 7199SOL    HW128847   5.309   9.720   5.324  0.1547  0.7338 -1.0182
 7199SOL    HW228848   5.217   9.626   5.228 -0.2585 -0.0332  0.1101
 7200SOL     OW28849   0.211   4.276   7.249 -0.2277  0.0142  0.4204
 7200SOL    HW128850   0.169   4.294   7.339  0.8780  1.3486  0.6897
 7200SOL    HW228851   0.249   4.184   7.247  1.2188  0.5496  1.9392
 7201SOL     OW28852   0.535   6.702   5.095  0.2107  0.0266  0.5441
 7201SOL    HW128853   0.444   6.662   5.106 -0.2839  0.6936 -0.9520
 7201SOL    HW228854   0.536   6.793   5.136  1.0694 -1.1379  3.1426
 7202SOL     OW28855   0.218   0.150   3.635  1.0394  0.2747  0.1522
 7202SOL    HW128856   0.143   0.180   3.576  0.3633 -0.7512  0.4789
 7202SOL    HW228857   0.190   0.158   3.731  1.4045  0.0236  0.2801
 7204SOL     OW28858   5.580   2.844   4.588 -0.3368  0.3609  0.3789
 7204SOL    HW128859   5.500   2.903   4.604 -0.7176  0.8099 -2.8049
 7204SOL    HW228860   5.663   2.898   4.603 -0.6273  0.5101  1.5518
 7205SOL     OW28861   8.921   1.170   3.829 -0.2277 -0.1366 -0.0663
 7205SOL    HW128862   8.917   1.084   3.778 -1.6367  0.6395 -1.2831
 7205SOL    HW228863   8.907   1.247   3.767  0.8457  0.9801  1.0442
 7206SOL     OW28864   9.217   7.958   6.689 -0.5208 -0.0311  0.0854
 7206SOL    HW128865   9.198   8.008   6.774  0.3642 -0.3220  0.4517
 7206SOL    HW228866   9.262   8.019   6.624 -0.0347 -0.1713  0.2922
 7207SOL     OW28867   2.312   7.552   1.315  0.5754 -0.1326  1.2276
 7207SOL    HW128868   2.298   7.640   1.269  2.3183 -1.0693 -1.1339
 7207SOL    HW228869   2.403   7.551   1.358  1.0649 -1.2538  0.1718
 7208SOL     OW28870   1.915   6.112   4.718 -0.3982 -0.7395  0.4703
 7208SOL    HW128871   2.002   6.095   4.764 -0.4500 -1.2318  0.3825
 7208SOL    HW228872   1.862   6.028   4.714 -0.4250 -0.6895 -0.4341
 7209SOL     OW28873   8.489   1.545   2.279 -0.4762 -0.5945 -0.0792
 7209SOL    HW128874   8.502   1.590   2.190 -0.6013  0.3970  0.3913
 7209SOL    HW228875   8.448   1.611   2.343 -0.7583 -1.4227  0.5960
 7210SOL     OW28876   5.087   8.304   2.958  0.3073 -0.2278  0.3539
 7210SOL    HW128877   5.153   8.230   2.971 -1.5429 -1.9566  0.0799
 7210SOL    HW228878   5.015   8.274   2.896 -0.9915  1.4652  1.0059
 7212SOL     OW28879   5.364   5.401   7.727  0.4426 -0.0056  0.0744
 7212SOL    HW128880   5.437   5.394   7.795 -1.3007  1.2258  2.1322
 7212SOL    HW228881   5.276   5.407   7.773 -0.9574 -0.9716 -2.3641
 7213SOL     OW28882   5.081   9.789   5.925 -0.1646 -0.3056 -0.2277
 7213SOL    HW128883   5.005   9.851   5.907  0.1308  0.4500  1.0272
 7213SOL    HW228884   5.152   9.800   5.856 -0.0967  0.7973  0.0140
 7214SOL     OW28885   3.388   3.924   7.380  0.0815 -0.2941  0.3482
 7214SOL    HW128886   3.426   3.929   7.472 -0.8389  1.2099  0.6696
 7214SOL    HW228887   3.462   3.906   7.315  0.9429 -0.0643  1.2470
 7215SOL     OW28888   3.878   0.422   1.739 -0.2635 -0.0508  0.1484
 7215SOL    HW128889   3.807   0.366   1.696  0.7354 -0.5912 -0.8293
 7215SOL    HW228890   3.893   0.389   1.832 -2.3976  1.0852  0.9253
 7217SOL     OW28891   0.958   6.931   3.649  0.9131  0.3606 -0.1280
 7217SOL    HW128892   0.961   6.851   3.589  0.8850  0.8269 -0.7583
 7217SOL    HW228893   0.864   6.963   3.657  0.4414 -1.5133  2.6115
 7219SOL     OW28894   7.262   1.749   2.297  0.0021 -0.1286 -0.2273
 7219SOL    HW128895   7.224   1.834   2.259  2.8358  0.2082 -2.4518
 7219SOL    HW228896   7.188   1.693   2.333 -1.9760  3.2017  1.1509
 7220SOL     OW28897   6.885   0.191   7.902 -0.2790 -0.6596  0.2507
 7220SOL    HW128898   6.928   0.196   7.812 -2.2555 -1.1869 -0.7514
 7220SOL    HW228899   6.786   0.184   7.891 -0.7992  2.1211  2.5310
 7221SOL     OW28900   0.345   4.354   5.452 -0.2956  0.1090 -0.6351
 7221SOL    HW128901   0.396   4.333   5.368 -0.5725  1.3507 -1.1188
 7221SOL    HW228902   0.406   4.399   5.517 -0.3411  0.0569 -0.5565
 7223SOL     OW28903   5.413   7.829   5.476  0.2178 -0.2262 -0.1516
 7223SOL    HW128904   5.331   7.875   5.441  1.5298  1.6449 -0.8078
 7223SOL    HW228905   5.421   7.848   5.574 -0.9267 -1.6587  0.2440
 7224SOL     OW28906   3.222   3.380   1.663  0.4062 -0.1481 -0.5434
 7224SOL    HW128907   3.128   3.370   1.696  0.1537  0.2868 -1.1203
 7224SOL    HW228908   3.238   3.314   1.590 -0.0773  1.0737 -1.7818
 7225SOL     OW28909   9.046   9.497   3.684  0.1447 -0.4711 -0.4171
 7225SOL    HW128910   8.984   9.497   3.605  0.5287 -0.4848 -0.7209
 7225SOL    HW228911   8.993   9.508   3.768 -0.3023 -0.8342 -0.6478
 7226SOL     OW28912   3.807   1.570   4.877  0.2870 -0.2108 -0.4244
 7226SOL    HW128913   3.893   1.526   4.901  0.3997  0.4747  0.4554
 7226SOL    HW228914   3.755   1.589   4.960  0.3898  1.6186 -0.7528
 7227SOL     OW28915   9.269   8.969   6.716 -0.4205  0.2171  0.0367
 7227SOL    HW128916   9.206   8.970   6.638 -1.5248 -0.4608  0.9068
 7227SOL    HW228917   9.217   8.956   6.800  0.5653  2.7369  1.0788
 7228SOL     OW28918   1.823   3.985   3.725 -0.3648 -0.0778  0.0175
 7228SOL    HW128919   1.892   3.914   3.709 -1.8164 -1.2504 -1.2275
 7228SOL    HW228920   1.782   3.972   3.815 -0.4133 -0.6681 -0.0860
 7229SOL     OW28921   8.894   0.576   0.604 -0.1856 -0.0087  0.4941
 7229SOL    HW128922   8.916   0.653   0.544 -0.9354  1.4852  2.0670
 7229SOL    HW228923   8.929   0.492   0.565  0.3665  1.0875 -1.4441
 7230SOL     OW28924   9.603   8.892   4.985 -0.1479 -0.0218 -0.5922
 7230SOL    HW128925   9.586   8.796   5.004 -2.7123  0.2532 -1.3297
 7230SOL    HW228926   9.543   8.949   5.041  1.4170  1.1911 -0.0750
 7231SOL     OW28927   5.777   2.387   1.302  0.0896  0.2868  0.3857
 7231SOL    HW128928   5.836   2.393   1.221 -2.1983 -0.7552 -1.4060
 7231SOL    HW228929   5.682   2.402   1.275 -0.8690 -1.4206  2.6889
 7232SOL     OW28930   2.214   1.783   0.516 -0.3300  0.2871  0.1635
 7232SOL    HW128931   2.136   1.826   0.562 -0.4192 -0.1114  0.3876
 7232SOL    HW228932   2.185   1.749   0.426  0.0474  1.8119 -0.5551
 7233SOL     OW28933   9.978   7.654   1.240 -0.4731  0.4882  0.3847
 7233SOL    HW128934  10.028   7.664   1.326 -0.9349 -0.0804  0.7300
 7233SOL    HW228935  10.035   7.607   1.173 -0.3078  0.4337  0.5638
 7234SOL     OW28936   8.522   5.066   4.350 -0.3938  0.1821  0.0803
 7234SOL    HW128937   8.543   5.162   4.332 -1.7482  0.2000 -1.4599
 7234SOL    HW228938   8.522   5.015   4.264  2.5153 -1.6869  1.0905
 7235SOL     OW28939   2.909   0.779   6.998  0.6452  0.2311  0.4279
 7235SOL    HW128940   2.866   0.854   6.948  0.0242  1.1180  2.2142
 7235SOL    HW228941   2.955   0.717   6.934  0.2873  1.5700 -1.1590
 7236SOL     OW28942   5.974   6.175   1.568 -0.9509  0.0107 -0.0584
 7236SOL    HW128943   6.011   6.089   1.533 -3.1496 -0.7879 -0.4465
 7236SOL    HW228944   6.025   6.252   1.528  0.9873 -1.0768  0.2541
 7237SOL     OW28945   1.252   4.226   4.818 -0.5425 -0.0361  0.3598
 7237SOL    HW128946   1.300   4.220   4.905 -0.1790 -2.3561  0.0448
 7237SOL    HW228947   1.154   4.209   4.832 -0.3295 -1.5084  0.2153
 7238SOL     OW28948   5.178   9.267   4.499  0.2646 -0.3335 -0.3187
 7238SOL    HW128949   5.191   9.343   4.435  0.5384 -0.3731 -0.3076
 7238SOL    HW228950   5.151   9.304   4.589  1.1275 -0.2052 -0.1088
 7239SOL     OW28951   2.173   9.881   7.803 -0.4651 -0.1518 -0.1439
 7239SOL    HW128952   2.149   9.880   7.706 -0.9167 -0.8317 -0.0243
 7239SOL    HW228953   2.267   9.847   7.814 -0.9220 -1.4861 -0.2133
 7240SOL     OW28954   4.227   8.636   6.030 -0.4552 -0.4411  0.0046
 7240SOL    HW128955   4.277   8.561   6.074  1.4047  0.5769 -0.3225
 7240SOL    HW228956   4.226   8.716   6.091 -0.6355 -0.0664 -0.4872
 7241SOL     OW28957   3.255   0.113   4.181  0.1657  0.0013  0.2048
 7241SOL    HW128958   3.351   0.092   4.164 -0.5665 -2.7445 -0.6600
 7241SOL    HW228959   3.233   0.201   4.139  1.3155 -1.1953 -3.0516
 7242SOL     OW28960   0.086   2.755   2.566  0.3891  0.2201  0.3493
 7242SOL    HW128961   0.133   2.843   2.561  0.7360 -0.0114 -0.6623
 7242SOL    HW228962   0.082   2.715   2.474  0.6961 -1.0549  0.8852
 7243SOL     OW28963   8.916   8.592   3.212 -0.0279 -0.0604  0.3318
 7243SOL    HW128964   8.824   8.627   3.231 -0.1023  0.8338 -1.5440
 7243SOL    HW228965   8.983   8.641   3.268 -0.7283 -1.1245  2.1490
 7245SOL     OW28966   9.777   9.180   6.030 -0.2828  0.2614  0.2747
 7245SOL    HW128967   9.703   9.245   6.050 -0.9449  0.3129 -2.2568
 7245SOL    HW228968   9.738   9.089   6.017  0.1637  0.1633 -0.3825
 7246SOL     OW28969   1.496   1.983   0.447  0.4171  0.5986  0.3281
 7246SOL    HW128970   1.578   1.927   0.451  0.6264  0.7740 -1.1358
 7246SOL    HW228971   1.416   1.927   0.472  0.8526  0.1679  0.7617
 7247SOL     OW28972   3.034   2.025   1.111  0.0423  0.4323 -0.7522
 7247SOL    HW128973   3.102   1.989   1.174 -0.3298  1.8355  0.4788
 7247SOL    HW228974   3.048   2.123   1.098 -1.3496  0.6204 -0.9673
 7248SOL     OW28975   7.311   8.617   2.187  0.1385  0.0907  0.0374
 7248SOL    HW128976   7.313   8.518   2.177  1.7087  0.1338 -0.1655
 7248SOL    HW228977   7.403   8.654   2.174  0.1146  1.3159  2.9601
 7249SOL     OW28978   8.669   5.980   0.959 -0.0724  0.0973  0.8909
 7249SOL    HW128979   8.574   6.012   0.957 -0.6553 -1.5736  1.2823
 7249SOL    HW228980   8.680   5.913   1.032  1.4242  0.2949  0.8594
 7250SOL     OW28981   2.578   1.599   5.431  0.0091 -0.3627  0.7544
 7250SOL    HW128982   2.508   1.607   5.503  0.7078 -0.7515  1.4767
 7250SOL    HW228983   2.648   1.669   5.445  0.3132 -0.6422  0.6309
 7251SOL     OW28984   7.606   9.196   2.932 -0.2997  0.5197  0.0068
 7251SOL    HW128985   7.583   9.293   2.924 -0.4126  0.5933  1.1131
 7251SOL    HW228986   7.553   9.155   3.006  2.4284  0.4766  2.0421
 7252SOL     OW28987   2.331   3.485   4.650 -0.2298  0.3426 -0.0274
 7252SOL    HW128988   2.404   3.431   4.693  1.2956  2.9348  0.7422
 7252SOL    HW228989   2.247   3.474   4.702  0.2746 -0.6064  0.6140
 7253SOL     OW28990   0.858   1.240   5.850 -0.1436 -0.0095  0.0625
 7253SOL    HW128991   0.801   1.305   5.898 -0.9955  0.3401 -1.3760
 7253SOL    HW228992   0.824   1.147   5.865 -0.6260  0.1314 -0.1484
 7254SOL     OW28993   9.492   2.555   1.657  0.0896 -0.1541 -0.3395
 7254SOL    HW128994   9.426   2.609   1.709  1.3246  0.8025  0.2649
 7254SOL    HW228995   9.495   2.462   1.693  1.0502  0.5411  1.4358
 7255SOL     OW28996   1.889   9.714   5.259 -0.2478  0.1670  0.2578
 7255SOL    HW128997   1.868   9.678   5.350  0.3880 -0.3901  0.1892
 7255SOL    HW228998   1.977   9.677   5.228 -0.8954 -0.3730 -0.9608
 7256SOL     OW28999   0.711   1.768   3.810  0.6061  0.1100 -0.4452
 7256SOL    HW129000   0.772   1.782   3.732 -0.0644  1.2764 -0.7702
 7256SOL    HW229001   0.689   1.857   3.852 -0.7721 -0.3070 -0.2572
 7257SOL     OW29002   4.240   0.111   4.404  0.4057  0.0593 -0.1113
 7257SOL    HW129003   4.149   0.149   4.415  0.3275 -0.4453  0.9936
 7257SOL    HW229004   4.244   0.020   4.445  0.8053 -0.8288 -2.0298
 7258SOL     OW29005   9.295   1.365   5.596  0.0173 -0.1926  0.2470
 7258SOL    HW129006   9.302   1.362   5.496  2.7701 -1.7236  0.4234
 7258SOL    HW229007   9.205   1.332   5.625 -0.7299  0.0638 -1.7098
 7259SOL     OW29008   3.110   8.349   2.741 -0.1117  0.1205  0.1719
 7259SOL    HW129009   3.041   8.327   2.672 -0.4753  1.2605  0.1662
 7259SOL    HW229010   3.078   8.319   2.831 -0.3212  0.0431  0.0706
 7260SOL     OW29011   4.366   2.961   1.894  0.6169  0.0169 -0.0587
 7260SOL    HW129012   4.343   3.012   1.811  0.8747  0.5474  0.1966
 7260SOL    HW229013   4.286   2.957   1.954  0.1701 -1.0981 -0.7032
 7261SOL     OW29014   6.220   8.478   6.509  0.2229  0.8398  0.0936
 7261SOL    HW129015   6.247   8.453   6.602 -1.6524 -1.0058  0.1794
 7261SOL    HW229016   6.241   8.574   6.492  3.7628  0.3216  1.2247
 7262SOL     OW29017   0.912   2.609   7.125 -0.3201  0.0878  0.2636
 7262SOL    HW129018   0.829   2.622   7.179 -0.5421 -1.9113  0.4601
 7262SOL    HW229019   0.896   2.641   7.031 -0.6754  1.4551  0.7784
 7263SOL     OW29020   0.125   5.856   1.095 -0.6298  0.0909  0.5064
 7263SOL    HW129021   0.196   5.858   1.024  0.8588 -2.1608  1.8605
 7263SOL    HW229022   0.109   5.948   1.128 -0.5463  1.0468 -1.9601
 7265SOL     OW29023   2.045   4.895   5.677  0.0751  0.5436  0.1097
 7265SOL    HW129024   2.055   4.873   5.774  0.1795  0.0021 -0.0227
 7265SOL    HW229025   2.071   4.816   5.622  1.7721  1.4546 -0.4222
 7266SOL     OW29026   6.532   5.285   1.545  0.2230  0.0395 -0.0361
 7266SOL    HW129027   6.557   5.375   1.508  0.8123  0.3004  0.9718
 7266SOL    HW229028   6.482   5.233   1.476  1.8049  0.2906 -1.3897
 7267SOL     OW29029   0.180   6.367   5.955 -0.6327 -0.7291  0.0804
 7267SOL    HW129030   0.170   6.268   5.968  1.0566 -0.5882  2.8987
 7267SOL    HW229031   0.278   6.389   5.949 -1.0428  0.6231 -1.9904
 7268SOL     OW29032   5.220   5.148   2.320  0.4960 -0.1385  0.8531
 7268SOL    HW129033   5.250   5.188   2.407  1.5816  2.1023 -0.5009
 7268SOL    HW229034   5.295   5.097   2.279  0.8089  0.9892  0.0058
 7269SOL     OW29035   8.596   1.437   7.863 -0.2106  0.2166  0.2105
 7269SOL    HW129036   8.653   1.498   7.808  1.0572 -0.2262  0.9976
 7269SOL    HW229037   8.628   1.343   7.852 -1.4423 -0.1612 -0.1284
 7270SOL     OW29038   3.414   6.077   5.133 -0.5333  0.2896  0.1939
 7270SOL    HW129039   3.396   6.039   5.224 -3.4168  2.0532  0.4205
 7270SOL    HW229040   3.478   6.153   5.140 -0.4359  0.1606  0.6939
 7271SOL     OW29041   1.368   9.360   2.922  0.2995 -0.2912 -0.5241
 7271SOL    HW129042   1.395   9.290   2.988  2.7181 -0.1276 -1.2852
 7271SOL    HW229043   1.358   9.318   2.832 -0.2836 -0.0255 -0.5833
 7272SOL     OW29044   4.392   3.985   7.803  0.6095 -0.4277  0.3480
 7272SOL    HW129045   4.422   4.080   7.792  0.2088 -0.3804 -0.4152
 7272SOL    HW229046   4.471   3.924   7.799  0.8367 -0.1457  0.5271
 7274SOL     OW29047   9.834   1.909   3.677  0.0333 -0.2793  0.6415
 7274SOL    HW129048   9.747   1.945   3.709  0.4721  1.7569 -0.3698
 7274SOL    HW229049   9.842   1.923   3.578  2.2109  1.1183  0.9851
 7275SOL     OW29050   6.893   5.344   2.134 -0.8641 -0.1170 -0.0370
 7275SOL    HW129051   6.952   5.360   2.213  0.5617 -1.8275 -0.7027
 7275SOL    HW229052   6.914   5.412   2.063  0.3724 -0.7410 -0.2890
 7276SOL     OW29053   1.014   6.095   1.055 -0.1733  0.2065 -0.3959
 7276SOL    HW129054   1.067   6.161   1.108 -0.1561  0.1463 -0.3368
 7276SOL    HW229055   1.011   6.008   1.104 -2.1829  0.8391  0.6461
 7277SOL     OW29056   7.347   2.366   1.925  0.0518  0.0481  0.1086
 7277SOL    HW129057   7.381   2.273   1.906 -0.6020 -0.9104  3.2713
 7277SOL    HW229058   7.365   2.389   2.021 -2.8608  1.8321  0.2970
 7278SOL     OW29059   1.217   2.029   2.980  0.5988  0.2735  0.1153
 7278SOL    HW129060   1.296   1.973   2.955  1.1999  0.0584  2.3449
 7278SOL    HW229061   1.136   1.971   2.990  0.2850  0.4070 -1.5760
 7279SOL     OW29062   7.101   6.645   6.147 -0.6558 -0.5059 -0.5955
 7279SOL    HW129063   7.120   6.699   6.229 -0.3527 -3.5381  1.4323
 7279SOL    HW229064   7.044   6.698   6.084  0.3138  2.4153  0.9220
 7281SOL     OW29065   0.573   1.869   5.870 -0.1436 -0.3516  0.2801
 7281SOL    HW129066   0.647   1.843   5.808  1.1541 -0.8065  1.9702
 7281SOL    HW229067   0.524   1.787   5.900 -0.9666 -0.1044 -0.3869
 7282SOL     OW29068   3.751   1.243   5.451 -0.1782 -0.1918 -0.0212
 7282SOL    HW129069   3.820   1.180   5.414 -0.9249  0.0734 -1.9306
 7282SOL    HW229070   3.788   1.336   5.452 -1.1331  0.2617 -2.8742
 7283SOL     OW29071   6.132   1.040   1.714  0.5617 -0.1787  0.1184
 7283SOL    HW129072   6.107   0.953   1.756  1.3753  0.2938  1.5953
 7283SOL    HW229073   6.074   1.113   1.749 -0.0060 -0.0739 -0.9933
 7284SOL     OW29074   0.347   9.624   1.271  0.4181 -0.0706  0.1922
 7284SOL    HW129075   0.443   9.597   1.279  0.0298 -1.7168 -0.5418
 7284SOL    HW229076   0.311   9.646   1.362  0.9836 -1.2383  0.7049
 7287SOL     OW29077   1.758   8.842   6.083  0.3727 -0.2651  0.2079
 7287SOL    HW129078   1.701   8.814   6.160 -0.7008  1.7872  0.2048
 7287SOL    HW229079   1.855   8.834   6.108  0.0477 -0.9652  1.2670
 7288SOL     OW29080   8.572   1.919   1.170 -0.3182  0.0453 -0.5828
 7288SOL    HW129081   8.586   1.844   1.106 -2.2555 -1.3352  0.5582
 7288SOL    HW229082   8.475   1.945   1.171 -0.0549  1.0792  0.6570
 7289SOL     OW29083   9.429   8.974   7.794  0.9301  0.2466 -0.1310
 7289SOL    HW129084   9.407   8.965   7.697  0.7565 -1.7230  0.0684
 7289SOL    HW229085   9.354   8.935   7.849  1.6559  0.0700  0.7430
 7290SOL     OW29086   7.975   8.195   7.447 -0.2625 -0.3616  0.1447
 7290SOL    HW129087   8.054   8.202   7.385  0.0008  0.8849  0.6047
 7290SOL    HW229088   7.891   8.192   7.393  0.0687 -1.0734 -0.3316
 7292SOL     OW29089   2.175   0.226   3.876  0.1758  0.2648  0.2745
 7292SOL    HW129090   2.226   0.182   3.950  0.0658 -0.7762 -0.2603
 7292SOL    HW229091   2.079   0.196   3.879  0.3174 -0.3066 -0.6917
 7293SOL     OW29092   8.599   5.499   7.348  0.2439  1.0027 -0.3292
 7293SOL    HW129093   8.556   5.508   7.258  0.0015  1.1563 -0.1953
 7293SOL    HW229094   8.685   5.449   7.338 -0.3813 -0.0583 -0.4659
 7294SOL     OW29095   2.013   9.219   6.369 -0.0743  0.1002  0.4937
 7294SOL    HW129096   1.965   9.204   6.283  0.5137  1.0047  0.0101
 7294SOL    HW229097   2.111   9.209   6.356 -0.1101 -1.8892  1.5149
 7295SOL     OW29098   9.447   3.059   7.384  0.4895  0.3059  0.0952
 7295SOL    HW129099   9.411   3.092   7.471 -0.3723  0.0172 -0.1466
 7295SOL    HW229100   9.501   2.976   7.400  0.1111  0.1001  0.3229
 7296SOL     OW29101   3.742   3.591   0.589 -0.2327 -0.5406  0.0081
 7296SOL    HW129102   3.769   3.668   0.648 -0.5773  0.4878 -1.1530
 7296SOL    HW229103   3.645   3.572   0.602 -0.4215  0.0052 -0.5720
 7297SOL     OW29104   0.445   9.360   3.680 -0.6192 -0.2105 -0.0840
 7297SOL    HW129105   0.459   9.279   3.737 -0.6297  0.4844  0.9106
 7297SOL    HW229106   0.534   9.401   3.658 -0.5622 -0.9124 -1.2222
 7298SOL     OW29107   4.009   0.693   0.714 -0.5178  0.3222  0.2978
 7298SOL    HW129108   3.999   0.745   0.799 -1.5810 -0.1405  0.4678
 7298SOL    HW229109   4.101   0.656   0.708 -0.4432  0.3384  1.2646
 7299SOL     OW29110   5.022   6.507   1.797 -0.4367 -0.6371 -0.1618
 7299SOL    HW129111   5.086   6.503   1.720  2.0251 -0.2281  1.7757
 7299SOL    HW229112   5.020   6.418   1.843 -0.1441 -0.2404  0.6319
 7300SOL     OW29113   5.446   7.216   2.612  0.1958  0.2855  0.2274
 7300SOL    HW129114   5.528   7.259   2.649  0.0467  0.0522  0.8478
 7300SOL    HW229115   5.413   7.147   2.677  0.3133 -0.6077 -0.6693
 7301SOL     OW29116   2.008   1.896   2.923 -0.0202  0.1214 -0.1201
 7301SOL    HW129117   2.009   1.807   2.968  0.8964 -0.4053 -1.1411
 7301SOL    HW229118   2.096   1.911   2.877 -0.9981  0.5330 -1.9059
 7302SOL     OW29119   3.645   4.891   3.269  0.3832 -0.6356 -0.2344
 7302SOL    HW129120   3.632   4.815   3.331 -2.1188 -1.4350 -1.6407
 7302SOL    HW229121   3.660   4.857   3.176 -0.7931  0.5553 -0.8886
 7303SOL     OW29122   0.978   4.336   2.023  0.1233  0.0718 -0.1479
 7303SOL    HW129123   0.970   4.358   1.926  0.8103  1.5005  0.1102
 7303SOL    HW229124   1.069   4.300   2.042  0.0701  0.0182  0.0070
 7304SOL     OW29125   1.928   9.729   5.583  0.3462 -0.4959  0.1972
 7304SOL    HW129126   1.987   9.754   5.659  0.5616  0.0046 -0.1283
 7304SOL    HW229127   1.833   9.742   5.608  0.4813  1.4575 -0.2351
 7305SOL     OW29128   0.228   1.254   6.795  0.5767  0.0689  0.4430
 7305SOL    HW129129   0.215   1.208   6.707 -0.8666  0.3406  0.4907
 7305SOL    HW229130   0.148   1.237   6.854  0.1181  2.3769  0.5482
 7306SOL     OW29131   6.574   1.829   0.634  0.1927  0.6544 -0.3076
 7306SOL    HW129132   6.550   1.912   0.583  0.7959 -0.0966 -1.8396
 7306SOL    HW229133   6.524   1.751   0.596  1.7426 -0.1658 -0.6976
 7308SOL     OW29134   5.788   7.911   5.448 -0.9022  0.1131  0.2882
 7308SOL    HW129135   5.812   7.955   5.361  0.2879 -0.2246  0.4353
 7308SOL    HW229136   5.851   7.941   5.519 -2.3763  1.0187  1.2417
 7309SOL     OW29137   5.731   9.760   2.553 -0.2485  0.3976 -0.2911
 7309SOL    HW129138   5.772   9.848   2.580 -0.3083  0.6348 -0.9592
 7309SOL    HW229139   5.646   9.746   2.604 -0.6475  1.0990 -0.7588
 7313SOL     OW29140   7.674   0.582   2.026  0.8758  0.1953 -0.1814
 7313SOL    HW129141   7.660   0.656   1.960 -1.0407 -0.8095 -0.9416
 7313SOL    HW229142   7.702   0.499   1.979  0.3470 -0.2910  0.3475
 7314SOL     OW29143   1.430   6.189   4.305 -0.6964 -0.3398  0.7390
 7314SOL    HW129144   1.411   6.119   4.374 -0.6048 -0.6637  0.4390
 7314SOL    HW229145   1.356   6.190   4.238 -0.5166 -0.3991  0.5416
 7315SOL     OW29146   9.612   1.310   0.542  0.1323 -0.2146 -0.5034
 7315SOL    HW129147   9.646   1.289   0.634  0.3226 -1.9516 -0.9482
 7315SOL    HW229148   9.534   1.373   0.549  0.1244 -0.3608  0.8501
 7316SOL     OW29149   6.869   1.000   7.154 -0.1702 -0.3042  0.1553
 7316SOL    HW129150   6.846   0.924   7.094 -0.5512 -0.9662  1.1151
 7316SOL    HW229151   6.952   1.045   7.122 -0.8045 -0.1396 -1.3078
 7317SOL     OW29152   7.708   4.051   3.231 -0.0698  0.2373 -0.1041
 7317SOL    HW129153   7.745   4.112   3.302  0.1518  0.4132 -0.3688
 7317SOL    HW229154   7.661   3.974   3.274 -0.1832  0.4948  0.2344
 7318SOL     OW29155   6.711   1.339   5.729 -0.2720  0.0436  0.4109
 7318SOL    HW129156   6.680   1.296   5.813  0.1983 -1.2371 -0.0647
 7318SOL    HW229157   6.740   1.433   5.748 -0.0635 -0.2771  1.6949
 7319SOL     OW29158   0.099   3.310   0.876  0.2383 -0.7633 -0.7516
 7319SOL    HW129159   0.103   3.211   0.864  0.2530 -0.7307 -1.0136
 7319SOL    HW229160   0.004   3.340   0.877  0.1307 -1.0646  1.6441
 7320SOL     OW29161   8.008   1.813   2.347  0.2845  0.7835  0.2869
 7320SOL    HW129162   7.984   1.870   2.268  3.1388 -0.2039 -1.3953
 7320SOL    HW229163   7.941   1.740   2.358  0.1103  0.6413 -1.5619
 7321SOL     OW29164   9.659   2.658   4.683  0.0663 -0.0867  0.6724
 7321SOL    HW129165   9.657   2.563   4.652  0.3043  0.3121 -0.5997
 7321SOL    HW229166   9.567   2.697   4.676  0.1146 -0.0040  0.4786
 7322SOL     OW29167   6.505   7.884   6.568 -0.2784  0.2586 -0.1139
 7322SOL    HW129168   6.478   7.973   6.531  0.3898  0.4714 -0.0910
 7322SOL    HW229169   6.523   7.893   6.665  0.4816  0.2474 -0.2556
 7323SOL     OW29170   2.797   3.543   1.543  0.7150  0.0718 -0.4036
 7323SOL    HW129171   2.870   3.599   1.503 -1.0908  2.1388 -0.8933
 7323SOL    HW229172   2.754   3.592   1.618 -0.1868 -1.1198 -0.1247
 7324SOL     OW29173   3.622   0.235   7.834  0.5518  0.1224  0.7593
 7324SOL    HW129174   3.526   0.215   7.815  0.3585  0.8498  0.9719
 7324SOL    HW229175   3.643   0.329   7.808  1.8507 -0.8134 -1.6589
 7326SOL     OW29176   6.151   1.678   4.333  0.4503 -0.3493  0.0382
 7326SOL    HW129177   6.120   1.767   4.299  1.7468  0.8083  1.7958
 7326SOL    HW229178   6.210   1.691   4.412  1.0679 -2.7743  0.0270
 7327SOL     OW29179   0.766   9.768   4.254  0.1716  0.2023 -0.1293
 7327SOL    HW129180   0.813   9.837   4.309  0.5426  0.8191 -1.2180
 7327SOL    HW229181   0.818   9.682   4.258 -0.8079 -0.3323  2.0261
 7328SOL     OW29182   1.078   7.307   6.578  0.8075 -0.2091 -0.1940
 7328SOL    HW129183   1.046   7.217   6.609  1.3008 -0.6012 -0.8151
 7328SOL    HW229184   0.999   7.360   6.546  0.5858 -0.6303 -0.3560
 7329SOL     OW29185   5.438   9.391   3.035 -0.0732 -0.6585  0.4161
 7329SOL    HW129186   5.440   9.319   2.967 -0.2633 -0.1140 -0.1676
 7329SOL    HW229187   5.513   9.379   3.099  1.1853 -0.1295 -0.9517
 7330SOL     OW29188   3.592   0.555   6.551 -0.4331  0.0794 -0.1146
 7330SOL    HW129189   3.556   0.599   6.634 -0.5365 -0.7035  0.2595
 7330SOL    HW229190   3.519   0.546   6.484 -0.2006  1.2951 -0.5434
 7331SOL     OW29191   8.097   1.380   5.516  0.1548 -0.0481 -0.1832
 7331SOL    HW129192   8.038   1.335   5.583  0.2899  1.7520  1.1689
 7331SOL    HW229193   8.053   1.464   5.484  1.0172  0.1641 -0.8283
 7332SOL     OW29194   9.772   6.852   2.222 -0.3780  0.5493  0.0456
 7332SOL    HW129195   9.733   6.944   2.224  1.6792  1.4525 -0.1846
 7332SOL    HW229196   9.804   6.832   2.130  0.9411  0.3778  0.5295
 7333SOL     OW29197   9.594   6.058   2.338 -0.0717 -0.0873  0.1861
 7333SOL    HW129198   9.514   6.032   2.393  0.1048 -1.9284 -0.3955
 7333SOL    HW229199   9.571   6.050   2.241  0.8635 -0.7683  0.0221
 7334SOL     OW29200   0.297   4.579   7.391  0.8680  0.1435  0.1503
 7334SOL    HW129201   0.391   4.613   7.392  0.6635  0.7493 -0.6800
 7334SOL    HW229202   0.259   4.588   7.299  0.6710 -1.9757 -0.0038
 7335SOL     OW29203   9.456   8.813   4.298  0.3795  0.1260 -0.3711
 7335SOL    HW129204   9.375   8.768   4.336 -0.1688  0.5699 -1.0085
 7335SOL    HW229205   9.513   8.847   4.373  0.0584 -0.3232  0.0788
 7336SOL     OW29206   0.845   9.737   5.162 -0.4902 -0.3678  0.0592
 7336SOL    HW129207   0.751   9.766   5.145 -0.7235 -0.9135  0.3675
 7336SOL    HW229208   0.852   9.638   5.147 -0.0468 -0.3841  0.3613
 7338SOL     OW29209   6.280   0.267   4.299 -0.1310  0.3693 -0.1127
 7338SOL    HW129210   6.268   0.323   4.380 -0.0986  0.9589 -0.5118
 7338SOL    HW229211   6.374   0.275   4.267  0.2839 -1.0862  0.6868
 7340SOL     OW29212   9.281   0.558   4.459  0.8083  0.1971  0.2436
 7340SOL    HW129213   9.271   0.530   4.554  0.8366  0.3580  0.2937
 7340SOL    HW229214   9.247   0.485   4.399 -0.4312  0.6434  0.4001
 7341SOL     OW29215   0.894   7.968   4.460 -0.1549 -0.3557 -0.2422
 7341SOL    HW129216   0.811   7.921   4.489  0.8999 -1.0924  1.6505
 7341SOL    HW229217   0.960   7.902   4.424 -0.1634  0.1606 -1.2362
 7342SOL     OW29218   9.339   7.302   1.810  0.2911  0.7180 -0.0791
 7342SOL    HW129219   9.360   7.376   1.746  0.0090  1.5933  0.8331
 7342SOL    HW229220   9.245   7.309   1.841  0.9159  1.3244  1.7549
 7343SOL     OW29221   1.415   9.090   6.637  0.3763 -0.2005  0.0035
 7343SOL    HW129222   1.356   9.010   6.639  2.0896 -1.4728  0.6498
 7343SOL    HW229223   1.508   9.063   6.612  1.2456  1.3868  1.3539
 7345SOL     OW29224   2.406   0.039   5.899 -0.1765  0.0123 -0.2578
 7345SOL    HW129225   2.351   0.077   5.825 -0.2714 -0.0557 -0.2231
 7345SOL    HW229226   2.380   0.082   5.986  0.4760  0.6498 -0.3761
 7347SOL     OW29227   4.818   5.343   1.246  0.2678 -0.3501 -0.3805
 7347SOL    HW129228   4.824   5.323   1.344  0.7820  0.1685 -0.3000
 7347SOL    HW229229   4.756   5.278   1.202 -1.4320  0.5467  0.6140
 7348SOL     OW29230   2.901   5.773   0.246  0.4480 -0.1042 -0.4947
 7348SOL    HW129231   2.961   5.745   0.171  2.0456 -0.2203  0.7739
 7348SOL    HW229232   2.898   5.873   0.250 -1.6933 -0.0628 -2.2686
 7350SOL     OW29233   8.121   5.291   6.999 -0.0658  0.0311 -0.2848
 7350SOL    HW129234   8.126   5.365   6.932 -0.1353 -0.2514 -0.6068
 7350SOL    HW229235   8.029   5.252   6.999  0.3991 -1.1078 -1.2649
 7351SOL     OW29236   0.366   3.475   7.529  0.4128 -0.6387  0.4180
 7351SOL    HW129237   0.324   3.436   7.447  0.8575 -2.2867  0.9490
 7351SOL    HW229238   0.465   3.457   7.527  0.9152  2.0235 -0.1760
 7352SOL     OW29239   3.461   3.426   2.943 -0.0557  0.0459 -0.6296
 7352SOL    HW129240   3.452   3.477   3.029  0.9596  0.2655 -0.6371
 7352SOL    HW229241   3.538   3.361   2.952  1.2502  1.3713 -1.9998
 7353SOL     OW29242   0.849   4.030   4.467  0.3517  0.0805 -0.3591
 7353SOL    HW129243   0.789   3.969   4.519 -0.3733  0.4146 -0.8003
 7353SOL    HW229244   0.795   4.103   4.426  1.0145  0.1816 -1.0570
 7354SOL     OW29245   2.767   4.610   4.406  0.2029  0.3369 -0.7762
 7354SOL    HW129246   2.864   4.604   4.430  0.3286 -0.5082 -1.4218
 7354SOL    HW229247   2.757   4.590   4.308 -0.7521 -0.9473 -0.4290
 7355SOL     OW29248   8.824   6.608   1.487 -0.0964  0.8012  0.3586
 7355SOL    HW129249   8.815   6.511   1.466 -1.6952  1.0396 -0.0829
 7355SOL    HW229250   8.860   6.619   1.580  5.1141 -0.2353 -1.3547
 7356SOL     OW29251   6.916   3.582   0.570  0.7568  0.0051 -0.5151
 7356SOL    HW129252   6.909   3.682   0.574  0.4769 -0.0155 -0.4729
 7356SOL    HW229253   6.867   3.549   0.489 -1.0507 -0.2714  0.6468
 7357SOL     OW29254   7.503   0.399   6.736 -0.5364 -0.4447  0.8291
 7357SOL    HW129255   7.552   0.363   6.815 -1.6688  1.5333  2.4733
 7357SOL    HW229256   7.543   0.487   6.710 -2.5330  0.7212  1.5776
 7358SOL     OW29257   8.266   8.863   0.780 -0.2160  0.2314 -0.5233
 7358SOL    HW129258   8.297   8.921   0.856 -2.1390  1.1176 -0.3926
 7358SOL    HW229259   8.294   8.768   0.797  0.9799  0.7335  0.3759
 7359SOL     OW29260   8.732   5.481   1.160  0.0001  0.3662 -0.1927
 7359SOL    HW129261   8.634   5.461   1.164  0.3144 -1.2745 -0.3260
 7359SOL    HW229262   8.777   5.413   1.102  1.1766  1.2726 -0.3481
 7360SOL     OW29263   8.343   7.174   1.248 -0.0710  0.2466  0.2218
 7360SOL    HW129264   8.413   7.157   1.179  0.2138  0.2685  0.5030
 7360SOL    HW229265   8.376   7.244   1.312 -0.6013  0.7154 -0.0114
 7362SOL     OW29266   4.299   8.446   7.464 -0.3007  0.4242  0.0417
 7362SOL    HW129267   4.315   8.464   7.366 -1.2664  0.8801 -0.0337
 7362SOL    HW229268   4.204   8.418   7.477 -0.7324  2.2807  1.1038
 7364SOL     OW29269   8.279   7.689   5.297  0.0633 -0.5352  0.7495
 7364SOL    HW129270   8.251   7.749   5.222  0.2122  0.0974  1.1927
 7364SOL    HW229271   8.228   7.713   5.380 -0.1806 -1.3050  0.8212
 7367SOL     OW29272   7.334   8.666   3.800 -0.2373  0.3285  0.2471
 7367SOL    HW129273   7.260   8.623   3.749  2.0991 -1.6461 -1.5751
 7367SOL    HW229274   7.362   8.606   3.874  0.3508  0.5542  0.2042
 7369SOL     OW29275   8.484   2.201   0.475  0.1609  0.3320  0.3439
 7369SOL    HW129276   8.403   2.174   0.423  0.7182 -0.2116 -0.2529
 7369SOL    HW229277   8.502   2.134   0.547  0.0609  0.4647  0.4914
 7370SOL     OW29278   3.314   8.310   4.611 -0.2022  0.4278  0.4168
 7370SOL    HW129279   3.314   8.309   4.511  1.2180 -2.0546  0.4043
 7370SOL    HW229280   3.371   8.385   4.644  0.1782  0.6048 -0.6297
 7371SOL     OW29281   2.596   9.293   1.051  0.4339  0.9024 -0.0561
 7371SOL    HW129282   2.678   9.295   0.995  1.5626 -1.5844  1.4233
 7371SOL    HW229283   2.610   9.348   1.134 -0.0281  1.8503 -0.5962
 7372SOL     OW29284   3.134   0.388   0.628  0.1445 -0.3006 -0.1881
 7372SOL    HW129285   3.164   0.350   0.716  0.1008 -2.3677 -1.0308
 7372SOL    HW229286   3.034   0.387   0.624  0.1153  0.8910  0.2022
 7373SOL     OW29287   8.619   4.109   1.285 -0.1822 -1.0411  0.2142
 7373SOL    HW129288   8.560   4.046   1.236  0.9268 -1.8102 -0.1576
 7373SOL    HW229289   8.710   4.069   1.295  0.5891  0.5566 -0.1685
 7374SOL     OW29290   6.572   0.433   5.533 -0.0713 -0.5627  0.1840
 7374SOL    HW129291   6.545   0.337   5.545 -1.1638 -0.4311 -1.0739
 7374SOL    HW229292   6.542   0.465   5.443 -0.6465  1.2801  1.0048
 7375SOL     OW29293   0.463   4.683   5.829 -0.0185  0.0674  0.2555
 7375SOL    HW129294   0.419   4.701   5.916  0.0628  1.0000  0.1029
 7375SOL    HW229295   0.430   4.595   5.793  0.0071 -0.3589  1.2485
 7377SOL     OW29296   9.207   3.157   5.278  0.3258  0.1638 -0.0362
 7377SOL    HW129297   9.192   3.080   5.216  0.2344 -0.8132  1.1769
 7377SOL    HW229298   9.258   3.125   5.358  2.3005  1.8612 -0.5847
 7378SOL     OW29299   4.305   3.281   5.891  0.1977  0.1680 -0.4299
 7378SOL    HW129300   4.344   3.371   5.874 -1.1890  0.8714  0.0522
 7378SOL    HW229301   4.324   3.221   5.814  1.3847  0.7804 -0.6240
 7379SOL     OW29302   2.817   3.498   2.111 -0.7689  0.3759 -0.0069
 7379SOL    HW129303   2.874   3.552   2.049 -0.6111 -0.7247 -0.8528
 7379SOL    HW229304   2.730   3.544   2.126 -0.3780  1.1831 -0.1827
 7380SOL     OW29305   8.378   6.154   0.685  0.5575 -0.0010 -0.2499
 7380SOL    HW129306   8.398   6.080   0.749  0.9133 -1.2611 -1.8112
 7380SOL    HW229307   8.281   6.152   0.660  0.0029  1.5844  1.5744
 7381SOL     OW29308   3.229   0.876   6.924  0.1324  0.5675  0.0274
 7381SOL    HW129309   3.269   0.953   6.875  0.2345  0.4195 -0.1243
 7381SOL    HW229310   3.138   0.901   6.959 -0.6418  0.1502 -1.6435
 7382SOL     OW29311   9.218   1.635   5.674 -0.4066 -0.3459  0.3486
 7382SOL    HW129312   9.184   1.658   5.583  0.9983 -0.1165 -0.1304
 7382SOL    HW229313   9.273   1.551   5.669 -1.0415 -0.8203  1.1463
 7383SOL     OW29314   1.654   0.239   2.053  0.0869 -0.3387  0.6320
 7383SOL    HW129315   1.729   0.287   2.098  0.0015  0.5049 -0.0917
 7383SOL    HW229316   1.618   0.168   2.113  1.5283 -0.8224  0.9441
 7384SOL     OW29317   1.883   3.453   6.060  0.1263  0.7273 -0.4402
 7384SOL    HW129318   1.812   3.387   6.084  0.9806 -0.6857 -1.7226
 7384SOL    HW229319   1.848   3.546   6.072 -0.7646  0.0759  2.3982
 7385SOL     OW29320   2.510   2.712   6.451  0.1793 -0.5356 -0.3713
 7385SOL    HW129321   2.519   2.776   6.374  2.1220  0.1750  0.4126
 7385SOL    HW229322   2.426   2.732   6.501  0.7950  1.4794 -0.0887
 7387SOL     OW29323   0.942   5.927   6.040 -0.4371  0.5391  0.3928
 7387SOL    HW129324   0.916   5.953   5.947  0.1762  0.7370  0.2711
 7387SOL    HW229325   0.929   5.829   6.053 -0.1773  0.4520 -0.0190
 7388SOL     OW29326   0.544   5.237   1.401 -0.3105  0.1160  0.2060
 7388SOL    HW129327   0.530   5.304   1.475 -0.7134  0.4421 -0.1617
 7388SOL    HW229328   0.604   5.277   1.332  1.0711 -0.6408  0.9453
 7389SOL     OW29329   7.190   2.790   2.548  0.1701 -0.3505 -0.3834
 7389SOL    HW129330   7.272   2.831   2.507  1.1814 -1.6221  0.3299
 7389SOL    HW229331   7.176   2.827   2.640 -0.6488  0.6199 -0.8907
 7390SOL     OW29332   3.624   8.910   7.595 -0.2626 -0.3800 -0.0495
 7390SOL    HW129333   3.527   8.916   7.619 -0.2161 -1.2622  0.4022
 7390SOL    HW229334   3.636   8.842   7.522  0.2116 -1.6272  1.1520
 7391SOL     OW29335   1.260   5.583   3.448 -0.2978 -0.1840  0.0912
 7391SOL    HW129336   1.224   5.654   3.508  2.9904  2.4270 -0.8324
 7391SOL    HW229337   1.198   5.569   3.371 -1.7753  0.5031  1.1412
 7392SOL     OW29338   3.030   5.567   0.434  0.0731 -0.0690 -0.0228
 7392SOL    HW129339   2.936   5.596   0.456  1.4264  3.3005  1.5958
 7392SOL    HW229340   3.035   5.544   0.336 -2.2079  0.5378 -0.3249
 7393SOL     OW29341   5.829   3.914   2.705 -0.4144 -0.3582  0.0195
 7393SOL    HW129342   5.851   3.860   2.623 -1.0283 -1.5105  0.6046
 7393SOL    HW229343   5.904   3.907   2.770  0.3155  1.0042 -0.6562
 7394SOL     OW29344   1.861   1.537   3.887 -0.1261 -0.0095 -0.2900
 7394SOL    HW129345   1.954   1.522   3.852 -0.1659  0.7246 -0.7200
 7394SOL    HW229346   1.856   1.626   3.931 -0.7754  0.2116 -0.7977
 7396SOL     OW29347   2.792   7.462   2.619 -0.0844 -0.2418  0.1956
 7396SOL    HW129348   2.783   7.380   2.675  0.0425 -1.7264 -1.8831
 7396SOL    HW229349   2.889   7.477   2.598 -0.1274  0.3122  0.3875
 7397SOL     OW29350   8.444   0.308   0.464  0.4816 -0.2677 -0.3898
 7397SOL    HW129351   8.432   0.287   0.561  0.9396  0.3544 -0.1948
 7397SOL    HW229352   8.441   0.223   0.411 -1.4858 -0.4482 -0.0164
 7398SOL     OW29353   9.112   9.022   5.024  0.5019 -0.0408 -0.3870
 7398SOL    HW129354   9.012   9.018   5.031  0.5240 -1.7727 -0.8749
 7398SOL    HW229355   9.138   9.105   4.974 -0.7634 -0.2230 -1.3899
 7399SOL     OW29356   1.474   8.213   4.670 -0.2665  0.1895 -0.0442
 7399SOL    HW129357   1.552   8.150   4.661 -0.7437 -0.3300 -0.6421
 7399SOL    HW229358   1.421   8.212   4.585 -0.2651  1.4256 -0.0632
 7400SOL     OW29359   4.473   3.535   6.920  0.2253  0.0774  0.8261
 7400SOL    HW129360   4.573   3.529   6.924  0.3029  0.4544 -0.3771
 7400SOL    HW229361   4.433   3.445   6.937  0.8801 -0.7755 -1.9483
 7402SOL     OW29362   8.113   0.796   5.202 -0.4414  0.7587  0.0759
 7402SOL    HW129363   8.062   0.785   5.117  0.9169  0.1279 -0.6707
 7402SOL    HW229364   8.194   0.738   5.201 -1.3623 -0.6564  2.5973
 7403SOL     OW29365   2.372   9.571   5.770  0.4714 -0.5810  0.0377
 7403SOL    HW129366   2.464   9.603   5.792 -0.9982  2.4265  2.1447
 7403SOL    HW229367   2.352   9.591   5.674  1.5902 -0.1685 -0.1178
 7404SOL     OW29368   4.132   4.953   3.338 -0.1675  0.4299  0.5901
 7404SOL    HW129369   4.216   4.966   3.391 -0.9197  0.3057  1.8239
 7404SOL    HW229370   4.094   5.043   3.313  0.2939  0.4871  0.0662
 7406SOL     OW29371   0.682   1.307   7.127 -0.4064  0.0779  0.0487
 7406SOL    HW129372   0.735   1.391   7.114  0.0669 -0.3811 -1.0396
 7406SOL    HW229373   0.616   1.297   7.053 -0.2275 -0.6753 -0.0216
 7408SOL     OW29374   7.703   5.137   3.950 -0.4521 -0.0730 -0.7180
 7408SOL    HW129375   7.745   5.168   3.865 -1.6267 -0.0455 -1.2951
 7408SOL    HW229376   7.655   5.213   3.994 -0.6692 -0.3118 -0.5318
 7409SOL     OW29377   9.353   3.512   3.682  0.4160  0.0374  0.0875
 7409SOL    HW129378   9.263   3.492   3.642  0.3109 -0.7321  0.7100
 7409SOL    HW229379   9.400   3.579   3.624  0.6952 -1.8297 -1.9167
 7410SOL     OW29380   4.533   7.821   3.107  0.0497 -0.1630 -0.1035
 7410SOL    HW129381   4.499   7.791   3.018 -1.8076  0.2269  0.4481
 7410SOL    HW229382   4.577   7.910   3.097  2.6024 -1.4802 -1.1477
 7411SOL     OW29383   8.884   0.238   2.122 -0.3663  0.1756 -0.5242
 7411SOL    HW129384   8.841   0.152   2.093 -0.3455 -0.5166  1.3988
 7411SOL    HW229385   8.814   0.309   2.129 -0.6726 -0.1343 -0.4232
 7412SOL     OW29386   9.415   3.743   6.700 -0.3638 -0.7739 -0.4892
 7412SOL    HW129387   9.419   3.838   6.731  0.5651 -1.1872  0.6694
 7412SOL    HW229388   9.319   3.714   6.693 -0.6438  0.2056 -0.7227
 7413SOL     OW29389   7.029   8.192   4.476  0.3924  0.1845 -0.1006
 7413SOL    HW129390   7.064   8.137   4.400  1.7818  0.9862 -0.0549
 7413SOL    HW229391   7.105   8.224   4.533 -0.7490 -1.9210  2.7206
 7414SOL     OW29392   4.097   1.564   3.645  0.0171  0.1637 -0.0118
 7414SOL    HW129393   4.036   1.491   3.676 -1.0218  0.4514 -1.3547
 7414SOL    HW229394   4.171   1.525   3.591  0.9341 -0.1652  1.4599
 7415SOL     OW29395   4.851   0.227   3.150  0.0785 -0.0000  0.4255
 7415SOL    HW129396   4.760   0.259   3.122  0.9554  1.0952 -1.2844
 7415SOL    HW229397   4.854   0.220   3.250 -1.4970  1.1952  0.5910
 7416SOL     OW29398   0.516   8.295   2.502  0.6919  0.2837  0.0550
 7416SOL    HW129399   0.487   8.280   2.408 -0.2502  0.5966  0.2940
 7416SOL    HW229400   0.437   8.314   2.559  1.2526  0.0218  0.9310
 7417SOL     OW29401   3.764   5.830   5.377 -0.2455 -0.0326 -0.3851
 7417SOL    HW129402   3.764   5.902   5.446  2.4780  0.6092 -0.9963
 7417SOL    HW229403   3.816   5.751   5.411 -0.1774 -0.3097 -1.1126
 7418SOL     OW29404   3.789   3.811   0.921 -0.1394  0.2663  0.2460
 7418SOL    HW129405   3.727   3.773   0.989 -1.9475  0.0719 -1.4817
 7418SOL    HW229406   3.832   3.894   0.958 -1.4756  0.4453  1.4307
 7419SOL     OW29407   6.497   8.934   6.922  0.3684  0.2425  0.2410
 7419SOL    HW129408   6.547   8.885   6.850  1.2517  3.7219 -1.6192
 7419SOL    HW229409   6.561   8.963   6.992 -0.0920 -0.8175  1.1209
 7421SOL     OW29410   4.561   5.288   2.407  0.2304 -0.0947  0.9012
 7421SOL    HW129411   4.576   5.297   2.506  0.4164  3.5255  0.6091
 7421SOL    HW229412   4.633   5.337   2.358 -1.6665  0.8801 -0.9508
 7423SOL     OW29413   6.341   5.361   1.249 -0.2753 -0.5432 -0.1667
 7423SOL    HW129414   6.426   5.376   1.200  0.1258  1.1062  0.9937
 7423SOL    HW229415   6.292   5.448   1.259 -1.3000 -1.1905  0.6133
 7424SOL     OW29416   8.851   5.805   3.121  0.4442  0.3580  0.7689
 7424SOL    HW129417   8.930   5.827   3.064  1.2811 -0.2806  1.6670
 7424SOL    HW229418   8.879   5.745   3.196 -0.7975  0.5368  1.3958
 7428SOL     OW29419   2.783   2.005   1.212  0.2590  0.2052 -0.7365
 7428SOL    HW129420   2.810   1.992   1.308 -1.3284 -1.1827 -0.4313
 7428SOL    HW229421   2.863   2.027   1.157  1.9978 -3.4897  0.1498
 7429SOL     OW29422   5.885   1.271   4.226 -0.2690 -0.3752 -0.3961
 7429SOL    HW129423   5.836   1.221   4.155 -2.1016  1.0029 -0.1652
 7429SOL    HW229424   5.825   1.282   4.306  1.3378 -0.8793  0.9034
 7430SOL     OW29425   5.259   8.172   1.336 -0.2890  0.3798 -0.9688
 7430SOL    HW129426   5.338   8.164   1.275 -0.7127 -0.9903 -1.3491
 7430SOL    HW229427   5.255   8.091   1.395 -1.0996  0.7089 -0.5747
 7431SOL     OW29428   2.082   6.493   7.448  0.7472  0.3109 -0.1519
 7431SOL    HW129429   2.006   6.430   7.462 -0.0443  1.2098 -0.3423
 7431SOL    HW229430   2.047   6.582   7.419  1.8823  0.6946 -0.3896
 7432SOL     OW29431   4.551   3.751   1.723 -0.2165 -0.1939  0.4682
 7432SOL    HW129432   4.631   3.757   1.662  0.6535 -0.4978  1.5640
 7432SOL    HW229433   4.469   3.737   1.668  0.6639 -1.3976 -0.5846
 7434SOL     OW29434   1.362   2.903   5.795 -0.4394 -0.3847  0.6804
 7434SOL    HW129435   1.285   2.890   5.732  0.2031 -1.3438  0.0795
 7434SOL    HW229436   1.445   2.921   5.742  0.1367 -1.3567  1.2445
 7435SOL     OW29437   9.770   6.359   7.561  0.0280 -0.4008  0.2944
 7435SOL    HW129438   9.844   6.391   7.619  0.4923 -0.4190 -0.2760
 7435SOL    HW229439   9.789   6.265   7.533 -0.3708 -0.5143  0.4079
 7436SOL     OW29440   9.280   3.745   2.429 -0.2221 -0.3938 -0.3152
 7436SOL    HW129441   9.197   3.744   2.485 -0.3047  2.3106 -0.3130
 7436SOL    HW229442   9.359   3.722   2.486 -0.6723 -0.6543  0.2077
 7438SOL     OW29443   1.711   7.400   5.605  0.0940  0.1689 -0.2465
 7438SOL    HW129444   1.803   7.360   5.603  1.0414  2.2037  1.3124
 7438SOL    HW229445   1.651   7.342   5.661  1.1447  0.2948  1.0283
 7439SOL     OW29446   3.579   5.522   1.249 -0.1384  0.6024 -0.2249
 7439SOL    HW129447   3.664   5.557   1.209  0.4075 -0.7428 -0.2530
 7439SOL    HW229448   3.542   5.449   1.192 -2.0781  2.1120 -0.9493
 7440SOL     OW29449   7.644   6.738   1.614 -0.3461 -0.0639 -0.0619
 7440SOL    HW129450   7.618   6.642   1.598  0.8486  0.0164 -2.6528
 7440SOL    HW229451   7.561   6.793   1.622 -1.0332 -1.0206 -0.4082
 7441SOL     OW29452   0.750   0.289   1.171 -0.0651 -0.3325 -0.2747
 7441SOL    HW129453   0.718   0.208   1.220  1.2465 -0.2830  0.6796
 7441SOL    HW229454   0.850   0.291   1.172  0.0222 -0.5259 -3.2484
 7442SOL     OW29455   8.548   4.193   6.600  0.2640 -0.5119  0.0304
 7442SOL    HW129456   8.518   4.118   6.658 -1.8299 -0.3922 -0.8916
 7442SOL    HW229457   8.471   4.231   6.550  1.8003  0.3102 -1.8096
 7444SOL     OW29458   6.985   0.928   3.939 -0.0158 -0.0843 -0.2573
 7444SOL    HW129459   6.926   1.003   3.910 -0.3303  0.1046  0.8643
 7444SOL    HW229460   7.080   0.949   3.915 -0.2731  0.0205 -1.2254
 7445SOL     OW29461   3.963   4.845   3.945 -0.0864  0.1810  0.0683
 7445SOL    HW129462   3.990   4.748   3.943  1.1162  0.5168 -0.2257
 7445SOL    HW229463   3.900   4.863   3.870  0.7841 -0.0596 -0.7277
 7447SOL     OW29464   8.851   9.390   5.738 -0.0336  0.5801 -0.4826
 7447SOL    HW129465   8.843   9.290   5.734 -1.4937  0.7222 -1.5754
 7447SOL    HW229466   8.873   9.426   5.648 -0.3864  1.3015 -0.2861
 7449SOL     OW29467   1.318   8.630   7.786 -0.1310  0.2255  0.1188
 7449SOL    HW129468   1.345   8.630   7.689 -1.1614  0.1194 -0.1769
 7449SOL    HW229469   1.392   8.667   7.841  0.5945 -0.0113 -0.6826
 7450SOL     OW29470   3.584   3.258   7.124 -0.2629 -0.3860 -0.1102
 7450SOL    HW129471   3.551   3.326   7.188 -1.0377  0.9728 -1.9049
 7450SOL    HW229472   3.506   3.211   7.082  0.2208 -1.0022 -0.3310
 7451SOL     OW29473   0.960   8.487   3.193  0.5646 -0.1329 -0.8013
 7451SOL    HW129474   0.903   8.544   3.252  1.1623 -0.7182  0.3484
 7451SOL    HW229475   0.917   8.398   3.179  1.4664 -0.8055  0.5770
 7452SOL     OW29476   8.652   2.960   6.750 -0.5179  0.6574 -0.6155
 7452SOL    HW129477   8.582   2.950   6.679 -0.3456  2.2781 -1.0253
 7452SOL    HW229478   8.686   3.054   6.750  1.7829 -0.1541 -0.5334
 7453SOL     OW29479   3.095   5.743   0.027 -0.2959 -0.5356  0.4910
 7453SOL    HW129480   3.176   5.702  -0.015 -0.2671 -0.4322  0.4438
 7453SOL    HW229481   3.055   5.811  -0.036 -0.6113 -0.8265  0.3754
 7454SOL     OW29482   8.842   0.048   1.453 -0.5553  0.4191  0.6180
 7454SOL    HW129483   8.744   0.067   1.459 -0.4233  0.9413  1.1217
 7454SOL    HW229484   8.893   0.121   1.499 -0.0146 -0.7320  1.8699
 7455SOL     OW29485   3.773   3.829   5.438  0.2179  0.1946 -0.2146
 7455SOL    HW129486   3.784   3.839   5.537 -0.5798 -0.5693 -0.0420
 7455SOL    HW229487   3.770   3.919   5.396 -1.7092  0.6036  0.7212
 7456SOL     OW29488   6.472   9.247   1.695 -0.1667  0.0346  0.4045
 7456SOL    HW129489   6.519   9.320   1.745 -1.6789 -0.1118  2.0837
 7456SOL    HW229490   6.405   9.287   1.633 -0.7129  0.1168  1.0333
 7457SOL     OW29491   0.957   1.850   2.978 -0.4805  0.5203 -0.1165
 7457SOL    HW129492   0.891   1.918   2.945 -0.4278  1.1094  0.9725
 7457SOL    HW229493   0.959   1.851   3.078  0.2758 -0.3666 -0.1167
 7459SOL     OW29494   6.661   7.245   3.348  0.0577 -0.0434 -0.5383
 7459SOL    HW129495   6.569   7.282   3.341 -0.2886 -1.0986 -2.0747
 7459SOL    HW229496   6.700   7.236   3.256  1.4196 -0.2462  0.0458
 7461SOL     OW29497   7.286   8.333   2.223 -0.5916  0.4997  0.1889
 7461SOL    HW129498   7.279   8.250   2.277 -0.0387 -1.6384 -2.8835
 7461SOL    HW229499   7.207   8.341   2.163  0.7265  0.6464 -1.5731
 7462SOL     OW29500   2.232   1.596   2.456 -0.5932 -0.0629  0.2503
 7462SOL    HW129501   2.273   1.560   2.372  0.1330 -1.6231  1.2547
 7462SOL    HW229502   2.244   1.530   2.530  0.7069  2.2421  2.1351
 7463SOL     OW29503   5.993   8.789   1.667 -0.1140 -0.1034  1.0803
 7463SOL    HW129504   5.909   8.843   1.678  0.3637  0.5242  1.6469
 7463SOL    HW229505   6.072   8.850   1.661  0.2369 -0.6711 -0.2028
 7464SOL     OW29506   5.055   3.022   1.828  0.6372  0.0713 -0.0639
 7464SOL    HW129507   5.010   2.972   1.754  1.5332 -0.0551 -0.5336
 7464SOL    HW229508   5.153   3.003   1.825  1.3590  3.6259 -1.6847
 7465SOL     OW29509   5.253   2.325   7.399 -0.1866  0.1912  0.3994
 7465SOL    HW129510   5.282   2.229   7.402 -1.6737 -0.3235 -1.2370
 7465SOL    HW229511   5.253   2.362   7.492 -1.6182 -2.0219  1.3182
 7466SOL     OW29512   7.300   9.677   5.198  0.0348 -0.1914  0.1087
 7466SOL    HW129513   7.249   9.656   5.114  2.2773 -1.6002 -0.9574
 7466SOL    HW229514   7.236   9.699   5.271 -1.9935  0.4226 -1.8022
 7467SOL     OW29515   2.192   5.413   3.543 -0.2722 -0.6121 -0.0484
 7467SOL    HW129516   2.167   5.399   3.447 -3.0676 -0.5146  0.6281
 7467SOL    HW229517   2.242   5.499   3.552 -3.1946  1.2504 -0.9340
 7468SOL     OW29518   2.886   3.363   7.249 -0.0964  0.6945  0.8001
 7468SOL    HW129519   2.956   3.318   7.193 -0.8114  0.4039  0.1375
 7468SOL    HW229520   2.916   3.364   7.344  1.2471  1.4271  0.3757
 7469SOL     OW29521   1.861   9.134   6.126 -0.3185  0.2242  0.2606
 7469SOL    HW129522   1.791   9.197   6.092  0.4747  0.9095 -0.1262
 7469SOL    HW229523   1.866   9.053   6.066  0.4236  0.9917 -0.7431
 7470SOL     OW29524   8.532   7.430   3.679  0.1069 -0.2245  0.5291
 7470SOL    HW129525   8.601   7.413   3.749  0.3536 -0.2914  0.2741
 7470SOL    HW229526   8.511   7.345   3.631  0.2964 -0.0853  0.1976
 7471SOL     OW29527   9.054   0.354   7.055  0.5399  0.5127  0.1605
 7471SOL    HW129528   8.966   0.393   7.030  0.0428  0.4464  1.7651
 7471SOL    HW229529   9.065   0.265   7.011 -0.8607 -0.1635  1.1392
 7472SOL     OW29530   0.399   0.809   5.636  0.0289 -0.1831  0.2271
 7472SOL    HW129531   0.496   0.785   5.640  0.1444  0.2787  0.2167
 7472SOL    HW229532   0.349   0.738   5.587  0.2998 -0.6176  0.5804
 7474SOL     OW29533   3.673   1.738   4.719 -0.1890  0.3106  0.1307
 7474SOL    HW129534   3.726   1.662   4.757  1.7374  1.5089 -0.0967
 7474SOL    HW229535   3.712   1.765   4.631 -0.7335  1.6828  0.3013
 7475SOL     OW29536   8.968   1.400   5.646  0.4614  0.5992 -0.2939
 7475SOL    HW129537   8.990   1.481   5.700  0.3474  0.7071 -0.4086
 7475SOL    HW229538   8.888   1.354   5.686 -0.2648  1.2573 -0.9727
 7476SOL     OW29539   7.790   6.477   4.733  0.5045 -0.1724 -0.8286
 7476SOL    HW129540   7.737   6.415   4.675 -1.2906  0.1786  0.3598
 7476SOL    HW229541   7.796   6.567   4.690  1.1021 -0.5320 -1.4915
 7477SOL     OW29542   9.800   7.153   6.200  0.2241  0.1052  0.2836
 7477SOL    HW129543   9.723   7.155   6.264 -0.8729  0.6461 -1.0339
 7477SOL    HW229544   9.800   7.067   6.149 -0.1267  0.5298 -0.4489
 7478SOL     OW29545   3.152   5.411   1.924  0.0403 -0.3032  0.0960
 7478SOL    HW129546   3.195   5.496   1.894  0.6234 -1.1521 -1.5987
 7478SOL    HW229547   3.080   5.386   1.859 -1.7012  0.0960  1.8585
 7479SOL     OW29548   1.211   6.949   4.553 -0.2287  0.8350  0.3791
 7479SOL    HW129549   1.144   7.003   4.501 -1.5815  0.1279  1.3423
 7479SOL    HW229550   1.248   6.877   4.495 -1.5108  0.2299  0.2982
 7482SOL     OW29551   9.122   7.138   3.815 -0.1278  0.0360  0.3163
 7482SOL    HW129552   9.185   7.062   3.799 -0.2949  0.0796 -0.5425
 7482SOL    HW229553   9.144   7.213   3.754 -2.9719 -1.1093 -2.2261
 7484SOL     OW29554   1.128   6.807   2.504 -0.4194  0.2046  0.0857
 7484SOL    HW129555   1.113   6.800   2.405 -2.9712  1.6906  0.3289
 7484SOL    HW229556   1.040   6.808   2.551  0.7841 -3.5645  2.6697
 7485SOL     OW29557   9.888   7.093   6.500 -0.0813  0.2630  0.3675
 7485SOL    HW129558   9.903   7.026   6.427  0.7772  0.4052  0.4097
 7485SOL    HW229559   9.935   7.178   6.477 -2.0816  1.2244 -0.2071
 7486SOL     OW29560   4.317   9.678   1.430 -0.4823 -0.1526  0.5424
 7486SOL    HW129561   4.407   9.665   1.470 -0.2403  0.4199  0.1948
 7486SOL    HW229562   4.277   9.763   1.464 -1.2346 -0.8117  1.3195
 7487SOL     OW29563   8.657   6.023   7.489 -0.1407  0.1622 -0.0454
 7487SOL    HW129564   8.651   5.923   7.486 -0.3779  0.1367  1.1504
 7487SOL    HW229565   8.750   6.050   7.512 -0.3776  0.1842  0.9144
 7488SOL     OW29566   3.532   5.813   5.670  0.3675 -0.2401 -0.1447
 7488SOL    HW129567   3.510   5.792   5.765  0.6323 -1.1219 -0.2780
 7488SOL    HW229568   3.562   5.908   5.663  0.7607 -0.3004  0.7171
 7489SOL     OW29569   6.801   5.453   1.610 -0.8481  0.4133 -0.4054
 7489SOL    HW129570   6.742   5.492   1.681 -3.1421 -1.2633 -1.3430
 7489SOL    HW229571   6.774   5.488   1.520 -1.8493 -1.9740 -1.0738
 7490SOL     OW29572   6.363   7.752   6.346 -0.2068 -0.7248  0.2520
 7490SOL    HW129573   6.404   7.797   6.426 -0.3275 -0.9008  0.4128
 7490SOL    HW229574   6.436   7.722   6.284 -0.1462  0.0962 -0.0722
 7491SOL     OW29575   3.972   7.109   3.699  0.2553  0.4699 -0.3846
 7491SOL    HW129576   3.988   7.206   3.718  0.9038  0.2523  0.1914
 7491SOL    HW229577   3.926   7.067   3.777  0.8730  0.0964 -0.2133
 7492SOL     OW29578   7.732   0.937   1.242  0.0108 -0.9839  0.4101
 7492SOL    HW129579   7.799   0.983   1.300  0.7960 -0.0693 -1.1840
 7492SOL    HW229580   7.651   0.995   1.234 -0.4309 -1.4775  1.2337
 7493SOL     OW29581   9.593   9.647   1.389  0.4563  0.4794  0.5295
 7493SOL    HW129582   9.561   9.595   1.309 -0.9380  1.2799  0.5539
 7493SOL    HW229583   9.687   9.621   1.410  1.1415  0.8735 -1.9093
 7494SOL     OW29584   4.074   3.105   4.106  0.3590  0.5391 -0.4242
 7494SOL    HW129585   4.108   3.021   4.149  0.1504 -0.2016 -1.6990
 7494SOL    HW229586   3.977   3.118   4.129  0.2658  0.1801 -0.6168
 7495SOL     OW29587   4.086   6.338   3.962  0.3926 -0.8413 -0.1195
 7495SOL    HW129588   4.119   6.330   4.056 -2.0114  2.6223  1.1090
 7495SOL    HW229589   3.986   6.343   3.962  0.4384  1.3798 -2.6327
 7497SOL     OW29590   7.779   9.129   7.844 -0.8384  0.1723 -0.0543
 7497SOL    HW129591   7.768   9.226   7.820 -0.5269  0.1356 -0.3530
 7497SOL    HW229592   7.732   9.111   7.931  1.0988  1.1332  1.2370
 7500SOL     OW29593   3.349   5.659   3.561  0.7251 -0.7253 -0.1677
 7500SOL    HW129594   3.419   5.638   3.493  1.1895 -0.6573  0.2853
 7500SOL    HW229595   3.388   5.652   3.653  0.2298 -0.3612  0.0776
 7501SOL     OW29596   0.840   1.044   3.001 -0.6561  0.1018  0.3631
 7501SOL    HW129597   0.860   1.043   2.904 -0.3043  0.6520  0.4289
 7501SOL    HW229598   0.890   1.119   3.045  1.0569 -1.5785  1.3709
 7502SOL     OW29599   0.606   9.749   5.040 -0.3657 -0.3691  0.0168
 7502SOL    HW129600   0.644   9.735   4.949  1.0078 -0.5363  0.5940
 7502SOL    HW229601   0.533   9.817   5.036  2.4230  2.7361 -0.5889
 7503SOL     OW29602   0.851   8.825   0.191 -0.1535 -0.0037  0.3592
 7503SOL    HW129603   0.851   8.729   0.219  1.2013  0.2427  1.2719
 7503SOL    HW229604   0.914   8.838   0.114 -0.5858  0.0924  0.0220
 7504SOL     OW29605   4.985   8.696   2.591 -0.6377  0.6365  0.6880
 7504SOL    HW129606   4.947   8.608   2.619 -0.9318  0.3814 -0.4490
 7504SOL    HW229607   5.030   8.686   2.502  0.5573  1.3312  1.2055
 7505SOL     OW29608   3.482   4.275   2.470  0.4488  0.1179 -0.5671
 7505SOL    HW129609   3.556   4.319   2.521 -1.4277  1.1091  1.4006
 7505SOL    HW229610   3.492   4.294   2.372  2.5298  0.5852 -0.2827
 7506SOL     OW29611   9.731   3.594   3.118 -0.3980 -0.7088 -0.3420
 7506SOL    HW129612   9.745   3.495   3.126  0.7207 -0.7525 -2.4868
 7506SOL    HW229613   9.769   3.626   3.031 -1.0158  1.5676  0.1989
 7507SOL     OW29614   6.980   9.356   6.070 -0.2535 -0.8091  0.4231
 7507SOL    HW129615   6.936   9.420   6.133 -2.9562 -2.1303 -0.0454
 7507SOL    HW229616   6.910   9.303   6.023  1.8657 -2.4014 -1.0029
 7508SOL     OW29617   9.844   0.480   2.194  0.1204  0.0737  0.8321
 7508SOL    HW129618   9.912   0.409   2.178 -1.8733 -1.2118 -2.6827
 7508SOL    HW229619   9.879   0.568   2.161  0.7883 -0.2070  0.7911
 7509SOL     OW29620   4.433   4.283   6.949  0.5534  0.3794  0.4765
 7509SOL    HW129621   4.347   4.334   6.947  0.2739 -0.1324 -0.4345
 7509SOL    HW229622   4.432   4.220   7.027  0.2392  0.5969  0.6525
 7511SOL     OW29623   5.698   5.676   1.459  0.0064 -0.1429 -0.2673
 7511SOL    HW129624   5.616   5.728   1.435 -0.3800 -1.6537 -2.3538
 7511SOL    HW229625   5.744   5.646   1.375  0.5361 -2.6462  0.8784
 7514SOL     OW29626   3.897   7.962   7.890  0.8961 -0.2603 -0.3259
 7514SOL    HW129627   3.884   7.988   7.795  0.0857  1.8242  0.3243
 7514SOL    HW229628   3.980   8.004   7.926  0.9486 -0.6466  0.0057
 7515SOL     OW29629   2.909   9.714   4.719 -0.5236  0.5223  0.1284
 7515SOL    HW129630   2.890   9.649   4.645 -1.6067  2.6292 -1.4829
 7515SOL    HW229631   2.979   9.779   4.690  0.5549  0.1263  1.7321
 7517SOL     OW29632   1.423   9.770   0.247 -0.6248  0.3245 -0.1358
 7517SOL    HW129633   1.373   9.687   0.223 -0.5023  0.0086  0.7139
 7517SOL    HW229634   1.429   9.829   0.166  0.2543 -0.9776 -1.0418
 7519SOL     OW29635   5.772   1.035   5.892  0.2792 -0.0808 -0.3849
 7519SOL    HW129636   5.691   1.003   5.941  0.4433  0.2091  0.0756
 7519SOL    HW229637   5.830   0.956   5.868  1.3727 -0.0224  1.9625
 7522SOL     OW29638   4.000   5.762   1.023 -0.3342  0.1582 -0.1639
 7522SOL    HW129639   4.099   5.753   1.024 -0.4485 -1.1941  2.0499
 7522SOL    HW229640   3.975   5.856   1.046  0.3962  0.2373  0.3053
 7523SOL     OW29641   4.724   2.668   5.229 -0.2636  0.4302  0.3667
 7523SOL    HW129642   4.664   2.675   5.308 -0.6135 -0.0643  0.1536
 7523SOL    HW229643   4.815   2.702   5.252 -0.0338 -0.7750  1.3375
 7524SOL     OW29644   4.668   3.730   5.737 -0.2563 -0.6637 -0.3478
 7524SOL    HW129645   4.720   3.784   5.671  0.0294 -1.2784 -0.6337
 7524SOL    HW229646   4.644   3.641   5.696 -2.8984  0.1990 -0.7970
 7525SOL     OW29647   7.201   1.328   7.229 -0.5920  0.7881  0.3217
 7525SOL    HW129648   7.125   1.341   7.292 -0.7752  1.3882 -0.0163
 7525SOL    HW229649   7.281   1.378   7.262 -0.7853  1.3743 -0.0858
 7526SOL     OW29650   8.562   5.210   4.993 -0.0903  0.3754  0.4190
 7526SOL    HW129651   8.474   5.172   4.963 -1.4578  2.4455  1.6933
 7526SOL    HW229652   8.585   5.172   5.083  0.8408 -0.9290 -0.3530
 7531SOL     OW29653   8.284   0.951   1.083 -0.0038  0.2641  0.0810
 7531SOL    HW129654   8.368   1.004   1.075 -0.6915  1.4415  0.6389
 7531SOL    HW229655   8.208   1.001   1.042 -0.6372 -0.3380  0.5013
 7532SOL     OW29656   9.857   8.013   1.874 -0.1853 -0.6729  0.0591
 7532SOL    HW129657   9.912   8.030   1.793 -0.4877  1.8433  0.3428
 7532SOL    HW229658   9.916   7.982   1.949  0.6766  0.8106  0.0048
 7533SOL     OW29659   1.253   9.562   0.200 -0.0173 -0.0805 -0.1645
 7533SOL    HW129660   1.268   9.464   0.203  0.4423 -0.0923 -2.1075
 7533SOL    HW229661   1.184   9.584   0.130 -0.7538  0.9184  0.8383
 7534SOL     OW29662   1.519   9.908   1.076  0.4343  0.3579 -0.2023
 7534SOL    HW129663   1.516   9.845   0.998  1.5783 -1.4683  1.2085
 7534SOL    HW229664   1.566   9.992   1.048  1.0417 -0.3673 -1.4296
 7535SOL     OW29665   1.479   9.955   1.989  0.4753 -0.4677  0.9573
 7535SOL    HW129666   1.484  10.012   2.072  0.3132 -3.3763  3.0255
 7535SOL    HW229667   1.570   9.919   1.969  0.5834  0.4966 -0.3818
 7536SOL     OW29668   3.732   0.895   3.543 -0.2260  0.0967 -0.2787
 7536SOL    HW129669   3.795   0.881   3.620 -0.5514 -1.5559 -0.2982
 7536SOL    HW229670   3.655   0.951   3.573 -0.6002 -0.9479  0.7424
 7538SOL     OW29671   9.030   9.894   7.325 -0.3194 -0.3294  0.1832
 7538SOL    HW129672   8.974   9.881   7.243  1.1915 -2.0709 -0.6412
 7538SOL    HW229673   9.121   9.856   7.308 -0.1547 -1.2397  2.8609
 7539SOL     OW29674   3.628   0.875   2.645 -0.2100 -0.2499  0.8289
 7539SOL    HW129675   3.573   0.821   2.708  1.1660  1.1200  3.2738
 7539SOL    HW229676   3.718   0.833   2.633  0.9935  1.5966  3.0182
 7540SOL     OW29677   2.066   6.864   4.731 -0.3709  0.1024  0.1022
 7540SOL    HW129678   2.144   6.912   4.691 -0.9151 -0.1926 -1.3301
 7540SOL    HW229679   2.006   6.830   4.658 -1.8407  0.3272  1.1750
 7541SOL     OW29680   8.769   1.559   6.954  0.3611  0.1642 -0.0384
 7541SOL    HW129681   8.861   1.519   6.947  0.8094  1.1163  0.2418
 7541SOL    HW229682   8.702   1.494   6.919  0.9438 -1.2680  1.4526
 7542SOL     OW29683   1.693   6.587   5.865  1.1057 -0.1512  0.2116
 7542SOL    HW129684   1.771   6.525   5.856 -0.6897 -2.7275  1.6902
 7542SOL    HW229685   1.642   6.590   5.779  1.2370 -0.6949  0.1152
 7543SOL     OW29686   7.421   8.188   1.778 -0.1360  0.0630 -0.5659
 7543SOL    HW129687   7.418   8.091   1.801 -2.8821  0.3090  0.2122
 7543SOL    HW229688   7.508   8.208   1.731  0.5142 -2.7115 -0.6359
 7544SOL     OW29689   7.892   1.268   3.279 -0.0512 -0.2298  0.1602
 7544SOL    HW129690   7.881   1.363   3.309 -0.8087  0.4549 -2.1486
 7544SOL    HW229691   7.969   1.261   3.215 -1.8425 -0.5486 -2.0417
 7545SOL     OW29692   8.936   7.881   6.430  0.0966 -0.3645 -0.0029
 7545SOL    HW129693   8.870   7.885   6.355  0.4069  0.1609 -0.2521
 7545SOL    HW229694   9.018   7.831   6.401  0.3766  0.1705 -0.1452
 7547SOL     OW29695   9.087   9.821   0.279 -0.2049  0.2721  0.0783
 7547SOL    HW129696   9.125   9.824   0.372 -0.6709  1.3500  0.2472
 7547SOL    HW229697   9.089   9.728   0.245 -0.7329 -0.2676  1.4848
 7548SOL     OW29698   0.685   2.219   4.118 -0.1675  0.3521 -0.1182
 7548SOL    HW129699   0.685   2.260   4.210 -1.2606  0.5468 -0.1904
 7548SOL    HW229700   0.763   2.253   4.066  0.3883  0.3407  0.6972
 7549SOL     OW29701   2.229   8.805   1.329 -0.7947  0.2720  0.1750
 7549SOL    HW129702   2.197   8.872   1.396  0.1192 -0.3357  1.2432
 7549SOL    HW229703   2.154   8.781   1.268 -0.6857  3.5539 -1.3570
 7551SOL     OW29704   3.454   9.763   6.065 -0.6329  0.2700  0.0832
 7551SOL    HW129705   3.536   9.791   6.114 -1.3608  1.7081  0.5311
 7551SOL    HW229706   3.419   9.678   6.103 -0.6175  0.8474  1.3975
 7552SOL     OW29707   5.774   0.123   5.063  0.5315  0.1854  1.0304
 7552SOL    HW129708   5.851   0.171   5.019 -0.2888 -1.3798 -2.3149
 7552SOL    HW229709   5.690   0.174   5.045 -0.1324 -1.6380 -1.2735
 7553SOL     OW29710   3.268   6.391   4.516 -0.0738  0.1210  0.4646
 7553SOL    HW129711   3.265   6.318   4.448  2.4963  0.7162 -0.3169
 7553SOL    HW229712   3.278   6.351   4.607 -0.7919 -0.5691  0.2470
 7555SOL     OW29713   1.629   7.742   6.894 -0.5594  0.1039  0.1439
 7555SOL    HW129714   1.592   7.649   6.902 -0.5031  0.1956  1.5616
 7555SOL    HW229715   1.563   7.800   6.846 -2.2236  0.2326  2.5144
 7556SOL     OW29716   8.647   1.313   6.769  0.1343  0.0115 -0.6025
 7556SOL    HW129717   8.675   1.335   6.676  0.6495  0.5492 -0.3179
 7556SOL    HW229718   8.612   1.219   6.772  0.0373  0.0241 -1.3523
 7557SOL     OW29719   4.086   5.445   4.174  0.6524  0.2228 -0.2973
 7557SOL    HW129720   4.073   5.522   4.235 -0.8963  0.1714 -0.5227
 7557SOL    HW229721   3.996   5.413   4.141  1.1628 -2.4592  0.7747
 7559SOL     OW29722   3.054   6.651   2.094  0.2038 -0.4059 -0.2508
 7559SOL    HW129723   3.070   6.568   2.041  1.1960 -0.7786  0.6100
 7559SOL    HW229724   2.960   6.650   2.129 -0.1162 -0.6628 -1.1217
 7561SOL     OW29725   2.541   1.510   3.949 -0.2402  0.3487  0.3432
 7561SOL    HW129726   2.628   1.480   3.988 -0.3219 -0.6852 -0.2546
 7561SOL    HW229727   2.524   1.605   3.976  1.8272  1.0994 -0.7794
 7562SOL     OW29728   6.205   3.066   1.663 -0.5920 -0.1052  0.0312
 7562SOL    HW129729   6.209   3.028   1.571 -2.4211  1.9281 -0.9282
 7562SOL    HW229730   6.111   3.061   1.697 -0.0118 -0.4858  1.6696
 7563SOL     OW29731   9.437   7.105   7.239  0.3555  0.1588 -0.2145
 7563SOL    HW129732   9.387   7.150   7.165 -0.8591 -0.8680 -0.0231
 7563SOL    HW229733   9.496   7.172   7.284  0.1405  1.0890 -1.2693
 7564SOL     OW29734   8.338   7.186   0.884  0.4272 -0.0998  0.2321
 7564SOL    HW129735   8.401   7.206   0.959  1.6847 -1.4329 -0.4220
 7564SOL    HW229736   8.347   7.089   0.858  0.7792  0.5640 -2.3106
 7565SOL     OW29737   9.346   6.005   5.842  0.4587 -0.2694 -0.3112
 7565SOL    HW129738   9.414   6.078   5.852 -1.1118  1.3849 -1.3096
 7565SOL    HW229739   9.370   5.947   5.765  0.1902  0.9539 -1.3327
 7566SOL     OW29740   3.301   1.118   6.875  0.2073  0.5708 -0.1909
 7566SOL    HW129741   3.381   1.156   6.828  0.5895 -1.3444 -1.1366
 7566SOL    HW229742   3.317   1.121   6.973  1.5379  0.0433 -0.3722
 7568SOL     OW29743   8.011   4.966   0.422  0.4645  0.4817  0.1923
 7568SOL    HW129744   7.939   4.945   0.489  0.1219  1.6151  0.1916
 7568SOL    HW229745   7.974   4.959   0.330  0.5609  0.3140  0.1663
 7569SOL     OW29746   8.542   1.972   4.439  0.2911  0.3741 -0.1044
 7569SOL    HW129747   8.619   1.998   4.381  1.3008 -0.5325  0.8184
 7569SOL    HW229748   8.459   2.017   4.406  1.0267  0.6032 -1.6894
 7570SOL     OW29749   0.385   8.083   6.575  0.2406 -0.0610  0.2149
 7570SOL    HW129750   0.462   8.088   6.511  0.9137 -0.2515  0.9867
 7570SOL    HW229751   0.391   7.997   6.626 -0.3553  0.0358  0.4453
 7573SOL     OW29752   6.207   9.162   5.467 -0.3043  0.2215 -0.5153
 7573SOL    HW129753   6.168   9.254   5.462 -0.0276  0.4222  0.9432
 7573SOL    HW229754   6.135   9.097   5.491 -0.6618 -0.0694 -2.3019
 7574SOL     OW29755   3.876   0.928   1.371 -0.0726 -0.1819  0.1735
 7574SOL    HW129756   3.838   0.845   1.332 -0.9235 -0.0645  0.7394
 7574SOL    HW229757   3.802   0.985   1.407  0.4475  1.1292 -0.8020
 7575SOL     OW29758   9.463   6.219   6.062  0.0732 -0.1316 -0.3289
 7575SOL    HW129759   9.479   6.298   6.001  1.9440  0.8180  1.3531
 7575SOL    HW229760   9.391   6.243   6.128 -1.4333 -0.9034 -1.6496
 7577SOL     OW29761   7.897   6.137   3.351 -0.4369 -0.4025  0.1611
 7577SOL    HW129762   7.936   6.152   3.442 -0.5511 -0.9164  0.2927
 7577SOL    HW229763   7.873   6.041   3.339 -2.5354  0.0646  0.4160
 7578SOL     OW29764   1.272   9.643   7.334 -0.0561 -0.6818 -0.0098
 7578SOL    HW129765   1.337   9.690   7.394  0.9286 -1.4559 -0.4510
 7578SOL    HW229766   1.321   9.606   7.256 -1.4392  0.9713 -1.7042
 7579SOL     OW29767   6.764   1.498   2.327 -0.4130  0.1299 -0.0619
 7579SOL    HW129768   6.796   1.414   2.284 -2.2333 -0.4324 -0.3450
 7579SOL    HW229769   6.712   1.475   2.409 -0.2876  1.0237  0.2715
 7580SOL     OW29770   4.671   5.091   6.944 -0.5334  0.3140 -0.1389
 7580SOL    HW129771   4.632   5.000   6.929 -1.7971  0.5649  1.4870
 7580SOL    HW229772   4.599   5.159   6.942  0.3373  1.2343 -0.7931
 7582SOL     OW29773   8.191   9.146   7.545  0.3884  0.0738  0.6748
 7582SOL    HW129774   8.122   9.140   7.617  0.9526  0.2361  1.2270
 7582SOL    HW229775   8.207   9.242   7.522 -0.4972 -0.0175 -0.3527
 7583SOL     OW29776   5.792   8.106   6.954  0.0305 -0.1153 -0.5419
 7583SOL    HW129777   5.779   8.126   6.857  0.3997  1.2210 -0.3245
 7583SOL    HW229778   5.835   8.184   6.999  2.0455 -1.5917  0.2291
 7584SOL     OW29779   5.361   3.295   6.822  0.3100  0.1080 -0.0863
 7584SOL    HW129780   5.271   3.312   6.783  0.1689  0.8892  0.5738
 7584SOL    HW229781   5.376   3.355   6.901  2.0144  1.0738 -1.1209
 7587SOL     OW29782   1.657   9.684   3.191  0.8892 -0.2811  0.2655
 7587SOL    HW129783   1.717   9.714   3.117  0.5634  0.5653  0.3474
 7587SOL    HW229784   1.703   9.612   3.244  0.4855 -2.0602 -1.7356
 7588SOL     OW29785   5.356   9.629   2.393 -0.3665  0.3226  0.1003
 7588SOL    HW129786   5.424   9.655   2.462  1.1529 -1.4948 -0.6571
 7588SOL    HW229787   5.305   9.549   2.426  1.4787 -1.5623 -1.5341
 7589SOL     OW29788   8.315   1.601   3.902  0.7664  0.1952  0.1313
 7589SOL    HW129789   8.356   1.558   3.822  1.3656 -1.0508  1.0997
 7589SOL    HW229790   8.222   1.567   3.914 -0.1460  2.0330 -1.2891
 7590SOL     OW29791   2.269   2.716   5.193  0.3715  0.2531  0.2400
 7590SOL    HW129792   2.345   2.765   5.235  0.4563  1.2270 -1.0260
 7590SOL    HW229793   2.221   2.777   5.130 -0.7742 -0.6878  0.1895
 7594SOL     OW29794   5.394   2.797   5.592  0.0431 -0.4839  0.4497
 7594SOL    HW129795   5.448   2.713   5.584  0.8487  0.0539  0.1448
 7594SOL    HW229796   5.452   2.875   5.571 -0.4267  0.2350  1.7709
 7595SOL     OW29797   4.583   9.579   3.309 -0.2221 -0.1154 -0.6159
 7595SOL    HW129798   4.643   9.657   3.292 -0.6974  0.0977 -1.3198
 7595SOL    HW229799   4.496   9.593   3.263 -0.8710 -0.3622  0.5223
 7597SOL     OW29800   0.705   3.847   1.305  0.1428 -0.1459  0.0022
 7597SOL    HW129801   0.720   3.928   1.249  0.1603 -0.5528 -0.5798
 7597SOL    HW229802   0.791   3.821   1.350  0.5665 -0.9202 -1.2500
 7598SOL     OW29803   8.755   9.744   5.160  0.4803  0.2552 -0.7793
 7598SOL    HW129804   8.739   9.649   5.133  1.2274 -0.2834  0.6035
 7598SOL    HW229805   8.847   9.753   5.199 -0.2642  1.1528  0.8132
 7600SOL     OW29806   5.703   1.072   2.249  0.3233 -0.1570 -0.1418
 7600SOL    HW129807   5.801   1.061   2.263  0.1602  0.3228  1.4232
 7600SOL    HW229808   5.655   0.990   2.280  0.1700 -0.1740 -0.4142
 7603SOL     OW29809   9.315   8.835   0.458  0.1065  0.2608  0.2801
 7603SOL    HW129810   9.412   8.835   0.436 -0.0597  1.0994 -0.4812
 7603SOL    HW229811   9.301   8.877   0.548  0.4125  0.5247  0.2042
 7604SOL     OW29812   9.346   4.780   0.426  0.0123  0.4484  0.0986
 7604SOL    HW129813   9.405   4.827   0.360  0.4755 -1.0550 -0.5692
 7604SOL    HW229814   9.251   4.791   0.399  0.0136  2.1914  0.7336
 7605SOL     OW29815   0.433   7.630   0.240 -0.1875 -0.5693 -0.0936
 7605SOL    HW129816   0.445   7.705   0.305  2.1178  0.8033 -2.0405
 7605SOL    HW229817   0.361   7.653   0.175  0.1533 -0.2900 -0.3690
 7606SOL     OW29818   3.380   4.951   1.959  0.0841 -0.3892  0.0595
 7606SOL    HW129819   3.415   4.903   1.878  2.2768  0.9725  0.1617
 7606SOL    HW229820   3.357   5.045   1.934 -1.7399 -0.7354  0.4318
 7607SOL     OW29821   0.111   7.886   2.242 -0.0295 -0.5926 -0.1832
 7607SOL    HW129822   0.209   7.892   2.262  0.1729 -2.2591 -0.6186
 7607SOL    HW229823   0.097   7.876   2.144 -0.6277 -0.4671 -0.1119
 7608SOL     OW29824   6.708   1.515   4.791 -0.4115  0.4363 -0.0088
 7608SOL    HW129825   6.623   1.533   4.742 -0.3588  0.7738  0.0211
 7608SOL    HW229826   6.785   1.522   4.727 -0.4369 -0.1768 -0.1010
 7610SOL     OW29827   0.547   7.191   4.071 -0.2872  0.5757 -0.1855
 7610SOL    HW129828   0.563   7.130   3.993 -0.1353 -1.4078  1.3415
 7610SOL    HW229829   0.455   7.231   4.064 -1.3478 -1.7354 -0.0026
 7611SOL     OW29830   3.530   7.905   7.744  0.5863  0.2211 -0.3710
 7611SOL    HW129831   3.533   7.831   7.678 -0.0440 -1.0224  0.9687
 7611SOL    HW229832   3.609   7.899   7.806  0.8201  0.9854 -0.5820
 7612SOL     OW29833   9.894   7.487   2.826  0.2185  0.3974 -0.0833
 7612SOL    HW129834   9.853   7.575   2.800 -0.0568  0.4099  0.3968
 7612SOL    HW229835   9.936   7.495   2.916  0.1678  0.0245 -0.0264
 7613SOL     OW29836   7.678   6.236   0.417 -0.0928  0.1203 -0.1713
 7613SOL    HW129837   7.675   6.163   0.486  0.1255  0.3094  0.0376
 7613SOL    HW229838   7.632   6.317   0.453 -0.1173  0.1653 -0.3069
 7615SOL     OW29839   4.499   3.934   1.315  0.5045 -0.0614  1.3142
 7615SOL    HW129840   4.459   3.908   1.227 -1.1977  2.1410  1.3829
 7615SOL    HW229841   4.587   3.888   1.327  0.7253 -0.4636 -1.4845
 7616SOL     OW29842   3.110   2.851   5.899  0.1281 -0.6065  0.1674
 7616SOL    HW129843   3.171   2.801   5.961  0.9341  1.1429  0.7999
 7616SOL    HW229844   3.093   2.942   5.935 -2.2242 -0.7843 -0.4340
 7618SOL     OW29845   9.861   3.800   7.511  0.5836  0.4838 -0.1288
 7618SOL    HW129846   9.948   3.808   7.560  0.5562  0.3215 -0.0529
 7618SOL    HW229847   9.789   3.770   7.574  0.0181  2.5979  0.2684
 7619SOL     OW29848   5.607   4.696   0.028 -0.3188 -0.0241  0.1779
 7619SOL    HW129849   5.611   4.598   0.046 -0.3880 -0.0594  0.0028
 7619SOL    HW229850   5.616   4.713  -0.070  1.5289  0.2586  0.3821
 7620SOL     OW29851   7.535   6.993   3.330  0.0370 -0.0811  0.4489
 7620SOL    HW129852   7.501   6.907   3.367 -1.4890 -0.3257 -1.4623
 7620SOL    HW229853   7.612   6.974   3.269  0.3276  0.0145  0.7809
 7621SOL     OW29854   7.189   0.878   7.256  0.0679  0.2611  0.3076
 7621SOL    HW129855   7.214   0.964   7.212 -0.9219  1.0816  1.3095
 7621SOL    HW229856   7.261   0.852   7.321  1.1364 -0.5257 -1.1639
 7622SOL     OW29857   7.611   9.970   5.781  0.1525 -0.1602  0.0900
 7622SOL    HW129858   7.604  10.045   5.716  0.6645 -1.0075 -0.9571
 7622SOL    HW229859   7.688   9.986   5.843  2.4385 -1.4766 -2.3344
 7623SOL     OW29860   5.538   6.940   2.314 -0.5590  0.0904 -0.1348
 7623SOL    HW129861   5.512   6.852   2.274  0.1759  0.0269 -0.5001
 7623SOL    HW229862   5.575   6.926   2.406 -0.8338  0.0630 -0.0293
 7624SOL     OW29863   8.028   6.632   4.216 -0.6529 -0.5069  0.1634
 7624SOL    HW129864   8.118   6.675   4.205 -0.8221  0.0189  0.8031
 7624SOL    HW229865   7.983   6.626   4.127 -0.2543 -0.1818 -0.0648
 7625SOL     OW29866   4.854   2.079   1.893 -0.6466 -0.4634  0.5517
 7625SOL    HW129867   4.952   2.094   1.874  0.2021 -2.9781  2.6998
 7625SOL    HW229868   4.843   2.048   1.987 -3.7125  1.2792  0.8247
 7626SOL     OW29869   9.887   9.195   3.719 -0.2800  0.0891 -0.0067
 7626SOL    HW129870   9.906   9.217   3.815 -1.1837  1.2550 -0.1017
 7626SOL    HW229871   9.974   9.174   3.673  0.2706  0.5591  0.7933
 7628SOL     OW29872   3.459   8.005   6.294 -0.4345 -0.5737  0.3192
 7628SOL    HW129873   3.549   7.980   6.259 -0.9289 -1.0159 -0.6731
 7628SOL    HW229874   3.469   8.066   6.372  0.7127  0.0643 -0.3141
 7629SOL     OW29875   3.748   5.997   4.562  0.1020 -0.8644 -0.2337
 7629SOL    HW129876   3.844   6.003   4.589 -0.3667 -0.6948  1.4463
 7629SOL    HW229877   3.701   6.083   4.584 -0.6169 -1.2179 -0.3618
 7630SOL     OW29878   0.814   0.644   3.462  0.0416  0.2564 -0.0391
 7630SOL    HW129879   0.797   0.545   3.462  2.2874 -0.1488  1.2230
 7630SOL    HW229880   0.880   0.667   3.391  0.5804  0.6472  0.5836
 7632SOL     OW29881   1.204   9.162   3.741 -0.0037 -0.2557  0.4636
 7632SOL    HW129882   1.173   9.181   3.648  0.9463  1.0083  0.3931
 7632SOL    HW229883   1.249   9.072   3.744 -1.1956 -0.8739 -0.0077
 7633SOL     OW29884   1.253   7.083   6.735  0.6789  0.5767 -0.3375
 7633SOL    HW129885   1.225   7.097   6.830  1.6040 -1.4515  0.2543
 7633SOL    HW229886   1.327   7.147   6.713  0.7225  0.7989  0.4332
 7634SOL     OW29887   0.917   5.202   6.449  0.3143  0.0798  0.0547
 7634SOL    HW129888   1.012   5.197   6.417 -0.2767 -2.1260 -1.4465
 7634SOL    HW229889   0.856   5.209   6.371 -0.8660  0.0564  0.9603
 7637SOL     OW29890   8.732   1.743   5.772 -0.0962 -0.1763  0.0751
 7637SOL    HW129891   8.741   1.837   5.738 -0.0871 -0.3054 -0.2913
 7637SOL    HW229892   8.638   1.727   5.801  0.7713  1.1364  3.7828
 7638SOL     OW29893   2.805   6.502   5.710  0.1567 -0.0708  1.1880
 7638SOL    HW129894   2.807   6.427   5.643 -1.3409  0.5904  0.3812
 7638SOL    HW229895   2.896   6.545   5.714  0.8822 -1.5770  1.2647
 7640SOL     OW29896   8.452   4.077   3.414  0.0620 -0.5110 -0.2529
 7640SOL    HW129897   8.550   4.093   3.404  0.6700 -3.6491  0.3801
 7640SOL    HW229898   8.410   4.068   3.324  0.5870 -0.5565 -0.4928
 7642SOL     OW29899   3.119   7.546   4.662  0.6242 -0.5232  0.2822
 7642SOL    HW129900   3.192   7.503   4.715  0.6054  1.4007  1.9143
 7642SOL    HW229901   3.114   7.643   4.683  0.2561  0.2161 -2.8820
 7643SOL     OW29902   1.560   1.154   3.608  0.7471 -0.0800  0.3729
 7643SOL    HW129903   1.510   1.079   3.563 -0.1911  0.3735  0.6513
 7643SOL    HW229904   1.658   1.136   3.601  0.5935 -0.5242 -0.9912
 7644SOL     OW29905   3.953   0.530   6.879 -0.0682 -0.4411 -0.7174
 7644SOL    HW129906   4.031   0.510   6.939  0.1101 -0.7532 -1.0475
 7644SOL    HW229907   3.873   0.480   6.911  0.0199 -0.5857 -0.7211
 7645SOL     OW29908   5.518   7.360   4.141 -0.7181 -0.3539  0.3667
 7645SOL    HW129909   5.579   7.354   4.220  0.4551  1.7243 -0.3706
 7645SOL    HW229910   5.424   7.339   4.170 -0.0233 -1.3612  1.9355
 7646SOL     OW29911   9.733   1.257   3.482 -0.2411 -0.1206  0.7092
 7646SOL    HW129912   9.814   1.290   3.434 -0.5970 -0.0359  0.1639
 7646SOL    HW229913   9.652   1.303   3.446 -0.7764 -1.7934 -0.2494
 7648SOL     OW29914   0.922   5.062   3.035 -0.5488  0.0505 -0.1308
 7648SOL    HW129915   0.865   5.143   3.029  1.9414  1.8619 -0.1170
 7648SOL    HW229916   0.945   5.043   3.130  2.1576  1.7426 -0.4056
 7649SOL     OW29917   4.960   2.849   7.872  0.3170 -0.0894 -0.1315
 7649SOL    HW129918   4.975   2.871   7.968 -0.6091  1.5162 -0.3345
 7649SOL    HW229919   4.863   2.863   7.849  0.3910 -1.1433 -1.1196
 7651SOL     OW29920   9.373   2.963   2.452 -0.4585 -0.4066 -0.4991
 7651SOL    HW129921   9.281   2.963   2.412 -0.6059 -1.8931 -0.1890
 7651SOL    HW229922   9.385   2.881   2.507  1.2407 -0.4873 -0.9729
 7652SOL     OW29923   3.171   7.666   3.590  0.3865  0.6746  0.1548
 7652SOL    HW129924   3.267   7.690   3.602  0.8518 -0.6984 -0.7501
 7652SOL    HW229925   3.119   7.747   3.564  0.7401  2.1065  3.5867
 7653SOL     OW29926   0.172   0.900   7.383 -0.7819 -0.5758  0.0016
 7653SOL    HW129927   0.149   0.803   7.376 -1.6493 -0.5258  1.8472
 7653SOL    HW229928   0.131   0.949   7.306 -2.5883 -1.2860  0.4744
 7654SOL     OW29929   2.821   3.682   0.281 -0.3092 -0.0127 -0.2168
 7654SOL    HW129930   2.822   3.643   0.189 -0.1448  0.8183 -0.5760
 7654SOL    HW229931   2.735   3.732   0.295 -1.0263 -1.4614  0.6554
 7656SOL     OW29932   6.777   5.205   7.465  0.5484 -0.1344 -0.5238
 7656SOL    HW129933   6.698   5.156   7.428  0.2781 -0.0845 -0.0266
 7656SOL    HW229934   6.750   5.299   7.487  1.0407  0.2080 -1.3824
 7657SOL     OW29935   7.850   6.585   2.799  0.3958 -0.3502 -0.3170
 7657SOL    HW129936   7.764   6.557   2.757  0.7061 -1.0149 -0.5062
 7657SOL    HW229937   7.926   6.565   2.738  0.6090  1.0898 -0.5424
 7658SOL     OW29938   5.461   8.128   6.762 -0.1783 -0.1656  0.3396
 7658SOL    HW129939   5.509   8.095   6.680 -0.0672  0.5874  0.1019
 7658SOL    HW229940   5.365   8.142   6.741  0.2141  1.8785 -0.2017
 7659SOL     OW29941   5.420   2.521   1.844 -0.6237 -0.5090 -0.6506
 7659SOL    HW129942   5.326   2.523   1.810 -1.0212  0.6495  0.5020
 7659SOL    HW229943   5.471   2.451   1.794 -2.1906 -1.4109 -1.0394
 7660SOL     OW29944   9.455   5.891   4.814 -0.4652  0.0015  0.0155
 7660SOL    HW129945   9.520   5.839   4.759 -1.1275  0.9370 -1.6784
 7660SOL    HW229946   9.448   5.849   4.905  1.3112 -1.0243 -0.2950
 7661SOL     OW29947   6.381   0.282   3.445  0.7707  0.0452  0.2503
 7661SOL    HW129948   6.443   0.206   3.465 -1.5865 -1.9639  0.2378
 7661SOL    HW229949   6.384   0.349   3.520  2.6807 -0.1770  0.3881
 7662SOL     OW29950   2.042   0.620   4.269 -0.1393  0.4308  0.1327
 7662SOL    HW129951   2.097   0.555   4.322 -0.2648  1.8564  2.0780
 7662SOL    HW229952   2.101   0.665   4.202  1.2413  2.2001  2.4335
 7664SOL     OW29953   0.467   4.728   6.195 -0.6306 -0.8561  0.2365
 7664SOL    HW129954   0.378   4.773   6.198 -0.4151 -0.5137  1.7754
 7664SOL    HW229955   0.522   4.757   6.273  1.3276 -0.0799 -1.3999
 7665SOL     OW29956   4.089   6.908   4.331  0.2937  0.6147 -0.2217
 7665SOL    HW129957   4.092   6.877   4.426 -2.5319  1.0123  0.0616
 7665SOL    HW229958   4.139   6.844   4.273  2.3208  0.5509  1.5641
 7667SOL     OW29959   8.783   6.654   5.114  0.4290  0.0457  0.1621
 7667SOL    HW129960   8.719   6.702   5.054 -1.1474 -1.0834  0.9101
 7667SOL    HW229961   8.734   6.618   5.193  2.2420  0.2876  1.4126
 7669SOL     OW29962   0.022   6.709   0.524  0.6335  0.7501 -0.3230
 7669SOL    HW129963   0.057   6.801   0.538  2.3759  0.0191  0.2323
 7669SOL    HW229964   0.007   6.693   0.426  1.1805  1.2992 -0.4979
 7670SOL     OW29965   8.422   3.688   6.513 -0.7238  0.6681  0.2916
 7670SOL    HW129966   8.427   3.711   6.610  0.3153  1.6353  0.0082
 7670SOL    HW229967   8.503   3.721   6.466 -0.8485 -0.5044 -0.7728
 7671SOL     OW29968   6.951   5.832   0.559 -0.5144  0.7234  0.0546
 7671SOL    HW129969   7.037   5.848   0.511 -0.7672  0.6682 -0.4266
 7671SOL    HW229970   6.923   5.737   0.547 -0.3514  0.5944  0.6945
 7672SOL     OW29971   8.779   9.843   3.105 -0.7870 -0.0841  0.5590
 7672SOL    HW129972   8.734   9.874   3.022  2.4766 -0.0360 -1.2971
 7672SOL    HW229973   8.731   9.763   3.141 -2.3734  0.0143 -1.2520
 7675SOL     OW29974   0.660   3.493   7.527 -0.2762  0.3383  0.2205
 7675SOL    HW129975   0.672   3.449   7.616  1.1100  1.3253  0.5252
 7675SOL    HW229976   0.667   3.424   7.455 -3.1009 -0.7788  0.9122
 7676SOL     OW29977   0.029   0.482   6.601 -0.3153 -0.4605 -0.0921
 7676SOL    HW129978   0.121   0.461   6.569  0.3910 -1.8831  2.7172
 7676SOL    HW229979  -0.038   0.446   6.536  1.0632  1.0135 -2.4108
 7677SOL     OW29980   3.284   2.820   0.672 -0.2919  0.0352  0.2013
 7677SOL    HW129981   3.344   2.884   0.624  0.4571 -0.3416  0.6270
 7677SOL    HW229982   3.284   2.842   0.770  0.1587 -0.7689  0.3793
 7679SOL     OW29983   1.084   1.112   2.468  0.1432  0.0470 -0.5693
 7679SOL    HW129984   1.083   1.175   2.546 -1.1532 -0.2612 -0.3357
 7679SOL    HW229985   1.096   1.018   2.501 -0.2255 -0.0660 -0.7636
 7680SOL     OW29986   1.239   4.219   3.082 -0.2857 -0.2998 -0.5786
 7680SOL    HW129987   1.249   4.248   3.177  1.0529 -1.5722 -0.3107
 7680SOL    HW229988   1.179   4.283   3.033  0.9971  1.7630  0.4754
 7683SOL     OW29989   6.901   8.964   5.985  0.3508 -0.2938 -0.0497
 7683SOL    HW129990   6.991   9.004   6.003 -0.0805 -0.1244  1.8756
 7683SOL    HW229991   6.836   9.037   5.961  0.7341 -0.4203 -1.4857
 7684SOL     OW29992   2.856   3.888   5.249 -0.7226  0.0418 -0.3288
 7684SOL    HW129993   2.790   3.930   5.311  0.0711 -0.5686  0.9445
 7684SOL    HW229994   2.929   3.844   5.302  0.4432  0.2762 -1.7023
 7686SOL     OW29995   9.719   5.354   2.747 -0.5899  0.3572  0.8513
 7686SOL    HW129996   9.793   5.410   2.710 -1.8084  1.0834 -0.5491
 7686SOL    HW229997   9.756   5.288   2.812  1.1075  1.5697  1.1501
 7687SOL     OW29998   8.340   4.317   5.832 -0.2010 -0.1992 -0.2047
 7687SOL    HW129999   8.290   4.281   5.754  0.2551 -0.0058 -0.5902
 7687SOL    HW230000   8.385   4.403   5.806  1.3131 -0.9725 -0.2226
 7688SOL     OW30001   1.262   8.416   1.358 -0.3124  0.6951 -0.6329
 7688SOL    HW130002   1.175   8.405   1.310  0.8573  0.7939 -2.8652
 7688SOL    HW230003   1.315   8.488   1.314  1.6762 -0.6487 -0.4810
 7689SOL     OW30004   0.895   3.624   0.859  0.3839  0.0932  0.0393
 7689SOL    HW130005   0.868   3.558   0.929 -1.3769  0.5034 -0.2352
 7689SOL    HW230006   0.914   3.712   0.902  1.2325 -0.1799  0.2265
 7690SOL     OW30007   6.091   0.008   3.613  0.5537  0.0332 -0.0683
 7690SOL    HW130008   6.012   0.042   3.663  1.1990 -0.0717  1.0260
 7690SOL    HW230009   6.072   0.012   3.515 -1.7314 -2.2492  0.2420
 7691SOL     OW30010   0.633   9.601   7.609 -0.0800  0.5857  1.0134
 7691SOL    HW130011   0.717   9.572   7.563 -1.1202 -0.8203 -0.0601
 7691SOL    HW230012   0.645   9.694   7.644  1.8244  0.5079  0.6394
 7692SOL     OW30013   6.391   2.425   3.044 -0.9083  0.0481 -0.0286
 7692SOL    HW130014   6.315   2.475   3.004 -0.9752  0.5416  0.7061
 7692SOL    HW230015   6.477   2.457   3.004 -1.0449 -0.0912 -0.4284
 7693SOL     OW30016   3.679   4.537   7.433  0.1721  0.2977  0.1463
 7693SOL    HW130017   3.759   4.534   7.494  1.0641  0.4847 -0.9898
 7693SOL    HW230018   3.657   4.632   7.412 -1.0216  0.2763  1.3263
 7695SOL     OW30019   2.392   8.999   5.113 -0.1879 -0.3010  0.3008
 7695SOL    HW130020   2.416   9.060   5.038  0.5210  1.2066  1.7040
 7695SOL    HW230021   2.315   8.942   5.087  0.6441 -0.4730 -1.8990
 7696SOL     OW30022   2.731   3.206   7.095 -0.0755  0.1716 -0.0537
 7696SOL    HW130023   2.698   3.138   7.160  0.6723 -1.0093 -0.8716
 7696SOL    HW230024   2.786   3.274   7.143 -1.4915  0.6643  0.8971
 7698SOL     OW30025   1.169   0.819   6.399  0.3766  0.0117  0.2641
 7698SOL    HW130026   1.095   0.811   6.332 -0.2916  0.2681  0.9678
 7698SOL    HW230027   1.211   0.909   6.393 -0.1573  0.2864  0.6854
 7699SOL     OW30028   3.164   7.343   1.936 -0.5697  0.2624 -0.0099
 7699SOL    HW130029   3.199   7.255   1.967  1.1744  0.1490 -2.1509
 7699SOL    HW230030   3.228   7.415   1.963  0.2089  0.3336 -1.9722
 7701SOL     OW30031   6.040   5.067   0.859 -0.1305 -0.2950  0.2994
 7701SOL    HW130032   6.095   5.143   0.894  0.4361 -0.7278  0.3710
 7701SOL    HW230033   5.943   5.092   0.860 -0.1455 -0.3301  2.3034
 7703SOL     OW30034   6.149   9.350   2.782 -0.0916  0.3227 -0.2526
 7703SOL    HW130035   6.230   9.369   2.726  0.5216 -1.0363  0.1720
 7703SOL    HW230036   6.113   9.436   2.818  1.7121  0.8522  0.3243
 7705SOL     OW30037   6.166   4.853   0.112  0.4623  0.5708 -0.0392
 7705SOL    HW130038   6.173   4.764   0.155 -0.5123 -0.0569 -1.1506
 7705SOL    HW230039   6.258   4.886   0.088  0.7706 -0.4252 -0.2308
 7706SOL     OW30040   1.460   2.889   3.479 -0.4698  0.4056  0.7380
 7706SOL    HW130041   1.391   2.929   3.539 -1.2938  0.0279  0.0486
 7706SOL    HW230042   1.461   2.939   3.392  0.3450  0.6066  0.8548
 7707SOL     OW30043   9.147   4.782   0.026 -0.2191 -0.2564  0.3547
 7707SOL    HW130044   9.208   4.703   0.026  0.0968 -0.0601 -2.5875
 7707SOL    HW230045   9.077   4.771  -0.044 -0.2443  1.9824 -0.0239
 7708SOL     OW30046   2.165   8.852   6.860  0.0576  0.3629 -0.0081
 7708SOL    HW130047   2.146   8.779   6.926  0.1214  0.1255 -0.2453
 7708SOL    HW230048   2.239   8.822   6.799 -0.3064  0.4005 -0.4672
 7709SOL     OW30049   0.773   5.268   0.939 -0.5047 -0.0315 -0.3570
 7709SOL    HW130050   0.814   5.212   1.011  0.2206  2.5515  1.2994
 7709SOL    HW230051   0.841   5.286   0.868  0.0558  0.9480  0.4234
 7710SOL     OW30052   7.503   2.265   4.334  0.1291 -0.1463  0.3779
 7710SOL    HW130053   7.432   2.310   4.279 -2.1516 -3.4905  0.4133
 7710SOL    HW230054   7.558   2.334   4.380 -1.3064  2.6244 -1.8830
 7711SOL     OW30055   3.595   9.980   0.619 -0.8499  0.3483  0.0957
 7711SOL    HW130056   3.514  10.038   0.629 -0.2130  1.0339  1.4697
 7711SOL    HW230057   3.586   9.901   0.679  0.9967  2.1850  2.9359
 7713SOL     OW30058   1.412   5.281   6.883  0.1838 -0.0837 -0.1934
 7713SOL    HW130059   1.401   5.261   6.786  2.1734 -1.9985 -0.0678
 7713SOL    HW230060   1.354   5.359   6.908 -2.7942 -1.5544 -2.1949
 7714SOL     OW30061   1.339   8.892   1.246 -0.3692 -0.1433 -0.4433
 7714SOL    HW130062   1.347   8.797   1.217  1.5014 -0.2599  0.4091
 7714SOL    HW230063   1.320   8.950   1.166  0.1929 -1.0245 -1.2241
 7715SOL     OW30064   2.255   1.482   4.729 -0.3642  0.0640 -0.0962
 7715SOL    HW130065   2.258   1.553   4.659  0.4080  1.4604  1.3219
 7715SOL    HW230066   2.348   1.463   4.762 -0.5805 -1.5001 -0.3472
 7716SOL     OW30067   0.870   5.414   5.080  0.8379  0.1872 -0.1175
 7716SOL    HW130068   0.867   5.359   5.164  0.3085 -1.4749 -1.1969
 7716SOL    HW230069   0.848   5.356   5.002  1.3173  1.7235 -1.4165
 7717SOL     OW30070   3.738   5.570   0.672 -0.6605 -0.6789  0.0151
 7717SOL    HW130071   3.781   5.517   0.745 -1.1215 -0.2516  0.6015
 7717SOL    HW230072   3.702   5.655   0.710 -0.5472 -0.2727 -0.7894
 7718SOL     OW30073   5.382   1.612   7.716 -0.3948 -0.6162  0.5510
 7718SOL    HW130074   5.386   1.541   7.786 -3.4247 -1.2385  0.1756
 7718SOL    HW230075   5.314   1.681   7.742 -0.8976 -0.3720 -1.3235
 7719SOL     OW30076   3.323   7.444   7.432  0.1297  0.0016  0.3446
 7719SOL    HW130077   3.233   7.478   7.404  0.0039  0.8488  1.7355
 7719SOL    HW230078   3.311   7.371   7.500  0.4824  0.2079  0.6314
 7721SOL     OW30079   6.538   3.947   0.151 -0.1768  0.4296 -0.0355
 7721SOL    HW130080   6.561   4.032   0.103  2.4912 -0.1855  0.1129
 7721SOL    HW230081   6.467   3.899   0.099  1.9933  0.2230 -2.9826
 7722SOL     OW30082   9.921   6.538   6.274 -0.1951  0.5137 -0.1098
 7722SOL    HW130083   9.837   6.581   6.240 -0.8601  0.4140  1.3448
 7722SOL    HW230084   9.897   6.465   6.338  0.9644 -1.0788 -1.4385
 7723SOL     OW30085   4.693   6.698   0.092  0.1675 -0.1151 -0.0860
 7723SOL    HW130086   4.727   6.772   0.035  1.1516 -1.5794 -1.4349
 7723SOL    HW230087   4.710   6.610   0.047 -0.4758 -1.2054  1.7366
 7725SOL     OW30088   0.558   6.685   0.934  0.7200  0.0737  0.6209
 7725SOL    HW130089   0.511   6.631   1.004  1.0840 -1.0192  0.0163
 7725SOL    HW230090   0.563   6.633   0.849  0.2941  1.3951 -0.2266
 7726SOL     OW30091   7.533   9.632   7.145  0.2967  0.1715 -0.1068
 7726SOL    HW130092   7.535   9.610   7.243  1.6047 -0.2930 -0.2370
 7726SOL    HW230093   7.542   9.549   7.092 -1.3208  0.3265 -0.6462
 7729SOL     OW30094   1.771   4.079   7.307 -0.0470 -0.5761 -0.5570
 7729SOL    HW130095   1.741   4.070   7.402 -1.0315 -1.1905 -0.9261
 7729SOL    HW230096   1.835   4.006   7.285  1.3699  0.4525  0.0837
 7731SOL     OW30097   1.556   0.700   7.259 -0.0427 -0.5389 -0.5829
 7731SOL    HW130098   1.644   0.693   7.211  0.1135  2.0810 -0.7838
 7731SOL    HW230099   1.482   0.698   7.192  0.0679  0.7462 -0.7736
 7732SOL     OW30100   0.953   5.949   2.168  0.0795 -0.1980 -0.0978
 7732SOL    HW130101   1.040   5.944   2.218 -0.3391 -1.4694  0.5155
 7732SOL    HW230102   0.889   6.007   2.218  0.4675  0.5083 -0.4049
 7733SOL     OW30103   1.706   7.707   2.397  0.8655  0.8375  0.2364
 7733SOL    HW130104   1.741   7.718   2.490  0.3898  0.3907  0.4667
 7733SOL    HW230105   1.769   7.649   2.344  1.0777  1.0012  0.3051
 7735SOL     OW30106   5.230   9.731   1.559  0.0906  0.5928 -0.1595
 7735SOL    HW130107   5.319   9.740   1.604  0.8633 -4.2636 -0.4788
 7735SOL    HW230108   5.157   9.738   1.628  0.8724  1.3157  0.6005
 7736SOL     OW30109   9.199   1.705   2.696  0.1533 -0.0722  0.0305
 7736SOL    HW130110   9.215   1.797   2.660 -0.7878  0.2920  0.5310
 7736SOL    HW230111   9.170   1.644   2.622  2.4261 -0.3991 -0.6289
 7737SOL     OW30112   7.900   1.131   6.550  0.2392 -0.6281  0.2377
 7737SOL    HW130113   7.976   1.070   6.526  0.7835  0.7220 -1.6751
 7737SOL    HW230114   7.936   1.217   6.586 -0.5240 -1.4210  3.0288
 7738SOL     OW30115   0.595   9.963   7.494 -0.0355 -0.0020 -0.2628
 7738SOL    HW130116   0.613   9.923   7.583  0.5135 -2.0105 -1.2362
 7738SOL    HW230117   0.676   9.953   7.436 -0.8188  0.0497 -1.4017
 7739SOL     OW30118   6.368   7.703   3.516 -0.4983 -0.1040  0.4146
 7739SOL    HW130119   6.331   7.639   3.448  0.6636 -1.6942  1.2431
 7739SOL    HW230120   6.448   7.662   3.560 -1.7603  0.5039  3.3863
 7740SOL     OW30121   0.794   3.038   3.208 -0.7336 -0.0226  0.0860
 7740SOL    HW130122   0.865   2.969   3.194  1.2758  1.8693  0.6154
 7740SOL    HW230123   0.760   3.033   3.302 -0.4103 -0.1285  0.1976
 7741SOL     OW30124   0.758   2.756   4.595 -0.3186 -0.2904 -0.5857
 7741SOL    HW130125   0.790   2.844   4.559 -1.6531 -0.7475 -3.0072
 7741SOL    HW230126   0.673   2.771   4.647 -2.0231 -0.4438 -3.2484
 7742SOL     OW30127   2.451   3.386   7.405  0.2322 -0.1244 -0.0724
 7742SOL    HW130128   2.515   3.311   7.386  0.1379 -0.8020  2.1507
 7742SOL    HW230129   2.396   3.404   7.323  0.1499 -2.6108 -0.6106
 7743SOL     OW30130   6.955   2.163   3.305  0.3722 -0.5029 -0.9966
 7743SOL    HW130131   7.020   2.197   3.374 -0.0912 -0.8542 -0.3805
 7743SOL    HW230132   6.893   2.097   3.347 -2.0829  1.7551 -0.9190
 7744SOL     OW30133   6.806   7.415   2.653 -0.2609 -0.8189  0.2418
 7744SOL    HW130134   6.810   7.318   2.677  0.6204 -0.2595  2.4927
 7744SOL    HW230135   6.850   7.430   2.565  0.1822 -2.3707  0.1843
 7747SOL     OW30136   1.166   8.833   3.304  0.1055 -0.0223 -0.2753
 7747SOL    HW130137   1.220   8.761   3.349  0.8324  0.6010 -0.1479
 7747SOL    HW230138   1.105   8.876   3.371  0.6255  0.3745 -0.0502
 7748SOL     OW30139   8.893   3.888   2.154  0.2549 -0.3087  0.0370
 7748SOL    HW130140   8.887   3.970   2.098 -1.8196 -0.5836 -0.1896
 7748SOL    HW230141   8.985   3.849   2.147 -0.0546 -0.5785 -3.5573
 7749SOL     OW30142   1.812   0.683   7.133 -0.1698  0.1437 -0.2428
 7749SOL    HW130143   1.885   0.722   7.189  0.9607  0.3350 -1.8179
 7749SOL    HW230144   1.848   0.604   7.082 -0.9878  0.3872 -1.2146
 7750SOL     OW30145   4.778   9.854   5.416 -0.6511 -0.6694 -0.6006
 7750SOL    HW130146   4.860   9.883   5.367  0.2572  0.7257  1.6956
 7750SOL    HW230147   4.790   9.761   5.450 -0.1832 -0.5971 -0.5747
 7751SOL     OW30148   8.924   6.182   0.233 -0.5932  0.2190  0.4465
 7751SOL    HW130149   8.845   6.126   0.258  0.0572 -0.3241  1.2917
 7751SOL    HW230150   9.008   6.135   0.260  0.0622  0.4068 -1.1924
 7753SOL     OW30151   3.759   0.377   4.086 -0.1411  0.0152  0.1495
 7753SOL    HW130152   3.827   0.446   4.060  1.3923 -0.3560  2.9573
 7753SOL    HW230153   3.759   0.303   4.019 -0.0727  1.5428 -1.5799
 7754SOL     OW30154   9.448   1.525   0.799  0.8100 -0.0245 -0.5821
 7754SOL    HW130155   9.452   1.451   0.867  1.3750 -0.7248 -1.3689
 7754SOL    HW230156   9.419   1.488   0.711 -0.4852  0.9818 -0.5916
 7755SOL     OW30157   5.424   0.713   6.515  0.1648 -0.1328  0.5768
 7755SOL    HW130158   5.477   0.689   6.597 -0.3741  1.8637  1.5549
 7755SOL    HW230159   5.382   0.803   6.528 -1.8033 -0.7835 -0.9990
 7756SOL     OW30160   9.365   9.460   6.702 -0.2654  0.6192  0.4311
 7756SOL    HW130161   9.444   9.521   6.690 -0.3569  1.1430  2.3199
 7756SOL    HW230162   9.284   9.503   6.662 -0.2308  1.5625  1.3316
 7757SOL     OW30163   2.243   8.977   7.722 -0.2211 -0.0687 -0.0880
 7757SOL    HW130164   2.299   9.046   7.677 -0.7841  0.2697 -0.2762
 7757SOL    HW230165   2.294   8.935   7.797  0.6756 -0.5308 -0.9447
 7758SOL     OW30166   3.789   2.375   2.549 -0.0113 -0.3077  0.5612
 7758SOL    HW130167   3.700   2.349   2.585 -0.0108 -0.1467  0.6806
 7758SOL    HW230168   3.827   2.449   2.605  0.8101 -1.3063  1.3333
 7759SOL     OW30169   2.501   4.095   6.307  0.3124 -0.1998 -0.2458
 7759SOL    HW130170   2.414   4.113   6.354  0.1077 -1.4681 -0.1228
 7759SOL    HW230171   2.561   4.174   6.318 -1.4096  1.3478 -1.6811
 7760SOL     OW30172   3.874   9.743   7.894 -0.4063 -0.0799 -0.2124
 7760SOL    HW130173   3.932   9.766   7.973 -0.4730 -0.2260 -0.1213
 7760SOL    HW230174   3.784   9.714   7.926 -0.8775  1.1577 -0.3970
 7761SOL     OW30175   0.151   5.442   6.219  0.3706 -0.2030 -0.2395
 7761SOL    HW130176   0.174   5.392   6.302  3.0223  0.5278 -0.5147
 7761SOL    HW230177   0.198   5.402   6.141  0.6585  1.2569 -0.8381
 7763SOL     OW30178   1.751   8.656   3.990 -0.5178 -0.1910 -0.3514
 7763SOL    HW130179   1.851   8.656   3.992 -0.5232 -0.1992 -0.1056
 7763SOL    HW230180   1.718   8.564   4.008 -0.6090  0.1678  1.4212
 7764SOL     OW30181   6.837   5.411  10.085  0.0098  0.3154  0.0239
 7764SOL    HW130182   6.800   5.319  10.072 -0.2803  0.5754 -1.0579
 7764SOL    HW230183   6.822   5.464  10.002  0.0191  1.3933  0.7065
 7765SOL     OW30184   0.623   7.870   4.500 -0.1720 -0.1880  0.3502
 7765SOL    HW130185   0.575   7.876   4.412 -0.7521 -1.5054  0.5644
 7765SOL    HW230186   0.572   7.921   4.569 -0.2699 -0.0241  0.1584
 7768SOL     OW30187   4.863   5.056   0.178  0.4235 -0.4317 -0.4450
 7768SOL    HW130188   4.830   5.100   0.094  1.3240 -0.8131 -0.9999
 7768SOL    HW230189   4.877   5.125   0.249  3.2695  0.3954 -1.7687
 7769SOL     OW30190   9.986   9.479   7.904 -0.4436  0.4209 -0.0978
 7769SOL    HW130191   9.889   9.497   7.887 -0.0952  2.1287 -0.4257
 7769SOL    HW230192   9.999   9.455   8.000 -1.2756 -0.5159 -0.2090
 7770SOL     OW30193   4.090   7.892   0.637 -0.3974 -0.3804 -0.3029
 7770SOL    HW130194   4.121   7.881   0.543  1.5785  3.0227 -0.1529
 7770SOL    HW230195   4.166   7.873   0.700 -1.2625 -1.1253  0.5265
 7771SOL     OW30196   9.974   9.022   0.666 -0.6192  0.0453 -0.0670
 7771SOL    HW130197   9.972   9.029   0.567 -1.3619  0.7474 -0.0082
 7771SOL    HW230198  10.038   9.089   0.704  0.0866 -0.6049 -0.1025
 7772SOL     OW30199   8.242   0.859   2.745  0.1446 -0.1518 -0.3283
 7772SOL    HW130200   8.224   0.942   2.798 -0.1647  0.7789 -1.8675
 7772SOL    HW230201   8.341   0.846   2.737  0.1995 -0.4899  0.7323
 7774SOL     OW30202   8.790   7.312   6.331 -0.0070  0.6359 -0.0181
 7774SOL    HW130203   8.710   7.316   6.391  0.5370 -0.2054  0.7785
 7774SOL    HW230204   8.833   7.402   6.327  1.1813  0.2510  2.5891
 7775SOL     OW30205   7.343   7.275   3.165  0.0586 -0.3264 -0.3242
 7775SOL    HW130206   7.414   7.307   3.228 -1.1852 -2.4814  2.2670
 7775SOL    HW230207   7.385   7.230   3.087  1.6443  2.6599 -1.2696
 7776SOL     OW30208   8.806   9.031   6.058  0.0585 -0.1464  0.1021
 7776SOL    HW130209   8.773   8.944   6.093  1.0163 -0.2433  0.7731
 7776SOL    HW230210   8.770   9.105   6.116 -1.5143 -0.0064 -1.0109
 7777SOL     OW30211   1.577   9.638   0.011  0.0365 -0.1983 -0.1496
 7777SOL    HW130212   1.496   9.693   0.031  1.2083  0.9353  1.5926
 7777SOL    HW230213   1.628   9.679  -0.065  0.8363  1.0543  1.0591
 7778SOL     OW30214   4.156   7.636   2.423 -0.4241 -0.4595  0.2221
 7778SOL    HW130215   4.158   7.703   2.497  0.0111  0.3594 -0.5272
 7778SOL    HW230216   4.168   7.544   2.461 -0.6257 -0.0805  1.2068
 7779SOL     OW30217   7.918   0.283   3.026  0.0266 -0.4902  0.1614
 7779SOL    HW130218   7.901   0.301   2.929 -1.4027 -0.5758  0.3955
 7779SOL    HW230219   7.949   0.367   3.070  0.1567 -0.3184 -0.2558
 7780SOL     OW30220   4.640   8.922   6.766  0.0054  0.4807 -0.0707
 7780SOL    HW130221   4.550   8.959   6.789 -0.4694 -0.8279  0.2084
 7780SOL    HW230222   4.652   8.922   6.666 -0.6682 -0.1766 -0.1538
 7781SOL     OW30223   8.309   6.140   7.311 -0.5039  0.0063 -0.3768
 7781SOL    HW130224   8.241   6.213   7.307 -1.1837 -0.5713  0.5078
 7781SOL    HW230225   8.279   6.069   7.374  0.7503 -0.4351 -0.2523
 7782SOL     OW30226   5.542   9.175   7.878  0.9311  0.2099 -0.1456
 7782SOL    HW130227   5.475   9.220   7.820  1.0832 -1.5762 -1.7472
 7782SOL    HW230228   5.499   9.096   7.923  0.9696  1.2411  1.7386
 7784SOL     OW30229   5.729   9.338   4.123  0.4609 -0.3277  0.7265
 7784SOL    HW130230   5.804   9.281   4.090  0.7535 -0.9243  2.3572
 7784SOL    HW230231   5.644   9.285   4.123 -0.5482  1.0942 -3.5345
 7785SOL     OW30232   0.091   3.961   0.900 -0.4108 -0.0298 -0.1883
 7785SOL    HW130233   0.149   4.000   0.971 -1.0439  0.8278 -0.1182
 7785SOL    HW230234   0.000   3.942   0.938 -1.2155  1.8147 -1.0937
 7787SOL     OW30235   3.037   2.431   3.236  0.1077 -0.6226  0.5867
 7787SOL    HW130236   3.115   2.427   3.298  0.8287  2.4355 -0.0475
 7787SOL    HW230237   3.067   2.457   3.144 -1.5264 -0.2917  0.1132
 7789SOL     OW30238   2.570   7.936   1.833  0.1277  0.3872  0.0858
 7789SOL    HW130239   2.646   7.999   1.846  0.7648 -0.8609  2.6692
 7789SOL    HW230240   2.517   7.929   1.918  0.7065 -3.3530  0.2260
 7790SOL     OW30241   3.320   5.569   5.020  0.3318 -1.1239 -0.7213
 7790SOL    HW130242   3.394   5.533   5.077 -0.4504 -1.1073  0.3222
 7790SOL    HW230243   3.336   5.666   5.002  0.9401 -1.2935 -1.1167
 7791SOL     OW30244   8.071   3.865   0.940  1.0963 -0.2014  0.0244
 7791SOL    HW130245   8.133   3.940   0.963  0.0998  0.7269 -0.2640
 7791SOL    HW230246   7.995   3.864   1.005  2.1437 -2.2489  1.2830
 7793SOL     OW30247   0.018   6.835   5.875 -0.1352  0.3505 -0.2610
 7793SOL    HW130248  -0.011   6.749   5.918  2.4302 -0.8439 -0.8572
 7793SOL    HW230249   0.074   6.887   5.939 -0.5634  0.9732 -0.3845
 7794SOL     OW30250   9.931   6.438   1.524  0.0700 -0.1874  0.1402
 7794SOL    HW130251   9.873   6.515   1.549  1.4819  1.0138 -0.2452
 7794SOL    HW230252  10.020   6.447   1.569  1.6312  0.4899 -2.9522
 7797SOL     OW30253   6.785   0.775   4.744 -0.0715  0.0773  0.0837
 7797SOL    HW130254   6.807   0.773   4.646 -0.3404 -0.4739  0.0295
 7797SOL    HW230255   6.703   0.830   4.758  0.0802  0.3184  0.0195
 7798SOL     OW30256   8.766   1.235   2.442  0.2162 -0.5740 -0.2456
 7798SOL    HW130257   8.856   1.232   2.485  0.9956  0.6347 -1.7063
 7798SOL    HW230258   8.695   1.236   2.512  1.4674  2.4035  1.0801
 7799SOL     OW30259   3.926   7.899   4.224 -0.1975 -0.7157 -0.3843
 7799SOL    HW130260   3.967   7.978   4.269 -0.4159 -1.8070  1.7964
 7799SOL    HW230261   3.895   7.925   4.133 -1.0049  1.9333  0.5976
 7800SOL     OW30262   6.429   0.637   2.176 -0.2324  0.6081  0.8310
 7800SOL    HW130263   6.423   0.727   2.133  1.2845  0.5810  0.5092
 7800SOL    HW230264   6.341   0.590   2.169 -0.3247  1.0553 -1.2560
 7801SOL     OW30265   3.417   9.874   0.979  0.1415  0.3606  0.7861
 7801SOL    HW130266   3.443   9.823   0.897 -0.5362 -0.4782  1.0921
 7801SOL    HW230267   3.477   9.954   0.988 -0.0409  0.7011 -0.7527
 7802SOL     OW30268   8.320   7.279   2.132 -0.6178  0.4956 -0.3736
 7802SOL    HW130269   8.287   7.372   2.112 -2.3822  0.0966  0.5151
 7802SOL    HW230270   8.419   7.275   2.118 -0.8686  1.8243 -2.9122
 7803SOL     OW30271   8.910   7.819   4.123  0.0915 -0.4169  0.4811
 7803SOL    HW130272   8.940   7.733   4.081 -0.0434 -0.4418  0.4376
 7803SOL    HW230273   8.990   7.872   4.150  0.1862 -0.1155 -0.3719
 7804SOL     OW30274   2.033   8.774   3.552 -0.5639  0.4452 -0.4160
 7804SOL    HW130275   2.064   8.868   3.569  1.4385 -0.3719  0.5945
 7804SOL    HW230276   2.087   8.734   3.478 -1.2403 -0.0027 -0.6715
 7805SOL     OW30277   8.464   0.436   6.780 -0.3446  0.7795 -0.6523
 7805SOL    HW130278   8.556   0.415   6.745 -0.5048 -3.2300  1.0442
 7805SOL    HW230279   8.396   0.389   6.725 -1.2229  1.7180 -0.3729
 7807SOL     OW30280   3.984   6.874   3.012 -0.2953 -0.0925 -0.1972
 7807SOL    HW130281   3.948   6.924   3.091  1.2096  1.8661 -0.7369
 7807SOL    HW230282   3.908   6.833   2.962 -1.3813 -0.1495  1.4439
 7808SOL     OW30283   9.533   6.098   7.014  0.4173 -0.2739 -0.1932
 7808SOL    HW130284   9.462   6.030   7.027  0.6418 -0.5053 -0.1796
 7808SOL    HW230285   9.514   6.178   7.072 -0.6050  0.2717 -1.2599
 7809SOL     OW30286   4.376   8.475   2.712  0.1281 -0.0933  0.2420
 7809SOL    HW130287   4.309   8.530   2.662 -0.4056  0.6706  1.7886
 7809SOL    HW230288   4.468   8.500   2.682 -0.2659 -1.9531 -2.7173
 7812SOL     OW30289   9.919   2.626   5.439  0.2660 -0.0121 -0.5322
 7812SOL    HW130290   9.954   2.565   5.510  2.8360  0.7251 -1.1267
 7812SOL    HW230291   9.823   2.648   5.459  0.0891 -2.1032  1.1162
 7814SOL     OW30292   1.146   7.053   0.341  0.5530  0.0909 -0.3402
 7814SOL    HW130293   1.176   7.064   0.246  1.0290  0.6876 -0.1238
 7814SOL    HW230294   1.226   7.040   0.400  0.2706 -0.0648  0.0100
 7815SOL     OW30295   0.284   1.489   0.512  0.1547  0.2752 -0.2096
 7815SOL    HW130296   0.290   1.563   0.580 -1.1116  0.0015  0.2249
 7815SOL    HW230297   0.358   1.424   0.526  2.1188  2.2024 -1.4876
 7816SOL     OW30298   4.489   7.612   5.145 -0.0105 -0.2860 -0.1403
 7816SOL    HW130299   4.431   7.531   5.143 -1.0272  0.4660 -1.7345
 7816SOL    HW230300   4.574   7.591   5.192  0.1734 -2.5817 -1.4638
 7817SOL     OW30301   4.791   4.262   0.539  0.1208  0.0210 -0.1537
 7817SOL    HW130302   4.882   4.263   0.578 -0.0247  0.4835  0.1703
 7817SOL    HW230303   4.780   4.339   0.477 -0.2736  0.3486  0.3203
 7818SOL     OW30304   3.873   2.027   6.390  0.0377  0.2664 -0.1627
 7818SOL    HW130305   3.774   2.024   6.379  0.1629 -1.2464 -1.0264
 7818SOL    HW230306   3.911   1.937   6.370  1.5010  0.6043  1.0461
 7819SOL     OW30307   6.183   4.501   2.269 -0.0094  0.0899 -0.0110
 7819SOL    HW130308   6.273   4.521   2.309 -0.6641  0.2100  1.4328
 7819SOL    HW230309   6.194   4.437   2.193  1.7346  3.0170 -2.3522
 7820SOL     OW30310   9.460   7.237   6.201 -0.3516  0.1987 -0.0121
 7820SOL    HW130311   9.508   7.216   6.286 -1.5879  1.2577  0.9776
 7820SOL    HW230312   9.402   7.317   6.215  0.0465  0.8745 -2.1014
 7822SOL     OW30313   1.285   9.292   0.181  0.0189 -0.0940  0.1432
 7822SOL    HW130314   1.193   9.252   0.176  0.4287 -1.0284 -0.0449
 7822SOL    HW230315   1.338   9.247   0.253  0.6990 -0.3410 -0.5028
 7823SOL     OW30316   1.727   0.672   4.853 -0.0214  0.2893  0.4099
 7823SOL    HW130317   1.683   0.762   4.848  1.3378  0.9725  0.4443
 7823SOL    HW230318   1.826   0.683   4.845  0.2300 -1.1257  1.3225
 7824SOL     OW30319   0.201   9.833   6.618  0.0449 -0.1831  0.1296
 7824SOL    HW130320   0.229   9.756   6.675 -0.3340 -1.0160 -0.8091
 7824SOL    HW230321   0.203   9.807   6.522  0.4669  1.1497 -0.2460
 7825SOL     OW30322   0.087   3.624   7.506 -0.3180  0.4142  0.2027
 7825SOL    HW130323   0.077   3.545   7.567  1.7311  0.0599  0.1141
 7825SOL    HW230324   0.122   3.702   7.557 -0.3883  0.6697 -0.1351
 7826SOL     OW30325   3.808   8.842   0.282  0.4837  0.1230 -0.5471
 7826SOL    HW130326   3.718   8.865   0.246  1.0415 -0.2676 -2.2150
 7826SOL    HW230327   3.806   8.847   0.382 -0.8431  2.0686 -0.6488
 7827SOL     OW30328   1.959   8.171   6.364  0.0037  0.3996 -0.1156
 7827SOL    HW130329   2.005   8.248   6.409 -1.0800 -0.0232  1.7672
 7827SOL    HW230330   2.027   8.117   6.314  1.1251  1.3011  0.3930
 7828SOL     OW30331   4.753   5.547   2.774  0.0433  0.5437 -0.1961
 7828SOL    HW130332   4.749   5.584   2.681  0.0810  0.1780 -0.3422
 7828SOL    HW230333   4.719   5.616   2.839  0.1560  0.8522 -0.4629
 7829SOL     OW30334   9.699   5.386   5.548  0.0757 -0.1051 -0.5301
 7829SOL    HW130335   9.616   5.376   5.493  0.3968 -0.2568 -0.9888
 7829SOL    HW230336   9.673   5.398   5.644 -0.4481 -1.1712 -0.5280
 7830SOL     OW30337   8.071   0.374   4.934 -0.0376  0.1421 -0.1538
 7830SOL    HW130338   8.004   0.352   4.863  0.9806  0.1974 -1.1480
 7830SOL    HW230339   8.162   0.381   4.893  0.5001  0.6103  1.0887
 7831SOL     OW30340   3.844   1.738   5.300  0.1864  0.0215  0.3149
 7831SOL    HW130341   3.781   1.696   5.235  0.3511 -0.7717  0.6605
 7831SOL    HW230342   3.924   1.771   5.252  0.6757 -1.2868  0.2042
 7833SOL     OW30343   6.589   9.679   7.757 -0.1569  0.0896  0.2960
 7833SOL    HW130344   6.629   9.703   7.845  1.5742  0.8583 -0.6725
 7833SOL    HW230345   6.649   9.616   7.708  1.0239  2.9351 -2.0946
 7834SOL     OW30346   7.602   2.504   3.969 -0.0884 -0.3102  0.2756
 7834SOL    HW130347   7.567   2.593   3.999  0.9966 -0.0905  0.8875
 7834SOL    HW230348   7.525   2.447   3.940 -0.5681  1.8272 -2.8591
 7835SOL     OW30349   0.592   2.748   1.377 -0.0506  0.1344  0.0599
 7835SOL    HW130350   0.567   2.654   1.351  1.9741 -0.5780  0.5987
 7835SOL    HW230351   0.621   2.750   1.472  0.7553  1.1473 -0.1986
 7837SOL     OW30352   6.729   0.114   3.068  0.2810 -0.1504  0.0671
 7837SOL    HW130353   6.704   0.031   3.118 -0.0952  0.0444  0.1989
 7837SOL    HW230354   6.679   0.117   2.982  0.2591 -0.0309  0.0849
 7838SOL     OW30355   2.338   4.271   0.727  0.5155  0.2431  0.1316
 7838SOL    HW130356   2.422   4.322   0.750 -0.0606  2.4492 -2.3988
 7838SOL    HW230357   2.258   4.327   0.749 -0.1704 -0.0882 -1.4476
 7839SOL     OW30358   8.303   1.694   5.972 -0.3160  0.5686  0.2075
 7839SOL    HW130359   8.257   1.646   5.897 -0.2436 -0.4319  0.7938
 7839SOL    HW230360   8.349   1.776   5.936  0.8412 -0.6076 -1.0854
 7841SOL     OW30361   9.548   4.626   0.195 -0.3807 -0.0708  0.2823
 7841SOL    HW130362   9.451   4.618   0.173 -0.1495  0.1881 -0.8884
 7841SOL    HW230363   9.595   4.540   0.174  0.1622  0.7421 -2.0060
 7842SOL     OW30364   0.568   6.106   3.219  0.5364  0.0495 -0.1022
 7842SOL    HW130365   0.631   6.153   3.281  0.2623  1.6635 -1.0421
 7842SOL    HW230366   0.612   6.094   3.130 -0.0871  0.1878 -0.4281
 7843SOL     OW30367   3.439   1.517   3.966  0.0034 -0.2761  0.2031
 7843SOL    HW130368   3.407   1.518   3.871  2.4227 -1.2885 -0.6694
 7843SOL    HW230369   3.417   1.429   4.008  0.6779 -0.5785 -0.0664
 7844SOL     OW30370   3.687   1.493   7.262  0.2798  0.0861  0.1845
 7844SOL    HW130371   3.619   1.541   7.317  1.1548  0.5904  0.8332
 7844SOL    HW230372   3.748   1.559   7.219  0.0235 -0.3398 -0.8429
 7846SOL     OW30373   6.220   5.098   0.293  1.0166 -0.5271 -0.0894
 7846SOL    HW130374   6.308   5.060   0.267  0.3238 -2.7005  0.5597
 7846SOL    HW230375   6.148   5.056   0.238  0.2926  0.5353  0.0246
 7847SOL     OW30376   2.575   6.291   0.528  0.2072 -0.0062  0.3325
 7847SOL    HW130377   2.634   6.313   0.606  1.1373 -1.4755  0.0864
 7847SOL    HW230378   2.488   6.254   0.560  0.7182 -0.9195  0.6866
 7848SOL     OW30379   2.462   5.240   6.788  0.0043  0.2779  0.2712
 7848SOL    HW130380   2.548   5.208   6.749  0.2416 -0.4453  1.3755
 7848SOL    HW230381   2.406   5.281   6.716  0.7953 -0.2749 -0.6669
 7849SOL     OW30382   1.403   0.866   2.362 -0.0120  0.5281  0.0631
 7849SOL    HW130383   1.359   0.914   2.286  0.2669 -0.2010 -0.5743
 7849SOL    HW230384   1.371   0.771   2.365  1.3023  0.0538 -0.2612
 7850SOL     OW30385   8.434   1.636   0.708 -0.2675 -0.2695 -0.2913
 7850SOL    HW130386   8.361   1.658   0.643  1.4767  0.4389 -2.0672
 7850SOL    HW230387   8.505   1.705   0.702  0.7511 -1.1821  1.1029
 7851SOL     OW30388   2.744   6.943   2.081 -0.2897  0.1879 -0.2886
 7851SOL    HW130389   2.654   6.921   2.119 -1.7937  0.7504 -3.4137
 7851SOL    HW230390   2.780   6.865   2.031 -0.3990  0.9275 -1.5538
 7853SOL     OW30391   8.941   5.596   1.558  0.3915 -0.1456  0.3705
 7853SOL    HW130392   8.849   5.610   1.593  0.3786  1.5992 -0.3054
 7853SOL    HW230393   8.987   5.526   1.612 -1.6299 -1.7248  0.1272
 7855SOL     OW30394   0.131   0.062   4.771 -0.4532 -0.6328  0.3386
 7855SOL    HW130395   0.085   0.011   4.698 -1.2019  0.8933 -0.2794
 7855SOL    HW230396   0.066   0.079   4.845 -1.5117  3.1310 -1.3284
 7856SOL     OW30397   2.702   8.852   6.412 -0.2369  0.3716  0.1321
 7856SOL    HW130398   2.722   8.755   6.396  0.5650  0.4361  0.7308
 7856SOL    HW230399   2.767   8.908   6.362 -0.8157  0.6034 -0.3595
 7857SOL     OW30400   7.036   1.075   1.798  0.2199 -0.0487 -0.1409
 7857SOL    HW130401   7.107   1.004   1.799  0.4109  0.0524 -3.0227
 7857SOL    HW230402   7.078   1.165   1.814  0.4242 -0.2210  0.2982
 7858SOL     OW30403   2.164   6.220   2.253  0.0134  0.0720  0.6144
 7858SOL    HW130404   2.166   6.190   2.348  0.5899 -1.6660  0.0735
 7858SOL    HW230405   2.255   6.252   2.226 -0.7557  3.1565  1.4066
 7860SOL     OW30406   3.789   9.591   3.619  0.2513  0.0751  0.4601
 7860SOL    HW130407   3.733   9.660   3.574 -0.0278  0.4513  1.3695
 7860SOL    HW230408   3.874   9.633   3.651 -0.0999  0.1038  1.3813
 7861SOL     OW30409   9.973   4.238   2.108 -0.3979 -0.5972  0.0892
 7861SOL    HW130410   9.979   4.292   2.024 -0.5352  0.8220  0.9685
 7861SOL    HW230411   9.878   4.215   2.126 -0.5787  0.5780  0.7406
 7862SOL     OW30412   1.609   6.680   6.695  0.4529 -0.3323  0.1032
 7862SOL    HW130413   1.531   6.663   6.754  3.0958 -1.4793  3.4740
 7862SOL    HW230414   1.589   6.754   6.631 -2.4693  1.0543  2.5659
 7864SOL     OW30415   7.949   7.632   6.465  0.1605 -0.4827  0.2882
 7864SOL    HW130416   7.983   7.550   6.418 -1.8820 -1.4382  0.4544
 7864SOL    HW230417   7.887   7.682   6.404  0.8609  0.5819  0.4370
 7865SOL     OW30418   8.996   8.011   6.054  0.2064 -0.3846 -0.6940
 7865SOL    HW130419   9.071   8.067   6.088  0.4379  0.2827 -2.2456
 7865SOL    HW230420   9.027   7.917   6.043  0.1772 -0.5615  0.7499
 7866SOL     OW30421   3.683   5.693   0.376 -0.3685  0.1322  0.0941
 7866SOL    HW130422   3.597   5.731   0.410  0.5698  2.2681  0.1748
 7866SOL    HW230423   3.715   5.623   0.439 -0.2272  1.8919  2.0657
 7867SOL     OW30424   7.275   1.852   2.879 -0.1318  0.1293 -0.2267
 7867SOL    HW130425   7.213   1.927   2.902  0.7450  0.4809  1.0861
 7867SOL    HW230426   7.274   1.836   2.781 -0.4398  1.7600 -0.4990
 7868SOL     OW30427   2.080   0.086   4.990 -0.4267 -0.0323 -0.0561
 7868SOL    HW130428   2.088  -0.014   4.994  1.0015  0.0338 -0.9446
 7868SOL    HW230429   2.160   0.124   4.944 -1.1173  1.5095 -0.0137
 7869SOL     OW30430   0.009   3.249   2.398  0.1090  0.0690  0.3960
 7869SOL    HW130431   0.060   3.335   2.403 -1.7764  1.3353 -1.3470
 7869SOL    HW230432  -0.087   3.266   2.422 -0.4569 -1.3982 -0.7808
 7874SOL     OW30433   9.759   4.648   0.436  0.5454  0.5779  0.2484
 7874SOL    HW130434   9.681   4.648   0.499  0.2687  0.3065 -0.0864
 7874SOL    HW230435   9.738   4.704   0.356  0.1089 -0.6718 -0.5365
 7875SOL     OW30436   8.040   8.382   6.061  0.0462 -0.0585 -0.9436
 7875SOL    HW130437   8.059   8.412   5.967 -0.6262 -2.6570 -1.9350
 7875SOL    HW230438   8.116   8.327   6.095  0.2032  0.7169 -0.0154
 7876SOL     OW30439   8.526   4.828   4.504 -0.0835 -0.4758 -1.1341
 7876SOL    HW130440   8.514   4.737   4.462 -0.5097 -0.1363 -1.7605
 7876SOL    HW230441   8.523   4.898   4.432  2.5958 -0.1219 -0.9448
 7877SOL     OW30442   9.252   3.625   6.011 -0.1117  0.0876  0.1537
 7877SOL    HW130443   9.152   3.627   6.018 -0.3096 -0.8856 -2.0251
 7877SOL    HW230444   9.282   3.532   5.990  1.0741  0.7940 -1.4222
 7878SOL     OW30445   6.293   0.759   3.919 -0.2735 -0.1114  0.8281
 7878SOL    HW130446   6.206   0.713   3.939  0.1662 -0.6651  1.4645
 7878SOL    HW230447   6.368   0.693   3.925 -0.0640 -0.2745 -2.3290
 7879SOL     OW30448   2.729   0.776   5.070 -0.2168 -0.1074 -0.0371
 7879SOL    HW130449   2.749   0.694   5.123 -0.2101 -0.0902 -0.0126
 7879SOL    HW230450   2.712   0.853   5.133 -1.4574 -0.3711 -0.0297
 7880SOL     OW30451   3.451   7.348   1.704  0.0719 -0.4863 -0.3985
 7880SOL    HW130452   3.548   7.372   1.702 -0.4237  1.5118 -1.3136
 7880SOL    HW230453   3.399   7.415   1.651 -1.7113 -2.0287 -0.6369
 7881SOL     OW30454   6.461   1.761   3.687  0.1386  0.1208  0.0105
 7881SOL    HW130455   6.430   1.696   3.757  1.3888  0.9375  1.3642
 7881SOL    HW230456   6.390   1.772   3.618 -0.6231 -1.6841  0.4616
 7883SOL     OW30457   6.689   2.632   4.517 -0.2735  0.0612 -0.1219
 7883SOL    HW130458   6.750   2.554   4.529 -1.9849 -1.2002  0.4367
 7883SOL    HW230459   6.699   2.668   4.424  0.0476 -1.2108 -0.5826
 7884SOL     OW30460   0.404   0.333   3.560 -0.3396 -0.8289  0.5592
 7884SOL    HW130461   0.502   0.321   3.577  0.0337  1.5268  0.2497
 7884SOL    HW230462   0.354   0.260   3.604  1.6812 -3.1436 -0.8415
 7885SOL     OW30463   1.803   6.702   7.679  0.3831 -0.3459 -0.2339
 7885SOL    HW130464   1.864   6.665   7.750  0.0325  0.2898  0.4007
 7885SOL    HW230465   1.856   6.721   7.597  0.4007 -3.2825 -0.9700
 7886SOL     OW30466   4.598   5.452   1.826  0.1658 -0.0473 -0.8414
 7886SOL    HW130467   4.632   5.379   1.768 -0.0532 -0.0043 -1.0264
 7886SOL    HW230468   4.581   5.416   1.918  1.1121  0.0337 -0.6298
 7887SOL     OW30469   8.778   5.387   4.929 -0.4824  0.2616  0.3560
 7887SOL    HW130470   8.716   5.311   4.948 -0.8383  0.6026  0.5746
 7887SOL    HW230471   8.862   5.375   4.981 -0.9181  0.4981  1.1226
 7889SOL     OW30472   4.167   7.899   6.491 -0.0235 -0.1243 -0.0104
 7889SOL    HW130473   4.244   7.843   6.522 -0.2667 -0.9403 -0.8595
 7889SOL    HW230474   4.081   7.852   6.514 -0.3741  1.9359  3.1952
 7890SOL     OW30475   4.907   7.843   1.670 -0.0645  0.1554  0.2223
 7890SOL    HW130476   4.860   7.806   1.590  1.0516  0.1057 -0.4128
 7890SOL    HW230477   5.005   7.825   1.663  0.1246  0.7378  1.2751
 7891SOL     OW30478   8.093   7.009   3.243 -0.4804  0.0840 -0.2913
 7891SOL    HW130479   8.128   6.962   3.162  0.0552  0.9179 -0.5385
 7891SOL    HW230480   7.997   7.035   3.228 -0.2201  0.7142 -0.8620
 7892SOL     OW30481   2.327   7.927   4.735 -0.7782 -0.6078  0.4942
 7892SOL    HW130482   2.385   7.936   4.816  1.3596 -0.8477 -0.9790
 7892SOL    HW230483   2.273   7.842   4.742  0.2725 -1.2321  1.1107
 7893SOL     OW30484   6.196   9.480   6.511 -0.4459 -0.4110  0.2010
 7893SOL    HW130485   6.242   9.550   6.457 -2.2400  1.4700  1.0457
 7893SOL    HW230486   6.144   9.419   6.451 -0.5711  0.2492 -0.3585
 7894SOL     OW30487   8.593   1.872   3.472 -0.3762  0.8154  0.0167
 7894SOL    HW130488   8.613   1.887   3.375 -0.0813 -2.8168 -0.5429
 7894SOL    HW230489   8.497   1.846   3.483  0.4751 -2.4887  0.1848
 7895SOL     OW30490   0.165   5.846   2.362  0.1807 -0.1620 -0.7039
 7895SOL    HW130491   0.202   5.793   2.287 -0.1093 -0.7956 -0.4002
 7895SOL    HW230492   0.068   5.865   2.346  0.4015  0.6864 -1.0440
 7896SOL     OW30493   6.143   9.714   2.635 -0.1968  0.4250 -0.4756
 7896SOL    HW130494   6.240   9.696   2.617  0.0404  1.4838 -0.3046
 7896SOL    HW230495   6.102   9.758   2.555 -0.2038  1.1991 -0.0503
 7899SOL     OW30496   2.826   3.519   5.358  0.1826  0.1448  0.2075
 7899SOL    HW130497   2.895   3.570   5.306 -0.9458 -0.7448 -2.2350
 7899SOL    HW230498   2.872   3.452   5.417  1.4090 -2.0166 -3.0595
 7900SOL     OW30499   4.079   9.171   6.684  0.5244  0.3800 -0.9610
 7900SOL    HW130500   4.161   9.150   6.737 -0.5160  0.1659  0.6045
 7900SOL    HW230501   4.048   9.089   6.636 -1.4818 -0.8646  2.2896
 7901SOL     OW30502   0.484   1.082   3.018 -0.1191  0.7419  0.0843
 7901SOL    HW130503   0.538   1.007   3.056  0.3015  0.5403 -0.8946
 7901SOL    HW230504   0.525   1.169   3.047  0.9641  0.5933 -0.9249
 7902SOL     OW30505   2.926   4.936   6.518  0.0328  0.6019 -0.2859
 7902SOL    HW130506   2.924   4.908   6.614  1.1005  0.6430 -0.2394
 7902SOL    HW230507   2.866   4.877   6.464  0.0678  0.0449  0.2794
 7903SOL     OW30508   0.985   3.083   6.937  0.1356  0.2656  0.0464
 7903SOL    HW130509   1.032   3.155   6.885  0.2254  0.3250  0.2119
 7903SOL    HW230510   0.913   3.043   6.880 -0.2060  0.7864  0.1068
 7905SOL     OW30511   6.015   5.126   1.507 -0.7108 -0.3811  0.2342
 7905SOL    HW130512   6.008   5.201   1.441 -1.7692 -0.3024  0.4281
 7905SOL    HW230513   6.088   5.145   1.572  0.8698 -0.8161 -1.3724
 7906SOL     OW30514   2.495   3.506   4.061 -0.8505  0.1864 -0.4395
 7906SOL    HW130515   2.558   3.502   3.984  0.1204 -0.2975  0.3744
 7906SOL    HW230516   2.538   3.555   4.137 -1.7881  0.6366 -0.1962
 7907SOL     OW30517   8.566   8.232   0.181  0.4561 -0.0758  0.3594
 7907SOL    HW130518   8.571   8.296   0.258  1.1073  0.8409 -0.4304
 7907SOL    HW230519   8.562   8.138   0.216 -0.2385  0.3745  1.5293
 7909SOL     OW30520   3.078   6.757   5.899 -0.3588 -0.3951 -0.2112
 7909SOL    HW130521   3.124   6.834   5.853 -3.1145 -0.0998 -2.6359
 7909SOL    HW230522   3.099   6.673   5.850  0.8385 -0.8656  1.0996
 7910SOL     OW30523   9.659   3.925   4.696  0.2198 -0.1254 -0.0608
 7910SOL    HW130524   9.744   3.876   4.718 -0.2416 -0.5465  0.8164
 7910SOL    HW230525   9.620   3.963   4.780 -0.2762  0.3635 -0.5113
 7911SOL     OW30526   7.449   4.642   3.504 -0.2805  0.0472 -0.3452
 7911SOL    HW130527   7.390   4.698   3.446  0.4780  0.1449 -1.0299
 7911SOL    HW230528   7.500   4.578   3.448 -0.3913 -0.6471  0.3402
 7913SOL     OW30529   8.931   3.355   4.145  0.1914  0.0141  0.3536
 7913SOL    HW130530   8.919   3.301   4.062  1.5547  0.3733 -0.0865
 7913SOL    HW230531   8.973   3.298   4.216 -2.4608 -0.7723  1.3651
 7914SOL     OW30532   2.500   3.701   6.026  0.5044 -0.0407  0.2855
 7914SOL    HW130533   2.565   3.625   6.038  0.6935  0.1837  0.6672
 7914SOL    HW230534   2.478   3.741   6.115 -0.8982 -0.7307  0.2754
 7915SOL     OW30535   3.994   2.335   5.845 -0.1390 -0.2908 -0.0428
 7915SOL    HW130536   4.064   2.264   5.834  1.0349  1.1005 -2.0301
 7915SOL    HW230537   3.951   2.353   5.757 -1.0505  0.8234  0.6180
 7916SOL     OW30538   8.487   7.941   0.825  0.5552 -0.0988  0.2683
 7916SOL    HW130539   8.401   7.892   0.838  0.5573 -0.5374 -1.3374
 7916SOL    HW230540   8.478   8.007   0.751  1.2490  0.7162  0.8894
 7917SOL     OW30541   6.850   0.330   4.414 -0.6008 -0.2400  0.1781
 7917SOL    HW130542   6.927   0.267   4.412 -1.0852 -0.9156  2.0014
 7917SOL    HW230543   6.784   0.300   4.482 -0.8169  2.2468  1.1254
 7918SOL     OW30544   9.275   1.062   0.814 -0.3841 -0.2747  0.2682
 7918SOL    HW130545   9.309   1.007   0.738  0.0412 -0.3080  0.4779
 7918SOL    HW230546   9.252   1.154   0.782 -2.0352 -0.8655 -0.2848
 7919SOL     OW30547   7.550   8.462   5.474 -0.1288 -0.1416  0.0379
 7919SOL    HW130548   7.479   8.481   5.542  0.1709 -1.2845  0.6817
 7919SOL    HW230549   7.507   8.435   5.388 -0.5196  1.7020 -0.3735
 7920SOL     OW30550   8.947   7.052   1.820  0.4662  0.3805 -0.3702
 7920SOL    HW130551   8.875   7.044   1.750  0.2414  0.0798 -0.1037
 7920SOL    HW230552   9.036   7.058   1.775  0.0947  3.0862 -0.7816
 7921SOL     OW30553   7.258   9.471   5.889  0.2019 -0.5371  0.5635
 7921SOL    HW130554   7.190   9.406   5.857  0.7564 -0.4914 -0.7575
 7921SOL    HW230555   7.229   9.511   5.976 -2.0248  0.3482 -0.5537
 7922SOL     OW30556   3.127   7.213   6.564 -0.0552  0.7706 -0.3824
 7922SOL    HW130557   3.161   7.166   6.483  0.2158  0.1525  0.0903
 7922SOL    HW230558   3.070   7.151   6.617  2.2334  0.2233  1.4934
 7923SOL     OW30559   1.061   8.167   4.085  0.6865 -0.2837 -0.4870
 7923SOL    HW130560   0.980   8.125   4.127  0.2473  0.0254 -1.0156
 7923SOL    HW230561   1.117   8.096   4.042  1.3607 -0.6608  0.9660
 7926SOL     OW30562   0.925   6.418   7.561  0.3294 -0.3098 -0.3760
 7926SOL    HW130563   1.004   6.473   7.585  0.4864 -1.3321  1.5029
 7926SOL    HW230564   0.879   6.386   7.644 -1.1088 -1.0722 -1.4341
 7927SOL     OW30565   2.480   4.551   5.147  0.4917 -0.5310  0.1988
 7927SOL    HW130566   2.452   4.633   5.096  0.3496 -0.8502 -0.2382
 7927SOL    HW230567   2.557   4.574   5.206  0.9175 -0.2519 -0.4547
 7929SOL     OW30568   4.502   8.954   4.579  0.5912 -0.2417  0.3396
 7929SOL    HW130569   4.545   9.043   4.565 -1.6407  0.8664  0.3546
 7929SOL    HW230570   4.459   8.924   4.494  0.7055 -0.9726  0.5342
 7930SOL     OW30571   2.818   7.695   0.341  0.0444 -0.1514 -0.4737
 7930SOL    HW130572   2.749   7.710   0.271 -1.0537  0.0807  0.6519
 7930SOL    HW230573   2.808   7.763   0.413  1.6233  0.0547 -0.4248
 7931SOL     OW30574   1.127   2.593   7.873 -0.7239 -0.2545  0.1890
 7931SOL    HW130575   1.186   2.645   7.811 -0.5364 -0.1131  0.4834
 7931SOL    HW230576   1.170   2.587   7.963 -1.3799  0.2726  0.5450
 7932SOL     OW30577   6.257   0.147   6.682 -0.4556 -0.7000 -0.4298
 7932SOL    HW130578   6.318   0.216   6.644  0.3914 -1.6833 -0.8385
 7932SOL    HW230579   6.258   0.154   6.782  1.9265 -2.0760 -0.3299
 7933SOL     OW30580   1.362   7.061   7.896 -0.0297  0.7523  0.6165
 7933SOL    HW130581   1.265   7.079   7.882 -0.1155  0.7254  1.1744
 7933SOL    HW230582   1.374   6.994   7.969  0.4288  1.1689  0.9333
 7934SOL     OW30583   2.105   2.520   5.276  0.0057 -0.4680  0.2555
 7934SOL    HW130584   2.181   2.584   5.263 -0.1095 -0.6222 -1.2586
 7934SOL    HW230585   2.035   2.563   5.334  0.9503 -0.0814  1.1177
 7935SOL     OW30586   3.382   8.579   7.106  0.6761 -0.2126  0.0731
 7935SOL    HW130587   3.284   8.568   7.122  0.4358  1.6182 -0.0982
 7935SOL    HW230588   3.432   8.515   7.165 -0.5900 -0.6660  0.6799
 7936SOL     OW30589   4.855   2.861   4.933 -0.4944  0.1069 -0.4695
 7936SOL    HW130590   4.908   2.787   4.890 -0.4231 -0.6616  0.9006
 7936SOL    HW230591   4.882   2.949   4.895 -0.2984 -0.5413 -1.8467
 7937SOL     OW30592   4.639   4.440   6.655 -0.1395 -0.4223 -0.3248
 7937SOL    HW130593   4.643   4.524   6.601  1.3827 -0.9981 -1.1057
 7937SOL    HW230594   4.543   4.420   6.677 -0.4216  2.3586  1.2246
 7938SOL     OW30595   2.311   4.768   5.041  0.2794  0.1412  0.6438
 7938SOL    HW130596   2.308   4.701   4.967  2.6021 -0.7608  1.3260
 7938SOL    HW230597   2.339   4.857   5.005 -2.0619  0.5735 -0.1378
 7939SOL     OW30598   4.006   2.198   2.234 -0.4802 -0.0130 -0.0021
 7939SOL    HW130599   3.913   2.198   2.272 -1.0775 -0.9960 -1.3933
 7939SOL    HW230600   4.023   2.111   2.188  1.4646 -0.1757  1.0036
 7940SOL     OW30601   2.080   4.166   3.918 -0.3103 -0.3541  0.0897
 7940SOL    HW130602   2.011   4.195   3.852  0.0991  2.1711  0.6979
 7940SOL    HW230603   2.061   4.073   3.948 -2.0990 -0.5210 -1.5028
 7941SOL     OW30604   1.810   9.335   0.575  0.3524 -0.5248 -0.3449
 7941SOL    HW130605   1.883   9.360   0.637 -1.0204  2.2125  0.2547
 7941SOL    HW230606   1.773   9.418   0.532 -1.6086 -1.9471 -1.4866
 7942SOL     OW30607   2.370   3.653   7.808 -0.3948 -0.0237  0.2344
 7942SOL    HW130608   2.302   3.617   7.871  0.0516 -0.3787  0.5182
 7942SOL    HW230609   2.333   3.655   7.715 -0.4657 -1.0902  0.2335
 7943SOL     OW30610   9.447   5.580   6.174 -0.0890  0.3687  0.4097
 7943SOL    HW130611   9.469   5.489   6.138 -0.8139 -0.0656  1.0344
 7943SOL    HW230612   9.521   5.643   6.154 -0.3349  0.0742 -1.5878
 7944SOL     OW30613   9.620   3.488   7.155 -0.5015  0.3060  0.0136
 7944SOL    HW130614   9.699   3.533   7.196 -2.3494  2.3035  1.4884
 7944SOL    HW230615   9.616   3.511   7.058  1.3531 -0.7559 -0.3410
 7945SOL     OW30616   4.326   9.386   3.841 -0.4873  0.4718 -0.0120
 7945SOL    HW130617   4.362   9.363   3.931  0.1715 -0.0590 -0.4026
 7945SOL    HW230618   4.387   9.453   3.797 -0.6372  0.4989 -0.1793
 7946SOL     OW30619   0.871   9.904   1.738 -0.1614  0.0643 -0.2247
 7946SOL    HW130620   0.881   9.973   1.809  0.6821 -0.4343  0.1507
 7946SOL    HW230621   0.776   9.872   1.734  0.0182 -0.6796  1.3941
 7947SOL     OW30622   8.731   3.097   5.594 -0.4242 -0.5412 -0.3912
 7947SOL    HW130623   8.732   3.066   5.499  1.1976 -0.4179 -0.4223
 7947SOL    HW230624   8.677   3.032   5.648 -0.6190 -1.0994 -1.2331
 7948SOL     OW30625   2.702   3.735   1.755  0.2888 -0.4480  0.1597
 7948SOL    HW130626   2.614   3.716   1.800 -0.9834  1.4786 -1.4489
 7948SOL    HW230627   2.717   3.833   1.752  1.7518 -0.7012 -1.0208
 7949SOL     OW30628   9.151   6.590   0.830 -0.2142 -0.2746 -0.2293
 7949SOL    HW130629   9.208   6.535   0.769 -0.4876 -0.6544 -0.1418
 7949SOL    HW230630   9.063   6.545   0.844 -0.5722  0.3521 -0.4276
 7950SOL     OW30631   9.605   2.179   5.439  0.2584  0.5190 -0.0899
 7950SOL    HW130632   9.693   2.220   5.466  0.4479  0.7044 -0.9694
 7950SOL    HW230633   9.621   2.086   5.407  0.5165  1.4373 -2.7388
 7952SOL     OW30634   9.737   6.155   0.329 -0.2218 -0.5391 -0.5280
 7952SOL    HW130635   9.773   6.090   0.396 -0.1679 -0.6792 -0.6919
 7952SOL    HW230636   9.641   6.135   0.310 -0.6567  0.4311  0.6299
 7953SOL     OW30637   3.480   8.650   4.804  0.1651 -0.0997  0.1023
 7953SOL    HW130638   3.501   8.604   4.718 -0.5829 -0.1584 -0.0589
 7953SOL    HW230639   3.516   8.743   4.803  1.0060 -0.4282  0.1173
 7954SOL     OW30640   9.423   5.490   7.918  0.1106  0.5191 -0.4443
 7954SOL    HW130641   9.423   5.557   7.992 -1.3508  0.2320 -0.1655
 7954SOL    HW230642   9.428   5.398   7.957 -0.4237  0.3773 -0.7017
 7955SOL     OW30643   1.415   8.156   4.986  0.3105 -0.3984 -0.1193
 7955SOL    HW130644   1.337   8.218   4.991  0.1380 -0.4677 -1.7456
 7955SOL    HW230645   1.398   8.087   4.916  1.6826 -0.6142 -0.2457
 7956SOL     OW30646   5.007   5.941   1.521 -0.0717 -0.3475 -0.6655
 7956SOL    HW130647   4.942   6.015   1.540 -1.7229 -2.3538  1.9172
 7956SOL    HW230648   4.957   5.858   1.498  1.5206 -1.9351  1.3840
 7957SOL     OW30649   6.474   7.765   2.474  0.1804  0.4907  0.3812
 7957SOL    HW130650   6.494   7.756   2.376 -2.2454  1.0942 -0.2011
 7957SOL    HW230651   6.508   7.684   2.522  0.2861 -0.3876 -1.1381
 7958SOL     OW30652   1.760   3.984   3.987 -0.9003 -0.3561 -0.6669
 7958SOL    HW130653   1.767   3.892   4.026  1.4451 -0.5592 -1.4743
 7958SOL    HW230654   1.761   4.051   4.061 -2.7504 -0.9645 -0.0660
 7959SOL     OW30655   4.677   3.381   7.145  0.1608  0.3493 -0.2028
 7959SOL    HW130656   4.688   3.468   7.098  0.7826  0.7126  0.6094
 7959SOL    HW230657   4.625   3.394   7.229 -0.6169 -0.2332 -0.5846
 7960SOL     OW30658   2.876   6.885   0.196  0.1693  0.1434 -0.9986
 7960SOL    HW130659   2.785   6.857   0.228  0.3674 -1.4387 -1.7673
 7960SOL    HW230660   2.888   6.983   0.211 -0.8208 -0.0409  1.1018
 7961SOL     OW30661   8.187   6.372   1.680 -0.0487 -0.1901 -0.0609
 7961SOL    HW130662   8.233   6.311   1.616  1.4551 -1.5808  2.2521
 7961SOL    HW230663   8.243   6.455   1.692  0.1804 -0.3911  0.2464
 7962SOL     OW30664   9.076   4.779   1.820  0.5550  0.0868  0.0638
 7962SOL    HW130665   9.042   4.696   1.864  0.0254  0.4552  0.3558
 7962SOL    HW230666   9.156   4.813   1.869 -0.7542  1.1794  1.5013
 7964SOL     OW30667   7.722   1.754   4.427  0.5557  0.6069  0.3351
 7964SOL    HW130668   7.701   1.851   4.432 -1.1584  0.1920  1.7775
 7964SOL    HW230669   7.703   1.711   4.516  2.4936 -0.8055  0.0957
 7966SOL     OW30670   3.297   5.039   6.413 -0.3141  0.1476  0.4358
 7966SOL    HW130671   3.240   5.120   6.399  2.7378  2.2655 -0.3213
 7966SOL    HW230672   3.277   5.000   6.503 -1.8366  1.7342  0.8278
 7967SOL     OW30673   2.075   5.671   0.085 -0.2838 -0.2874 -0.2768
 7967SOL    HW130674   2.136   5.625   0.149  0.0247  0.2614 -0.1690
 7967SOL    HW230675   2.109   5.764   0.068 -0.9217 -0.0856 -0.4531
 7969SOL     OW30676   3.707   5.990   5.875 -0.2607 -0.5226 -0.1842
 7969SOL    HW130677   3.723   5.891   5.883 -0.5898 -0.5320  0.3515
 7969SOL    HW230678   3.694   6.029   5.966  2.2598  0.4143 -0.1816
 7971SOL     OW30679   4.395   5.461   2.317  0.3156  0.3670 -1.0356
 7971SOL    HW130680   4.460   5.389   2.343  0.6318  0.5059 -1.4371
 7971SOL    HW230681   4.352   5.498   2.399  2.2053  1.6349 -0.5653
 7973SOL     OW30682   7.583   5.904   0.933  0.4904  0.1570  0.7592
 7973SOL    HW130683   7.496   5.860   0.910  0.0853  0.8180  1.0401
 7973SOL    HW230684   7.571   5.967   1.009  0.6217  2.3004 -0.9298
 7975SOL     OW30685   8.295   5.412   4.857  0.3537  0.7793  0.1463
 7975SOL    HW130686   8.355   5.338   4.888  1.5785  2.4203  1.7681
 7975SOL    HW230687   8.243   5.447   4.935 -1.4218  0.5358 -0.9307
 7976SOL     OW30688   8.421   6.540   1.668  0.1890  0.0602 -0.4428
 7976SOL    HW130689   8.416   6.618   1.731 -2.2746 -2.2765  2.3488
 7976SOL    HW230690   8.473   6.466   1.710 -0.9397 -1.2993 -1.3768
 7977SOL     OW30691   9.594   3.574   6.908  0.3122 -0.1955 -0.1893
 7977SOL    HW130692   9.567   3.533   6.821  1.8347 -4.4653  1.1893
 7977SOL    HW230693   9.688   3.606   6.902  0.4903 -0.6849 -0.1065
 7979SOL     OW30694   1.305   7.754   0.809  0.0818 -0.2052 -0.2314
 7979SOL    HW130695   1.353   7.674   0.771  0.5167 -0.3523  0.6096
 7979SOL    HW230696   1.232   7.782   0.746  0.6807 -0.5430 -1.0919
 7980SOL     OW30697   4.646   3.319   0.693 -0.1468 -0.7284 -0.7440
 7980SOL    HW130698   4.737   3.353   0.669 -0.7702  0.7807 -1.0697
 7980SOL    HW230699   4.639   3.222   0.670  0.9299 -0.5259 -1.9538
 7982SOL     OW30700   3.999   7.309   1.247 -0.4111 -0.5702  0.1630
 7982SOL    HW130701   3.921   7.372   1.247  0.4500  0.5084 -0.1819
 7982SOL    HW230702   4.084   7.360   1.257  0.2993 -1.6948  0.0257
 7984SOL     OW30703   3.017   7.585   2.510  0.6134  0.2773  0.2294
 7984SOL    HW130704   2.950   7.653   2.479  1.5215  0.2913 -1.7615
 7984SOL    HW230705   3.046   7.529   2.433 -0.8420 -3.0962  2.0139
 7985SOL     OW30706   3.457   3.395   7.325 -0.0072 -0.0024 -0.6101
 7985SOL    HW130707   3.357   3.401   7.325  0.1264  3.5477  1.4805
 7985SOL    HW230708   3.486   3.321   7.386 -1.2987  0.4231  0.5245
 7986SOL     OW30709   9.004   4.588   3.658 -0.1908 -0.4727  0.2849
 7986SOL    HW130710   8.957   4.571   3.745 -0.1939 -0.9636  0.1896
 7986SOL    HW230711   8.971   4.524   3.589  0.4285 -0.6594  0.1530
 7987SOL     OW30712   6.410   0.143   6.957  0.0641 -0.1764 -0.3800
 7987SOL    HW130713   6.392   0.229   7.005 -0.6822 -0.1190 -0.7605
 7987SOL    HW230714   6.477   0.090   7.009 -1.0281 -0.3031  0.9495
 7988SOL     OW30715   8.919   3.463   7.356 -0.1677 -0.0535 -0.3288
 7988SOL    HW130716   8.840   3.413   7.323 -1.0474  0.9593  0.1827
 7988SOL    HW230717   8.944   3.430   7.448 -0.7555  0.4433  0.0131
 7989SOL     OW30718   7.860   9.354   6.687 -0.1819  0.3503 -0.8382
 7989SOL    HW130719   7.792   9.300   6.736  0.5081  0.8033  0.6476
 7989SOL    HW230720   7.882   9.309   6.600 -1.1814 -0.6330 -0.5938
 7990SOL     OW30721   0.521   5.148   5.817 -0.1874  0.2191  0.4152
 7990SOL    HW130722   0.540   5.095   5.900 -0.9503  0.1215  0.5374
 7990SOL    HW230723   0.467   5.092   5.754  0.2976  0.3343 -0.0990
 7991SOL     OW30724   4.354   2.627   5.138  0.4996  0.5021  0.1623
 7991SOL    HW130725   4.340   2.613   5.040 -0.1032  2.4683 -0.0445
 7991SOL    HW230726   4.430   2.570   5.169  0.3853 -0.4955 -1.3424
 7992SOL     OW30727   7.715   3.613   2.491  0.2598  0.0207  0.0578
 7992SOL    HW130728   7.666   3.662   2.563 -0.5018 -1.2155  0.3876
 7992SOL    HW230729   7.677   3.521   2.481  1.4482 -0.3900 -0.7916
 7994SOL     OW30730   3.152   3.659   1.797 -0.3464  0.4046  0.1252
 7994SOL    HW130731   3.204   3.633   1.716  0.9935  2.1350  0.4052
 7994SOL    HW230732   3.193   3.741   1.839 -1.1024 -0.3686  2.4696
 7995SOL     OW30733   3.053   5.585   5.127  0.1434  0.0873  0.0700
 7995SOL    HW130734   3.038   5.560   5.223 -0.7734  1.7546  0.3898
 7995SOL    HW230735   3.130   5.534   5.091 -0.3898 -1.6074  1.2813
 7996SOL     OW30736   7.243   7.151   6.693 -0.3571  0.4694 -0.0924
 7996SOL    HW130737   7.312   7.180   6.759  0.7165  2.0181 -1.8475
 7996SOL    HW230738   7.221   7.227   6.632  0.2583 -1.5167 -2.8775
 7997SOL     OW30739   9.899   9.483   1.745  0.2213  0.0046  0.0300
 7997SOL    HW130740   9.877   9.548   1.671 -0.4068  0.0689  0.2684
 7997SOL    HW230741   9.821   9.422   1.759  0.5241 -0.3116  0.3202
 7998SOL     OW30742   9.974   0.632   0.638  0.1917  0.4372  0.0164
 7998SOL    HW130743   9.951   0.729   0.639  0.9966  0.6205  0.5779
 7998SOL    HW230744  10.067   0.620   0.603 -0.5202 -0.2643 -1.7306
 7999SOL     OW30745   8.995   6.820   5.881  0.3393  0.8480 -0.5422
 7999SOL    HW130746   8.974   6.912   5.913  2.6773  1.3961 -0.5291
 7999SOL    HW230747   9.080   6.789   5.923 -1.0672 -1.8477  0.4812
 8000SOL     OW30748   7.714   1.145   4.899  0.5599  0.1684 -0.1015
 8000SOL    HW130749   7.615   1.140   4.896  0.5500 -0.5230  1.0841
 8000SOL    HW230750   7.743   1.241   4.888 -0.3483  0.7020  1.8962
 8001SOL     OW30751   7.716   4.257   2.919 -0.0905 -0.3727 -0.0146
 8001SOL    HW130752   7.800   4.249   2.866  1.2460 -0.3403  2.0299
 8001SOL    HW230753   7.678   4.166   2.934  0.7490 -0.6037  0.8188
 8002SOL     OW30754   6.188   7.543   2.529  0.3593 -0.6243  0.3902
 8002SOL    HW130755   6.215   7.630   2.571  3.3494 -0.6618 -1.3287
 8002SOL    HW230756   6.126   7.561   2.452  0.9231 -0.0121  0.0770
 8003SOL     OW30757   0.243   0.316   7.916 -0.0502 -0.1654 -0.4366
 8003SOL    HW130758   0.314   0.329   7.847  0.7666  1.1908  0.6430
 8003SOL    HW230759   0.278   0.342   8.005 -1.8089  0.2251  0.1570
 8005SOL     OW30760   6.490   2.426   4.427 -0.7280  0.1356 -0.4134
 8005SOL    HW130761   6.522   2.520   4.434  0.0550 -0.1014 -0.7123
 8005SOL    HW230762   6.397   2.419   4.463 -0.8585  1.0566 -0.5780
 8006SOL     OW30763   2.584   8.474   7.310 -0.2306  0.0147 -0.0426
 8006SOL    HW130764   2.568   8.375   7.309 -1.4039  0.1976 -0.4820
 8006SOL    HW230765   2.542   8.515   7.230 -1.9838  1.1902  1.4324
 8007SOL     OW30766   9.045   4.166   4.051 -0.3279 -0.0899 -0.5609
 8007SOL    HW130767   8.995   4.178   4.137  0.0525 -1.2456 -0.1655
 8007SOL    HW230768   9.006   4.226   3.982  0.7032  2.4388  0.9592
 8008SOL     OW30769   1.194   1.098   6.471 -0.5728  0.5422 -0.1730
 8008SOL    HW130770   1.139   1.170   6.514 -0.6526 -0.2521  1.0670
 8008SOL    HW230771   1.291   1.120   6.482 -0.6042  0.9431 -0.6485
 8009SOL     OW30772   0.555   0.707   2.759  0.4924 -0.1020 -0.2054
 8009SOL    HW130773   0.548   0.773   2.683  2.5539 -0.4079 -0.6877
 8009SOL    HW230774   0.647   0.710   2.797 -0.1580 -0.8912  1.4572
 8010SOL     OW30775   4.222   7.910   4.118 -0.2508 -0.1293  0.3292
 8010SOL    HW130776   4.157   7.834   4.124  0.2027 -0.3638  2.6994
 8010SOL    HW230777   4.287   7.891   4.044 -1.5651 -0.9036 -0.6652
 8011SOL     OW30778   2.858   0.201   7.551 -0.3053  0.2686 -0.9733
 8011SOL    HW130779   2.829   0.288   7.590  0.6827  0.3956 -0.5288
 8011SOL    HW230780   2.799   0.179   7.473 -0.8492  1.1047 -0.8046
 8012SOL     OW30781   8.247   9.800   5.820  0.2730  0.4987  0.2128
 8012SOL    HW130782   8.182   9.875   5.805 -0.4477 -0.2997 -0.7439
 8012SOL    HW230783   8.336   9.824   5.780 -0.2573  0.4121 -1.0464
 8013SOL     OW30784   6.283   0.389   4.536 -0.6018  0.7319  0.1078
 8013SOL    HW130785   6.344   0.462   4.567 -1.2074  0.4718  1.9459
 8013SOL    HW230786   6.190   0.408   4.569 -1.1562  0.1576 -1.1018
 8015SOL     OW30787   5.571   2.448   0.049 -0.2564 -0.2548 -0.2710
 8015SOL    HW130788   5.608   2.389   0.120  0.4947  1.9217  1.2085
 8015SOL    HW230789   5.484   2.412   0.017 -0.5380 -1.3396  1.6659
 8016SOL     OW30790   2.650   2.708   5.977  0.2874 -0.1913  0.3927
 8016SOL    HW130791   2.583   2.695   5.903 -1.4452 -0.1120  1.9138
 8016SOL    HW230792   2.741   2.724   5.937 -0.7094  0.4261 -1.7259
 8017SOL     OW30793   5.659   8.497   2.268 -0.5675 -0.6670  0.6368
 8017SOL    HW130794   5.713   8.434   2.212 -0.5435 -1.1524  1.1933
 8017SOL    HW230795   5.660   8.588   2.227  0.2464 -0.7951  0.3644
 8018SOL     OW30796   1.979   7.493   3.020 -0.6769  0.7896 -0.2333
 8018SOL    HW130797   2.072   7.506   2.987 -1.4202  3.8791 -1.2820
 8018SOL    HW230798   1.920   7.465   2.945 -1.0959  1.4934 -0.1768
 8019SOL     OW30799   6.264   2.198   1.747 -0.5080 -0.4786 -0.7620
 8019SOL    HW130800   6.180   2.229   1.791  0.0932  0.9178 -0.5579
 8019SOL    HW230801   6.271   2.239   1.656  0.3273  0.0438 -0.4717
 8020SOL     OW30802   9.396   5.589   1.246  0.6878  0.2315  0.0917
 8020SOL    HW130803   9.442   5.501   1.257  0.9675  0.1496 -1.6726
 8020SOL    HW230804   9.444   5.644   1.178 -0.7085  0.9136 -0.3579
 8023SOL     OW30805   2.762   5.089   1.491 -0.2276 -0.0493  0.8065
 8023SOL    HW130806   2.772   5.002   1.442  0.2475 -0.3959  1.4981
 8023SOL    HW230807   2.673   5.092   1.537 -0.7925  0.4008 -0.3170
 8024SOL     OW30808   9.551   2.770   7.444  0.1585  0.2913 -0.1426
 8024SOL    HW130809   9.649   2.779   7.425  0.1709  0.5598  0.0472
 8024SOL    HW230810   9.528   2.673   7.452  0.1827  0.1756 -1.3811
 8027SOL     OW30811   3.629   1.784   1.706  0.2595  0.0318  0.4594
 8027SOL    HW130812   3.608   1.690   1.680  1.0415  0.3230 -1.3236
 8027SOL    HW230813   3.658   1.835   1.625  0.8390  1.5361  1.5879
 8029SOL     OW30814   7.409   7.539   2.238 -0.5481 -0.1299  0.7224
 8029SOL    HW130815   7.479   7.551   2.308 -0.1900  0.9579  0.1907
 8029SOL    HW230816   7.427   7.456   2.186  1.1984  0.9102 -0.3727
 8030SOL     OW30817   4.428   0.240   4.593  0.4118 -0.1390  0.1082
 8030SOL    HW130818   4.449   0.168   4.527  1.5374  0.5828 -0.3272
 8030SOL    HW230819   4.329   0.248   4.603  0.2701 -1.2914 -0.3455
 8033SOL     OW30820   0.813   8.023   4.193 -0.0162  0.2566 -0.5742
 8033SOL    HW130821   0.848   8.011   4.286  1.6847  0.2548 -1.1912
 8033SOL    HW230822   0.713   8.019   4.194  0.0416 -2.1239  0.9276
 8034SOL     OW30823   8.711   4.746   4.213 -0.6370  0.6424 -0.3033
 8034SOL    HW130824   8.773   4.823   4.232  0.2760  0.1747 -1.3495
 8034SOL    HW230825   8.628   4.781   4.170  0.0489  0.9977 -1.3716
 8035SOL     OW30826   5.284   0.615   6.119 -0.1432 -0.1357  0.1654
 8035SOL    HW130827   5.383   0.619   6.113 -0.1402 -0.2971  0.0698
 8035SOL    HW230828   5.249   0.692   6.172 -0.0295  0.4092 -0.5513
 8036SOL     OW30829   1.520   2.575   2.187  0.0680  0.0759 -0.1944
 8036SOL    HW130830   1.536   2.645   2.117 -0.5538 -1.4843 -1.9462
 8036SOL    HW230831   1.586   2.500   2.175 -0.0435 -0.2064  0.8945
 8037SOL     OW30832   7.586   2.912   0.301 -0.6303 -0.6643 -0.9915
 8037SOL    HW130833   7.614   2.816   0.294  0.1227 -0.6675  1.4240
 8037SOL    HW230834   7.656   2.969   0.258  1.1470 -0.9554  1.3779
 8039SOL     OW30835   6.200   0.581   4.284  0.3297 -0.6440 -0.0255
 8039SOL    HW130836   6.106   0.612   4.294  0.0417 -0.8016 -2.0463
 8039SOL    HW230837   6.216   0.501   4.342 -0.3370  0.2915  1.4577
 8040SOL     OW30838   7.487   6.664   7.076 -0.3993 -0.5186  0.4226
 8040SOL    HW130839   7.573   6.613   7.072 -0.2303 -0.2141  0.0562
 8040SOL    HW230840   7.482   6.714   7.162  0.4030  0.5111 -0.1144
 8041SOL     OW30841   0.377   0.054   1.626  0.0942  0.1473 -0.3159
 8041SOL    HW130842   0.359   0.062   1.528 -0.8068 -2.5075 -0.3948
 8041SOL    HW230843   0.295   0.080   1.677 -0.5915 -1.8460 -0.3803
 8043SOL     OW30844   7.850   0.410   6.772  0.2423 -0.3429  0.4199
 8043SOL    HW130845   7.769   0.404   6.831  0.9073  0.9718  1.4982
 8043SOL    HW230846   7.924   0.357   6.813  0.5199  0.0833  0.4809
 8045SOL     OW30847   6.947   3.981   0.936  0.1696  0.1919  0.3891
 8045SOL    HW130848   6.853   3.966   0.966  0.2747 -0.0744  0.5866
 8045SOL    HW230849   6.961   4.078   0.916  0.4277  0.5617  2.2808
 8046SOL     OW30850   1.472   5.423   2.680  0.6928 -0.6002 -0.1048
 8046SOL    HW130851   1.567   5.434   2.650  0.7985  0.8615  0.7661
 8046SOL    HW230852   1.415   5.491   2.635 -0.0576 -1.8112 -1.0303
 8049SOL     OW30853   2.219   9.301   0.521  0.2688 -0.3250  0.0938
 8049SOL    HW130854   2.210   9.216   0.469 -0.8379 -0.1914  0.0457
 8049SOL    HW230855   2.312   9.336   0.513  0.2324 -0.5549 -1.4116
 8050SOL     OW30856   9.414   4.071   5.400  0.5010 -0.2629  0.2268
 8050SOL    HW130857   9.317   4.060   5.375  0.4121  0.0314  0.4387
 8050SOL    HW230858   9.423   4.065   5.499  0.5039  1.1206  0.3250
 8051SOL     OW30859   3.546   6.119   0.308 -0.0045  0.0542  0.3274
 8051SOL    HW130860   3.641   6.138   0.330  0.5152 -1.5672 -0.4264
 8051SOL    HW230861   3.492   6.203   0.316  1.1670  0.6431  2.3227
 8052SOL     OW30862   5.417   1.147   7.761  0.2288 -0.2981  0.1864
 8052SOL    HW130863   5.399   1.223   7.699 -0.9277 -1.6822 -1.2297
 8052SOL    HW230864   5.484   1.085   7.719 -1.7797 -2.0961 -0.4499
 8053SOL     OW30865   4.640   9.574   2.416 -0.0647 -0.1198 -0.0099
 8053SOL    HW130866   4.721   9.617   2.456  1.0335 -0.2177 -2.0500
 8053SOL    HW230867   4.586   9.642   2.367  0.0949 -0.4952 -0.7228
 8057SOL     OW30868   4.523   5.030   3.159 -0.1877  0.5537 -0.3474
 8057SOL    HW130869   4.536   4.934   3.138 -0.5211  0.7486 -1.4903
 8057SOL    HW230870   4.608   5.080   3.144 -0.1475  0.5215 -0.2273
 8058SOL     OW30871   4.320   0.485   5.053  0.0678 -0.0159  0.2785
 8058SOL    HW130872   4.232   0.488   5.005  1.0651 -0.0694 -1.6098
 8058SOL    HW230873   4.371   0.570   5.034  1.1004 -0.6836  0.0043
 8060SOL     OW30874   9.336   6.371   2.447  0.1867  0.1244  0.1415
 8060SOL    HW130875   9.427   6.379   2.406 -0.2110 -0.4909 -0.8517
 8060SOL    HW230876   9.320   6.450   2.507  0.8452  0.9171 -0.7125
 8061SOL     OW30877   8.202   3.722   4.302  0.1488  0.0641 -0.2068
 8061SOL    HW130878   8.221   3.781   4.381 -1.3010  0.0742  0.1468
 8061SOL    HW230879   8.285   3.672   4.277  1.3250  2.0293 -0.3285
 8063SOL     OW30880   0.787   8.979   6.667  0.5560 -0.2072 -0.0806
 8063SOL    HW130881   0.690   8.970   6.647  0.5359  0.8566 -0.5052
 8063SOL    HW230882   0.800   9.035   6.748  0.7716 -1.4988  0.7833
 8064SOL     OW30883   0.993   2.534   0.715  0.0065 -0.7004  0.6692
 8064SOL    HW130884   0.915   2.598   0.718 -0.3602 -1.1994  3.3788
 8064SOL    HW230885   1.068   2.572   0.768  0.9051 -1.1568 -0.2672
 8065SOL     OW30886   3.502   5.262   4.502  0.2428 -0.1312 -0.0197
 8065SOL    HW130887   3.442   5.267   4.582  0.7519  1.4136  0.2793
 8065SOL    HW230888   3.591   5.226   4.530 -0.5483 -2.5882 -0.4961
 8066SOL     OW30889   4.755   9.138   4.218 -0.0749 -0.7526 -0.2763
 8066SOL    HW130890   4.832   9.091   4.261  0.9231  0.7276 -0.4149
 8066SOL    HW230891   4.687   9.071   4.189  0.6043 -1.9851  0.9327
 8067SOL     OW30892   4.882   5.901   3.284 -0.3903  0.0426  0.4846
 8067SOL    HW130893   4.886   5.977   3.349 -0.2292  1.4749 -1.1833
 8067SOL    HW230894   4.920   5.930   3.196 -2.2019 -1.3595 -0.7841
 8068SOL     OW30895   2.569   0.136   5.132 -0.3306 -0.2120 -0.3469
 8068SOL    HW130896   2.617   0.099   5.212  0.8440 -0.9005 -1.3522
 8068SOL    HW230897   2.474   0.105   5.134 -0.0572 -1.0640  0.2648
 8069SOL     OW30898   9.507   2.354   3.307 -0.1839 -0.0647  0.0317
 8069SOL    HW130899   9.501   2.435   3.249  0.7654 -0.3806 -0.5224
 8069SOL    HW230900   9.581   2.366   3.373  1.0393 -1.1342 -1.1169
 8070SOL     OW30901   5.334   3.799   1.177 -0.1665 -0.2447  0.0416
 8070SOL    HW130902   5.242   3.783   1.214  0.3218 -1.2755  0.8193
 8070SOL    HW230903   5.402   3.785   1.248  0.5785  1.1021 -0.3795
 8072SOL     OW30904   0.588   0.497   6.671  0.0324  0.3091  0.5276
 8072SOL    HW130905   0.577   0.417   6.730 -1.7676 -0.2389 -0.5220
 8072SOL    HW230906   0.634   0.570   6.722  1.2284 -1.1949  1.6586
 8074SOL     OW30907   1.743   1.820   6.453 -0.0491 -0.5914 -0.0402
 8074SOL    HW130908   1.712   1.727   6.473 -0.1935 -0.7614 -1.0512
 8074SOL    HW230909   1.799   1.854   6.529 -0.2846 -1.3734  0.4819
 8075SOL     OW30910   1.040   7.957   3.079  0.2422 -0.2089  0.2111
 8075SOL    HW130911   0.945   7.960   3.109  0.4514  0.0889  0.8616
 8075SOL    HW230912   1.074   8.051   3.068  1.1618 -0.2564  2.2928
 8076SOL     OW30913   5.512   9.985   3.162  0.1832  0.2909  0.1285
 8076SOL    HW130914   5.538  10.054   3.094  0.4234 -0.9400 -1.0406
 8076SOL    HW230915   5.413   9.970   3.158  0.1762  0.3235  0.1640
 8077SOL     OW30916   2.147   5.553   4.506  0.3647  0.3556 -0.9892
 8077SOL    HW130917   2.206   5.488   4.556  1.4410 -0.7515 -3.5844
 8077SOL    HW230918   2.092   5.605   4.571 -0.1152 -2.7635  1.2369
 8078SOL     OW30919   0.966   2.387   0.491  0.4570  0.6338 -0.2795
 8078SOL    HW130920   1.048   2.402   0.436  2.4981 -1.0415  2.1911
 8078SOL    HW230921   0.975   2.437   0.577 -0.7607 -0.2381  0.3599
 8079SOL     OW30922   0.649   5.566   6.306  0.8934  0.2276 -0.7043
 8079SOL    HW130923   0.554   5.598   6.306  0.7253 -0.2291 -2.0968
 8079SOL    HW230924   0.680   5.553   6.212  1.1377 -3.1760 -0.2090
 8080SOL     OW30925   4.895   4.729   2.263  0.0737 -0.1571 -0.3936
 8080SOL    HW130926   4.965   4.681   2.210 -0.5004  1.5861 -2.8100
 8080SOL    HW230927   4.933   4.814   2.300  0.1461 -0.8196  1.0982
 8081SOL     OW30928   7.444   1.334   6.136 -0.2773  0.2795  0.4314
 8081SOL    HW130929   7.397   1.281   6.066  0.8072 -0.2211  0.0683
 8081SOL    HW230930   7.384   1.406   6.170 -1.4324 -0.5904  0.2589
 8082SOL     OW30931   2.229   7.831   5.673  0.2663  0.1045 -0.0612
 8082SOL    HW130932   2.255   7.765   5.603  1.1248 -0.2556  0.5779
 8082SOL    HW230933   2.140   7.869   5.652 -0.1876 -1.1760 -0.5142
 8083SOL     OW30934   0.267   2.425   7.384  0.3908 -0.2923  0.3638
 8083SOL    HW130935   0.263   2.469   7.294  0.2120 -1.4203 -0.1785
 8083SOL    HW230936   0.353   2.374   7.392  1.4527  1.6228  1.6891
 8084SOL     OW30937   0.389   0.910   6.647  0.2856 -0.0446  0.0689
 8084SOL    HW130938   0.443   0.927   6.730 -0.7679 -1.3868  1.0648
 8084SOL    HW230939   0.424   0.829   6.600 -0.2488 -0.3587  0.2037
 8085SOL     OW30940   9.411   7.220   0.846  0.1188  0.1959  0.0312
 8085SOL    HW130941   9.359   7.247   0.765  2.4021 -2.3847 -2.3943
 8085SOL    HW230942   9.351   7.173   0.910 -1.6952  2.1488 -0.1816
 8086SOL     OW30943   7.231   3.635   1.178  0.1396 -0.2964 -0.1675
 8086SOL    HW130944   7.204   3.715   1.124  2.3027  1.7696  1.7416
 8086SOL    HW230945   7.277   3.569   1.119  2.6569  2.0263 -0.8539
 8087SOL     OW30946   3.408   8.134   4.001  0.2114 -0.5463  0.6848
 8087SOL    HW130947   3.455   8.046   4.000 -1.0146 -1.1996 -0.4476
 8087SOL    HW230948   3.340   8.136   4.074 -1.2452 -1.3402 -0.6345
 8088SOL     OW30949   2.215   4.577   3.850 -0.5569  0.3253  0.2399
 8088SOL    HW130950   2.133   4.590   3.906 -0.9404  0.7455 -0.4217
 8088SOL    HW230951   2.206   4.628   3.765 -0.4732 -1.2177 -0.7171
 8089SOL     OW30952   1.156   8.676   4.210  0.2354 -0.0391 -0.0580
 8089SOL    HW130953   1.143   8.582   4.178  1.6193 -0.3276  0.2207
 8089SOL    HW230954   1.071   8.707   4.253 -0.3844 -0.9961 -0.5501
 8090SOL     OW30955   9.620   5.916   6.391 -0.0906 -0.0853 -0.5181
 8090SOL    HW130956   9.566   5.885   6.313  0.2118  1.8591 -1.5410
 8090SOL    HW230957   9.650   6.010   6.376 -0.2336  0.4303  2.0589
 8091SOL     OW30958   2.852   0.604   4.300  0.6014  0.0042  0.4828
 8091SOL    HW130959   2.895   0.577   4.214 -1.0229  1.3166 -0.7609
 8091SOL    HW230960   2.825   0.521   4.351  0.8158 -0.7739 -0.6569
 8093SOL     OW30961   1.435   8.459   4.333  0.2502 -0.0765 -0.3612
 8093SOL    HW130962   1.420   8.546   4.380 -0.4116  0.1801 -1.0359
 8093SOL    HW230963   1.404   8.384   4.392  1.5907  0.0848  0.5567
 8095SOL     OW30964   6.393   5.457   2.570  0.9963  0.2694 -0.0937
 8095SOL    HW130965   6.490   5.479   2.568  1.1068 -0.2802 -1.1308
 8095SOL    HW230966   6.380   5.361   2.544  0.1452  0.4508 -0.3543
 8097SOL     OW30967   3.126   6.099   6.593 -0.2086 -0.1662 -0.4560
 8097SOL    HW130968   3.214   6.091   6.640 -0.1521 -1.3362 -0.7383
 8097SOL    HW230969   3.052   6.068   6.653 -0.4751  1.2273 -0.0675
 8098SOL     OW30970   3.705   5.756   3.522 -0.0330 -1.1358  0.2093
 8098SOL    HW130971   3.721   5.842   3.570  0.0263 -0.4509 -1.0207
 8098SOL    HW230972   3.793   5.711   3.504 -0.1666 -2.3494  2.4386
 8099SOL     OW30973   3.851   6.841   7.179  0.4227 -0.0243  0.2333
 8099SOL    HW130974   3.883   6.748   7.197  1.3433 -0.0848 -1.5549
 8099SOL    HW230975   3.799   6.875   7.257 -2.5068 -3.1677 -0.2140
 8100SOL     OW30976   3.722   8.133   2.166 -0.1718 -0.1310  0.0448
 8100SOL    HW130977   3.651   8.115   2.097 -1.8849 -2.9953  2.4190
 8100SOL    HW230978   3.705   8.223   2.208 -1.2118  0.0975 -0.8299
 8101SOL     OW30979   6.079   6.292   0.873  0.6594  0.2964  0.2878
 8101SOL    HW130980   5.990   6.276   0.915  0.7569  1.3397  0.8946
 8101SOL    HW230981   6.146   6.228   0.911  0.2158 -0.3855 -0.0577
 8102SOL     OW30982   5.388   2.112   7.799 -0.0064  0.3086  0.3365
 8102SOL    HW130983   5.439   2.042   7.850 -0.3396  0.0208  0.2712
 8102SOL    HW230984   5.290   2.092   7.804  0.0579 -0.7342 -1.8987
 8103SOL     OW30985   9.053   1.937   0.714 -0.3814 -0.4264  0.1384
 8103SOL    HW130986   9.104   2.022   0.702 -0.5107 -0.2841  0.5803
 8103SOL    HW230987   9.116   1.863   0.736 -0.1089 -0.7520 -1.6784
 8104SOL     OW30988   1.265   2.145   7.521 -0.1177  0.3206 -0.2512
 8104SOL    HW130989   1.239   2.056   7.560 -0.2932  0.1336 -0.7813
 8104SOL    HW230990   1.299   2.131   7.428 -0.6682  0.8692 -0.5356
 8105SOL     OW30991   9.177   0.797   2.974  0.2510 -0.3874 -0.1403
 8105SOL    HW130992   9.203   0.775   3.068 -1.8895  1.1416  0.8449
 8105SOL    HW230993   9.203   0.721   2.914  1.1298 -1.6323  1.7633
 8106SOL     OW30994   9.177   2.510   7.850 -0.0727 -0.3609 -0.0057
 8106SOL    HW130995   9.269   2.475   7.829  0.1866 -0.6792  1.5904
 8106SOL    HW230996   9.130   2.444   7.909 -1.5136 -0.4181 -1.1989
 8107SOL     OW30997   6.192   0.313   1.034  0.3949  0.3981  0.2105
 8107SOL    HW130998   6.131   0.345   1.106  1.3173 -0.9537  1.6300
 8107SOL    HW230999   6.186   0.213   1.027  3.5873  0.0578  1.4857
 8108SOL     OW31000   8.855   8.770   1.129 -0.0749 -0.0381  0.3776
 8108SOL    HW131001   8.761   8.798   1.149  0.2581  0.6612  0.9934
 8108SOL    HW231002   8.875   8.786   1.033  0.1034  1.8681  0.7163
 8109SOL     OW31003   8.671   3.350   6.989  0.1814  0.2245 -0.3312
 8109SOL    HW131004   8.713   3.340   6.899 -1.6942 -2.6445 -0.9533
 8109SOL    HW231005   8.579   3.387   6.980 -0.6089 -1.5255  0.2091
 8110SOL     OW31006   5.208   7.592   5.504 -0.2668  0.3848  0.1150
 8110SOL    HW131007   5.274   7.655   5.464 -1.1824  0.3586 -1.4895
 8110SOL    HW231008   5.179   7.627   5.593  0.2903  1.5089 -0.1328
 8112SOL     OW31009   0.657   4.492   2.061  0.2803  0.7318  0.1074
 8112SOL    HW131010   0.631   4.399   2.039 -0.5921  1.0856 -0.3774
 8112SOL    HW231011   0.749   4.493   2.101  0.4372 -0.2862 -0.2308
 8113SOL     OW31012   8.537   0.331   5.488 -0.1239 -0.1687  0.5318
 8113SOL    HW131013   8.608   0.272   5.450  0.0809  0.0876  0.5149
 8113SOL    HW231014   8.500   0.389   5.416 -1.4642 -1.4119  0.2012
 8114SOL     OW31015   4.224   7.246   1.562 -0.0703 -0.1953 -0.2872
 8114SOL    HW131016   4.284   7.288   1.494  0.5543 -2.7566 -1.3486
 8114SOL    HW231017   4.245   7.283   1.653  1.6893  0.4206 -0.9318
 8115SOL     OW31018   0.284   2.347   7.807  0.1662  0.0561  0.2943
 8115SOL    HW131019   0.340   2.413   7.858  0.8015 -0.3389  0.1059
 8115SOL    HW231020   0.311   2.347   7.711  0.3934 -0.7215  0.3597
 8116SOL     OW31021   3.649   7.787   4.890 -0.6886  0.3717  0.0840
 8116SOL    HW131022   3.690   7.878   4.895  1.7487 -0.7016 -0.0967
 8116SOL    HW231023   3.720   7.718   4.879 -2.5436 -1.5395 -0.2961
 8117SOL     OW31024   5.111   8.840   0.780  0.6922  0.4255  0.0939
 8117SOL    HW131025   5.173   8.765   0.758  0.1640 -0.2129  0.7627
 8117SOL    HW231026   5.152   8.899   0.849  1.2873  1.0052 -0.7397
 8118SOL     OW31027   8.820   5.019   5.070 -0.4863  0.0079  0.5308
 8118SOL    HW131028   8.744   5.045   5.130 -0.3628  0.0612  0.6643
 8118SOL    HW231029   8.816   4.921   5.053 -0.2999 -0.0730  0.9358
 8119SOL     OW31030   4.172   6.694   2.721  0.6225 -0.4869 -0.3877
 8119SOL    HW131031   4.093   6.633   2.711  1.2640 -1.0792 -2.1707
 8119SOL    HW231032   4.156   6.777   2.667  0.3442  0.3061  0.9149
 8121SOL     OW31033   6.207   9.075   2.883 -0.0721 -0.5814 -0.2070
 8121SOL    HW131034   6.159   9.157   2.853  0.3585 -0.4343 -0.4937
 8121SOL    HW231035   6.305   9.084   2.865  0.1867 -0.5260  1.1761
 8122SOL     OW31036   7.022   2.495   2.237 -0.2161 -0.2840  0.2559
 8122SOL    HW131037   6.986   2.462   2.324 -0.3889 -0.9803 -0.0784
 8122SOL    HW231038   7.049   2.418   2.180 -1.1966  0.1186 -0.7697
 8123SOL     OW31039   7.223   9.462   6.158  0.0435 -0.2426  0.0051
 8123SOL    HW131040   7.143   9.416   6.121 -0.0744 -1.0570  1.2391
 8123SOL    HW231041   7.273   9.399   6.217  2.1117 -0.0219 -1.4901
 8124SOL     OW31042   8.963   3.038   1.669 -0.0429 -0.2251  0.4067
 8124SOL    HW131043   8.917   3.060   1.583 -0.5477 -2.2908  0.1175
 8124SOL    HW231044   8.932   2.948   1.701  2.8758 -1.1171  0.8531
 8125SOL     OW31045   3.544   8.997   6.546  0.2779 -0.0032 -0.1024
 8125SOL    HW131046   3.485   8.917   6.550  0.7409 -0.3634 -0.3467
 8125SOL    HW231047   3.574   9.012   6.451  2.4774 -1.2419  0.3537
 8126SOL     OW31048   3.703   5.434   2.635 -0.3246 -0.3310 -0.1822
 8126SOL    HW131049   3.767   5.431   2.711  1.2521 -0.1166 -1.4661
 8126SOL    HW231050   3.659   5.524   2.631 -0.8231 -0.5225  0.7748
 8127SOL     OW31051   6.913   2.148   4.110 -0.2542  0.3225  1.0185
 8127SOL    HW131052   6.872   2.130   4.020  0.3415 -0.6310  0.9314
 8127SOL    HW231053   6.858   2.106   4.181  0.7881 -1.3250  0.8672
 8129SOL     OW31054   4.237   9.518   6.953 -0.3143  0.3171 -0.0347
 8129SOL    HW131055   4.284   9.554   7.034 -0.0976 -0.5347  0.2171
 8129SOL    HW231056   4.140   9.507   6.974 -0.1158 -0.6575  0.3576
 8130SOL     OW31057   4.039   2.571   2.414  0.7310  0.2784 -0.0041
 8130SOL    HW131058   4.120   2.625   2.435 -0.1239  0.8809  1.7920
 8130SOL    HW231059   3.977   2.571   2.492 -1.4437  0.6058 -1.6767
 8131SOL     OW31060   9.863   3.277   1.923 -0.5967  0.4364  0.2986
 8131SOL    HW131061   9.786   3.326   1.965  0.7322  0.4634  2.8464
 8131SOL    HW231062   9.849   3.178   1.933  2.2538  0.3783  6.0613
 8133SOL     OW31063   0.396   1.937   2.559 -0.2961  0.1024 -0.5951
 8133SOL    HW131064   0.489   1.941   2.521  0.9000 -1.4269  2.0048
 8133SOL    HW231065   0.394   1.983   2.647 -1.9076 -0.2478 -0.4410
 8134SOL     OW31066   9.904   6.826   1.286  0.7365 -0.3361  0.8496
 8134SOL    HW131067   9.832   6.772   1.330  1.4148 -0.5459  1.7155
 8134SOL    HW231068   9.908   6.917   1.328  0.7798 -0.2210  0.5989
 8135SOL     OW31069   5.164   8.100   4.809 -0.1944  0.0323  0.2761
 8135SOL    HW131070   5.218   8.170   4.856  1.2837 -1.4962  0.8995
 8135SOL    HW231071   5.182   8.011   4.850  0.3200 -1.1938 -2.5045
 8138SOL     OW31072   9.832   5.104   4.837 -0.4994  1.0085  0.5790
 8138SOL    HW131073   9.758   5.131   4.898 -1.6729  0.8890 -0.7794
 8138SOL    HW231074   9.919   5.139   4.872 -0.7708 -1.2093  3.7236
 8139SOL     OW31075   0.268   9.714   4.860  0.2268 -0.0298  0.6785
 8139SOL    HW131076   0.193   9.649   4.848  1.0387 -1.5686  3.4062
 8139SOL    HW231077   0.352   9.664   4.882  1.1581  1.8813  1.5969
 8140SOL     OW31078   0.121   9.004   3.893 -0.5042 -0.0463 -0.9664
 8140SOL    HW131079   0.052   8.967   3.956  1.4637  0.4942  1.6007
 8140SOL    HW231080   0.115   9.104   3.892 -0.6418 -0.0650 -1.7672
 8143SOL     OW31081   3.405   7.821   7.239  0.9203  0.6407 -0.0037
 8143SOL    HW131082   3.323   7.791   7.191  1.1340  2.3928 -1.5068
 8143SOL    HW231083   3.480   7.758   7.218  0.3058 -0.2325  0.3594
 8144SOL     OW31084   4.003   3.314   1.332 -0.0651 -0.8052  0.2289
 8144SOL    HW131085   3.910   3.288   1.357  0.5828 -2.1167  1.3242
 8144SOL    HW231086   4.045   3.366   1.406  0.2572 -0.6810 -0.0383
 8145SOL     OW31087   7.861   5.171   3.694  0.2005  0.1937  0.3005
 8145SOL    HW131088   7.931   5.104   3.718 -1.0515 -0.8094  1.2124
 8145SOL    HW231089   7.792   5.128   3.636  0.9901  1.5076 -1.6876
 8147SOL     OW31090   8.758   6.943   5.519  0.2950 -0.0607 -0.3197
 8147SOL    HW131091   8.811   6.981   5.443 -0.3227 -1.5071 -1.5045
 8147SOL    HW231092   8.661   6.942   5.494  0.0657 -0.3000  0.5931
 8148SOL     OW31093   8.722   3.287   7.242  0.1093 -0.3642  0.0165
 8148SOL    HW131094   8.723   3.329   7.151  0.5754 -2.4076 -0.9403
 8148SOL    HW231095   8.630   3.252   7.262  0.3512 -1.1634 -0.2576
 8149SOL     OW31096   2.915   5.566   5.412 -0.1946  0.1498  0.5679
 8149SOL    HW131097   2.837   5.509   5.386  0.3051  0.1488 -0.9910
 8149SOL    HW231098   2.883   5.645   5.464 -1.3423  0.6146 -0.8142
 8150SOL     OW31099   4.537   8.905   7.385  0.2891  0.2239  0.0858
 8150SOL    HW131100   4.570   8.994   7.353  0.1608  0.1220 -0.3219
 8150SOL    HW231101   4.475   8.919   7.463  0.7902  0.4541  0.4530
 8151SOL     OW31102   1.046   7.458   0.209  0.1155  0.5024 -0.5471
 8151SOL    HW131103   0.952   7.493   0.212  0.1953  0.6736  0.1140
 8151SOL    HW231104   1.056   7.385   0.277  1.0190  1.8955  0.8343
 8152SOL     OW31105   8.693   8.984   3.313  0.6413  0.3494  0.3612
 8152SOL    HW131106   8.654   9.030   3.233 -2.7726 -2.3222  0.3723
 8152SOL    HW231107   8.657   9.026   3.396 -0.7663 -0.9495  0.4037
 8153SOL     OW31108   0.781   4.267   6.050  0.5228 -0.5816  0.3720
 8153SOL    HW131109   0.837   4.334   6.001  2.4085 -2.7252 -0.4848
 8153SOL    HW231110   0.833   4.228   6.125 -1.2107  0.2266  2.0298
 8154SOL     OW31111   3.928   8.303   4.197 -0.2437 -0.4600 -0.3053
 8154SOL    HW131112   3.922   8.372   4.124  0.0065  0.6747  0.7203
 8154SOL    HW231113   4.006   8.243   4.181  0.5330  0.5430 -0.3391
 8155SOL     OW31114   0.132   2.818   5.507  0.4459  0.1525  0.5635
 8155SOL    HW131115   0.209   2.783   5.560  0.5462  0.2250  0.4674
 8155SOL    HW231116   0.074   2.742   5.477  0.3789  0.1130  0.7914
 8157SOL     OW31117   8.262   6.705   4.069 -0.0010 -0.7396 -0.2100
 8157SOL    HW131118   8.303   6.614   4.061 -0.1280 -0.6668 -1.8123
 8157SOL    HW231119   8.230   6.735   3.980 -1.6679  0.0916  0.6481
 8159SOL     OW31120   5.177   3.959   7.418  0.7571  0.1522  0.2796
 8159SOL    HW131121   5.200   4.038   7.361  0.2077 -0.1343 -0.3553
 8159SOL    HW231122   5.083   3.930   7.397 -0.8972  2.3811  4.0103
 8162SOL     OW31123   3.572   2.299   2.717  0.1244 -0.6063 -0.1991
 8162SOL    HW131124   3.561   2.226   2.785 -0.6099 -0.9511 -0.6799
 8162SOL    HW231125   3.487   2.350   2.710 -0.0505 -1.0481 -1.3973
 8163SOL     OW31126   1.155   7.529   6.720 -0.2192 -0.0840 -0.4952
 8163SOL    HW131127   1.191   7.510   6.811  1.9125  0.4572 -1.2087
 8163SOL    HW231128   1.122   7.443   6.679 -1.7302 -0.2447  0.9698
 8164SOL     OW31129   8.208   8.015   5.780 -0.1657 -0.4416  0.4832
 8164SOL    HW131130   8.212   8.114   5.766 -3.2769 -0.3865 -0.4059
 8164SOL    HW231131   8.254   7.969   5.705  1.5865  0.3203  1.0642
 8165SOL     OW31132   3.879   3.275   7.448 -0.1765 -0.2261  0.1098
 8165SOL    HW131133   3.846   3.206   7.383 -1.7584 -0.6994  1.3987
 8165SOL    HW231134   3.878   3.365   7.405 -4.1295 -0.0626  0.4008
 8166SOL     OW31135   3.013   4.747   5.716  0.2674 -0.0133  0.2681
 8166SOL    HW131136   3.076   4.776   5.644  0.1602 -1.4678 -0.4184
 8166SOL    HW231137   2.927   4.718   5.675  0.1359 -0.6546  0.9950
 8167SOL     OW31138   7.088   2.848   4.045 -0.0689  0.3751 -0.0720
 8167SOL    HW131139   7.156   2.777   4.030  0.0177  0.6892 -1.1979
 8167SOL    HW231140   7.128   2.938   4.027 -0.3656  0.6706  0.6915
 8168SOL     OW31141   4.741   7.265   0.810 -0.1570  0.5872  0.5735
 8168SOL    HW131142   4.669   7.335   0.813  0.2247  0.9576  1.0089
 8168SOL    HW231143   4.818   7.293   0.866 -0.6829 -0.9581  2.1145
 8169SOL     OW31144   8.940   8.332   1.217 -0.0868  0.3589 -0.0439
 8169SOL    HW131145   8.956   8.428   1.238  1.4703  0.4423 -1.5690
 8169SOL    HW231146   8.850   8.305   1.253 -0.7358  2.4857  0.0007
 8170SOL     OW31147   9.299   6.322   6.285 -0.9348  0.4959  0.4370
 8170SOL    HW131148   9.351   6.399   6.322  0.9436 -0.9445  0.8635
 8170SOL    HW231149   9.273   6.261   6.359 -0.3381 -0.4952 -0.1546
 8171SOL     OW31150   4.399   9.790   6.511  0.2387 -0.1245 -0.1924
 8171SOL    HW131151   4.415   9.746   6.600 -0.4784 -0.0617 -0.0270
 8171SOL    HW231152   4.301   9.807   6.500  0.3337 -0.0732 -0.9712
 8172SOL     OW31153   0.430   3.025   3.252  0.0657  1.1005  0.0095
 8172SOL    HW131154   0.440   3.099   3.317  0.2813  2.0322 -1.0731
 8172SOL    HW231155   0.374   3.055   3.175  0.6669  0.3443 -0.7420
 8173SOL     OW31156   4.015   0.933   3.396 -0.1105  0.6475  0.7175
 8173SOL    HW131157   4.106   0.970   3.414  0.5254 -0.0021 -1.0535
 8173SOL    HW231158   3.947   0.988   3.443  1.2200  0.9565  2.3152
 8176SOL     OW31159   6.289   1.689   2.709 -0.0880 -0.3301  0.1949
 8176SOL    HW131160   6.246   1.726   2.791  0.7504 -0.0343  0.5086
 8176SOL    HW231161   6.336   1.604   2.731 -0.1650 -0.4387 -0.0558
 8177SOL     OW31162   3.275   8.385   6.069 -0.3469  0.2767  0.0731
 8177SOL    HW131163   3.284   8.379   5.970 -1.2969  0.3992 -0.0285
 8177SOL    HW231164   3.343   8.326   6.113 -0.6654 -0.6609 -0.6759
 8178SOL     OW31165   9.646   1.858   2.975 -0.8621 -0.6564 -0.6831
 8178SOL    HW131166   9.580   1.896   3.041  0.4122  1.1192 -0.4015
 8178SOL    HW231167   9.599   1.793   2.915 -2.6106 -0.3374  0.2985
 8179SOL     OW31168   2.682   9.649   6.359  0.3253 -0.4397 -0.3464
 8179SOL    HW131169   2.656   9.688   6.447 -0.8701  2.6646 -2.0206
 8179SOL    HW231170   2.709   9.553   6.372  1.4045  0.2924  3.5638
 8180SOL     OW31171   2.903   8.092   4.536  0.6271 -0.7411 -0.2088
 8180SOL    HW131172   2.898   8.116   4.439  0.4809 -1.9703 -0.5163
 8180SOL    HW231173   2.842   8.151   4.588 -0.6468 -1.2340 -1.1149
 8181SOL     OW31174   0.499   9.267   0.803 -0.0853 -0.3823  0.2442
 8181SOL    HW131175   0.461   9.336   0.865 -1.3855 -0.2217 -0.6931
 8181SOL    HW231176   0.542   9.312   0.725  0.9459 -0.5964  0.6869
 8182SOL     OW31177   4.110   8.615   0.759 -0.5302 -0.1295  0.1571
 8182SOL    HW131178   4.092   8.536   0.701 -1.1263  0.8316 -0.9710
 8182SOL    HW231179   4.201   8.651   0.739 -0.1970 -0.6111  0.7791
 8183SOL     OW31180   9.831   3.694   6.878 -0.2615  0.4718 -0.0228
 8183SOL    HW131181   9.836   3.679   6.780  0.7330 -0.4461  0.1541
 8183SOL    HW231182   9.920   3.727   6.911 -0.1964 -0.4823  0.7639
 8184SOL     OW31183   9.510   4.795   4.762 -0.3220 -0.0362  0.4625
 8184SOL    HW131184   9.505   4.710   4.710 -1.1264  0.2326  0.0905
 8184SOL    HW231185   9.560   4.779   4.847  1.6668 -0.3025 -0.7199
 8185SOL     OW31186   2.313   6.343   4.539 -0.0075  0.1289  0.1626
 8185SOL    HW131187   2.365   6.340   4.624 -0.6318  0.1891  0.5494
 8185SOL    HW231188   2.341   6.422   4.485  1.9181 -1.0764 -0.6805
 8187SOL     OW31189   2.464   1.047   1.124 -0.1964  0.1929  0.1669
 8187SOL    HW131190   2.436   0.961   1.082 -3.8118  1.2973  0.1381
 8187SOL    HW231191   2.394   1.076   1.189  0.6195  3.4669 -0.3301
 8188SOL     OW31192   1.003   0.551   6.632  0.0148 -0.1910 -0.1852
 8188SOL    HW131193   0.957   0.506   6.709  1.1106  0.5876  0.9470
 8188SOL    HW231194   0.974   0.647   6.628 -1.7662 -0.7731 -2.1501
 8189SOL     OW31195   7.039   8.765   3.111  0.2504  0.0318  0.1941
 8189SOL    HW131196   6.970   8.742   3.043  1.6106  0.0538 -1.2415
 8189SOL    HW231197   7.070   8.859   3.096  0.9584 -0.1482  0.5014
 8190SOL     OW31198   4.855   4.551   7.872  0.0111 -0.2295 -0.3572
 8190SOL    HW131199   4.947   4.533   7.836 -0.6949 -3.1522 -0.8015
 8190SOL    HW231200   4.819   4.634   7.829  1.3393 -0.5946 -2.2710
 8191SOL     OW31201   4.752   0.971   4.126 -0.0236  0.1648  0.1122
 8191SOL    HW131202   4.829   1.024   4.162  1.4571 -1.9005  0.0818
 8191SOL    HW231203   4.679   0.967   4.195  0.9359  0.0115  1.1377
 8192SOL     OW31204   8.526   1.801   6.309 -0.3690 -0.2407 -0.1156
 8192SOL    HW131205   8.595   1.733   6.283 -0.4752 -0.0301 -0.9543
 8192SOL    HW231206   8.514   1.866   6.234  1.7100  2.3495  1.7046
 8193SOL     OW31207   0.838   0.310   7.450 -0.2033 -0.7005 -0.5743
 8193SOL    HW131208   0.917   0.367   7.473  1.5940 -3.7608  1.1319
 8193SOL    HW231209   0.763   0.368   7.419  1.1966  2.6740  2.0688
 8194SOL     OW31210   6.274   1.202   5.893  0.6757  0.3890 -0.1531
 8194SOL    HW131211   6.263   1.281   5.953  1.9078 -0.3126  1.0354
 8194SOL    HW231212   6.196   1.141   5.904  0.5960  0.5633  0.2774
 8195SOL     OW31213   1.634   6.195   3.109  0.1725  0.0485  0.2781
 8195SOL    HW131214   1.643   6.123   3.040 -1.7822 -1.4947  1.5697
 8195SOL    HW231215   1.677   6.279   3.076  0.1263 -0.9376 -2.3779
 8196SOL     OW31216   1.000   7.110   3.091  0.8417  0.0720 -0.1935
 8196SOL    HW131217   0.991   7.156   3.180  0.3833  0.0624 -0.2346
 8196SOL    HW231218   1.097   7.097   3.070  0.9407 -0.9032  0.8165
 8197SOL     OW31219   7.693   8.193   2.902 -0.0163 -0.4926  0.5802
 8197SOL    HW131220   7.751   8.159   2.828  0.0566  0.5753  0.1379
 8197SOL    HW231221   7.713   8.289   2.918 -2.1591  0.0883 -0.0662
 8199SOL     OW31222   5.837   0.045   4.241 -0.1646  0.8726  0.1663
 8199SOL    HW131223   5.866   0.132   4.201  1.2775  0.9329  1.2941
 8199SOL    HW231224   5.815  -0.019   4.168  2.2870  1.0174 -0.7492
 8200SOL     OW31225   7.142   4.499   1.950  0.2050  0.0346  0.5714
 8200SOL    HW131226   7.046   4.483   1.924  0.1455  1.2376  0.0199
 8200SOL    HW231227   7.199   4.426   1.911 -0.4677 -0.6265  0.8070
 8202SOL     OW31228   3.551   5.604   0.133  0.0523 -0.2115  0.2742
 8202SOL    HW131229   3.592   5.621   0.223  0.4376  2.4848 -0.3444
 8202SOL    HW231230   3.621   5.616   0.062 -0.4075 -1.6346 -0.4265
 8203SOL     OW31231   9.358   5.593   5.202 -0.3127  0.2985 -0.0428
 8203SOL    HW131232   9.264   5.613   5.176 -0.0245 -0.8340 -2.0935
 8203SOL    HW231233   9.421   5.647   5.146  0.2662  0.6789  0.9597
 8205SOL     OW31234   0.053   7.637   0.363  0.0289  0.0177 -0.4553
 8205SOL    HW131235   0.068   7.544   0.329 -1.2900 -0.0400 -0.9334
 8205SOL    HW231236   0.084   7.643   0.458 -0.9001 -1.2430 -0.0461
 8207SOL     OW31237   0.560   7.051   7.671  0.2648  0.2007  0.1320
 8207SOL    HW131238   0.582   7.142   7.635  0.5985  1.2451  2.8243
 8207SOL    HW231239   0.461   7.040   7.676  0.1721 -0.6568 -2.6836
 8208SOL     OW31240   8.494   5.862   4.380  0.0368  0.1074  0.3525
 8208SOL    HW131241   8.447   5.799   4.442  0.8885  0.2039  1.1132
 8208SOL    HW231242   8.493   5.954   4.420  0.7522  0.1319  0.3195
 8209SOL     OW31243   9.523   7.226   1.997  0.3194  0.4361  0.5656
 8209SOL    HW131244   9.445   7.240   1.936  0.8768 -0.7760 -0.4506
 8209SOL    HW231245   9.604   7.204   1.943  1.8504  3.5401  1.4634
 8211SOL     OW31246   4.708   0.529   0.346  0.7577  0.2087 -0.5551
 8211SOL    HW131247   4.661   0.449   0.308  2.0607  0.3044 -2.3838
 8211SOL    HW231248   4.642   0.602   0.361 -0.1655 -0.6434 -0.3932
 8212SOL     OW31249   4.848   4.035   6.487 -0.4385 -0.0584  0.4580
 8212SOL    HW131250   4.774   4.065   6.547 -1.1985 -3.7492  1.4925
 8212SOL    HW231251   4.936   4.063   6.524 -1.1458  1.7280  0.8101
 8214SOL     OW31252   9.166   4.421   0.640  0.4689  0.9999  0.3021
 8214SOL    HW131253   9.078   4.452   0.605  1.0658  1.9363 -0.3811
 8214SOL    HW231254   9.155   4.331   0.682 -0.7661  1.0144  0.0304
 8215SOL     OW31255   2.936   2.537   3.958 -0.0968 -0.0248  0.6857
 8215SOL    HW131256   2.859   2.498   3.907 -0.7552  0.6057  1.1946
 8215SOL    HW231257   2.928   2.513   4.055 -0.8447  1.8733  1.1115
 8216SOL     OW31258   8.575   4.138   6.011  0.1389  0.0814  0.3659
 8216SOL    HW131259   8.563   4.040   6.024 -0.2626  0.2281  1.1677
 8216SOL    HW231260   8.511   4.170   5.941  0.6046 -0.3086 -0.2418
 8217SOL     OW31261   2.457   6.705   2.855 -0.2267  0.0833 -0.2417
 8217SOL    HW131262   2.482   6.690   2.759 -0.5177 -0.3269 -0.2530
 8217SOL    HW231263   2.406   6.790   2.863 -1.2234 -0.4706 -0.6278
 8220SOL     OW31264   7.595   0.871   6.229  0.5889  0.1160 -0.2267
 8220SOL    HW131265   7.648   0.884   6.313  0.1084  1.5414 -0.1322
 8220SOL    HW231266   7.657   0.867   6.151  1.1559 -2.6590  0.3117
 8221SOL     OW31267   9.948   5.089   3.088  0.1124 -0.5514  0.3348
 8221SOL    HW131268  10.023   5.154   3.091 -0.8086  0.5944 -0.6007
 8221SOL    HW231269   9.899   5.099   3.001 -1.3493 -1.0063  1.0817
 8222SOL     OW31270   6.647   0.330   4.627 -0.2281  0.2259  0.0874
 8222SOL    HW131271   6.635   0.356   4.723  1.7311 -0.5339  0.5596
 8222SOL    HW231272   6.572   0.269   4.599 -0.7822  0.4199  1.1286
 8223SOL     OW31273   8.314   1.584   1.464  0.4817  0.1338  0.4707
 8223SOL    HW131274   8.256   1.662   1.439  0.1490 -0.2603  0.0285
 8223SOL    HW231275   8.386   1.572   1.396  1.2287  0.7566  1.1288
 8224SOL     OW31276   9.445   6.044   5.264 -0.3145 -0.3023 -0.4794
 8224SOL    HW131277   9.435   5.953   5.224  0.1908 -0.6321  0.1364
 8224SOL    HW231278   9.542   6.064   5.278 -0.5557 -1.0053  2.4001
 8225SOL     OW31279   1.283   6.827   6.617 -0.1973 -0.1260  0.0575
 8225SOL    HW131280   1.291   6.768   6.697  0.2472 -0.2756 -0.0963
 8225SOL    HW231281   1.280   6.922   6.646 -0.8543 -0.2194  0.3023
 8226SOL     OW31282   7.161   9.959   2.105  0.0018 -0.1662 -0.0619
 8226SOL    HW131283   7.131   9.952   2.010 -0.0827 -0.3592 -0.0220
 8226SOL    HW231284   7.189   9.869   2.138 -1.0707 -0.3215  0.4527
 8227SOL     OW31285   4.283   1.393   4.509  0.3032 -0.1572 -0.5680
 8227SOL    HW131286   4.317   1.332   4.581  1.3597  0.2073 -0.7542
 8227SOL    HW231287   4.184   1.406   4.521 -0.0073 -2.1733 -0.7237
 8228SOL     OW31288   1.521   5.503   3.456 -0.2187  0.2387  0.4639
 8228SOL    HW131289   1.429   5.529   3.486 -0.5155  0.8483 -0.9751
 8228SOL    HW231290   1.568   5.582   3.418  1.1765  0.0911  1.8115
 8229SOL     OW31291   7.599   7.709   2.034 -0.1599  0.4517  0.3578
 8229SOL    HW131292   7.527   7.678   2.096 -0.2654 -0.8598 -0.3986
 8229SOL    HW231293   7.676   7.746   2.087 -0.3287 -0.4803  1.2535
 8230SOL     OW31294   0.239   7.357   2.338  0.2503  0.3798 -0.2836
 8230SOL    HW131295   0.217   7.347   2.435  0.7095  0.6640 -0.1483
 8230SOL    HW231296   0.267   7.268   2.301 -0.3651  0.1773 -0.2673
 8231SOL     OW31297   0.006   7.829   2.004  0.9943  0.5610  0.7445
 8231SOL    HW131298  -0.073   7.777   2.038 -0.8190  0.9248 -2.6281
 8231SOL    HW231299   0.062   7.769   1.946  2.5240  0.6597  2.0875
 8232SOL     OW31300   4.392   5.591   7.609  0.8910  0.5189  0.1607
 8232SOL    HW131301   4.421   5.541   7.528 -0.3118 -0.1163  0.1079
 8232SOL    HW231302   4.471   5.608   7.668  1.5337 -0.2778 -0.4604
 8233SOL     OW31303   7.649   4.214   4.205 -0.6335 -0.0486  0.2783
 8233SOL    HW131304   7.621   4.265   4.124  0.9779 -1.7680 -1.4037
 8233SOL    HW231305   7.582   4.142   4.224  0.3281 -1.3356 -1.1221
 8234SOL     OW31306   7.799   0.129   6.646  0.1615  0.1398 -0.2234
 8234SOL    HW131307   7.898   0.136   6.659  0.2014  1.5331 -1.1608
 8234SOL    HW231308   7.770   0.197   6.578 -1.8795  2.0094  2.4301
 8235SOL     OW31309   3.183   2.522   3.788 -0.1284 -0.1929 -0.0562
 8235SOL    HW131310   3.091   2.506   3.826 -0.0381  0.7271  0.5591
 8235SOL    HW231311   3.192   2.617   3.761  0.1295 -0.6339 -1.5768
 8237SOL     OW31312   6.795   4.238   2.447  0.0956  0.3186  0.7286
 8237SOL    HW131313   6.826   4.249   2.353 -1.3061  1.9473  0.4363
 8237SOL    HW231314   6.841   4.304   2.506 -1.2492  1.3624  0.6412
 8239SOL     OW31315   3.819   4.665   5.402  0.0608 -0.1562 -0.0750
 8239SOL    HW131316   3.753   4.734   5.373  0.6862  0.2856 -0.4665
 8239SOL    HW231317   3.781   4.612   5.478 -0.1625  1.0775  0.6878
 8240SOL     OW31318   6.545   0.233   4.087  0.0915  0.2339 -0.3208
 8240SOL    HW131319   6.642   0.238   4.063  0.2043  1.0434  0.2523
 8240SOL    HW231320   6.509   0.326   4.094 -0.5167 -0.0487  0.2888
 8242SOL     OW31321   5.290   1.199   4.205 -0.2621  0.1694  0.0203
 8242SOL    HW131322   5.256   1.109   4.231 -0.5709  0.5019  0.7667
 8242SOL    HW231323   5.268   1.265   4.276 -0.9384  1.0444 -0.9791
 8244SOL     OW31324   4.510   0.257   4.176 -0.0456  0.3010  0.4171
 8244SOL    HW131325   4.490   0.173   4.225 -1.6851 -0.0177 -0.7477
 8244SOL    HW231326   4.425   0.297   4.142  0.8440  1.6931 -0.2300
 8245SOL     OW31327   7.435   9.256   5.584 -0.5496  0.1612 -0.6890
 8245SOL    HW131328   7.387   9.192   5.644  0.7346 -0.7689 -0.6172
 8245SOL    HW231329   7.384   9.341   5.577 -1.9036 -0.6000 -0.1693
 8246SOL     OW31330   2.106   8.917   7.273 -0.0900 -0.1521 -0.6974
 8246SOL    HW131331   2.160   8.996   7.244 -1.6673  0.5581 -1.7341
 8246SOL    HW231332   2.102   8.914   7.373  0.5571  0.6798 -0.6426
 8247SOL     OW31333   4.239   5.184   0.618 -0.0835 -0.4299 -0.1964
 8247SOL    HW131334   4.312   5.204   0.553 -0.4310  1.4671 -0.0175
 8247SOL    HW231335   4.183   5.266   0.632 -1.5945 -1.5569  0.4897
 8248SOL     OW31336   4.783   9.516   1.250 -0.2221 -0.0597 -0.5231
 8248SOL    HW131337   4.752   9.466   1.330 -0.1329 -0.5402 -0.7885
 8248SOL    HW231338   4.874   9.484   1.224  0.5637  1.4162  0.3271
 8249SOL     OW31339   0.754   3.179   0.922 -0.0957  0.0742 -0.3111
 8249SOL    HW131340   0.753   3.107   0.853  0.8699  0.2222 -0.4896
 8249SOL    HW231341   0.678   3.242   0.906  0.7317  0.7171 -1.9158
 8250SOL     OW31342   0.429   8.017   3.831  0.1588  0.0830 -0.0719
 8250SOL    HW131343   0.345   8.028   3.778 -0.9261 -0.4846  1.4828
 8250SOL    HW231344   0.482   8.102   3.828  0.3318 -0.0857 -2.3853
 8251SOL     OW31345   7.737   9.932   3.154 -0.3352  0.3483  0.2999
 8251SOL    HW131346   7.761   9.900   3.062 -0.7555  0.1696  0.2513
 8251SOL    HW231347   7.820   9.955   3.204 -0.0782  0.0209  0.0251
 8254SOL     OW31348   6.790   1.624   5.179  0.0399 -0.1958  0.2515
 8254SOL    HW131349   6.723   1.550   5.187  0.0234 -0.2235 -0.1107
 8254SOL    HW231350   6.810   1.640   5.082 -0.6512  0.8948  0.2737
 8256SOL     OW31351   8.871   7.289   5.148  0.6091  0.0564 -0.0892
 8256SOL    HW131352   8.833   7.368   5.195 -0.6974 -0.5054 -0.1693
 8256SOL    HW231353   8.807   7.212   5.155  0.2772  0.0311 -2.9839
 8258SOL     OW31354   5.379   9.203   6.108 -0.7256  0.6266  0.1380
 8258SOL    HW131355   5.400   9.242   6.019 -0.4942  0.2784  0.0411
 8258SOL    HW231356   5.399   9.270   6.179  2.0456 -0.1701  0.1537
 8259SOL     OW31357   7.029   9.970   6.186 -0.5715  0.1719  0.2287
 8259SOL    HW131358   6.997   9.942   6.276  1.5792 -0.2492  0.8800
 8259SOL    HW231359   7.113   9.922   6.163 -0.7949  0.6757 -1.7860
 8261SOL     OW31360   8.367   9.385   7.836  0.1270  0.1552  0.1735
 8261SOL    HW131361   8.293   9.453   7.835  0.4576  0.5186  0.0111
 8261SOL    HW231362   8.383   9.354   7.929  0.9337  1.3691  0.4530
 8262SOL     OW31363   8.265   7.200   3.799 -0.0010  0.5231 -0.0974
 8262SOL    HW131364   8.315   7.206   3.712 -2.0127 -0.1844 -1.3358
 8262SOL    HW231365   8.219   7.287   3.816  0.1932  0.5803  0.1262
 8263SOL     OW31366   3.139   7.945   2.522  0.2703  0.2227  0.2924
 8263SOL    HW131367   3.142   8.041   2.494  0.8686  0.2186  0.3488
 8263SOL    HW231368   3.192   7.890   2.458  1.1848  0.1357  1.1215
 8264SOL     OW31369   7.519   6.110   2.309 -0.1459 -0.8570  0.0550
 8264SOL    HW131370   7.566   6.022   2.319 -0.7841 -0.9939  2.0530
 8264SOL    HW231371   7.533   6.145   2.216  1.2794 -2.3859 -0.3258
 8266SOL     OW31372   0.462   5.779   1.645  0.3299  0.2279  0.7143
 8266SOL    HW131373   0.378   5.804   1.598  0.2840 -0.3259  0.5004
 8266SOL    HW231374   0.503   5.861   1.687  0.2936  0.6915 -0.1483
 8267SOL     OW31375   5.258   4.110   0.847  0.4450 -0.0255 -0.2113
 8267SOL    HW131376   5.306   4.084   0.931  1.6528  0.1735 -0.8333
 8267SOL    HW231377   5.301   4.065   0.769 -1.1021 -0.7606 -0.6629
 8268SOL     OW31378   6.610   0.510   7.806 -0.2866  0.1320  0.0136
 8268SOL    HW131379   6.577   0.425   7.765 -0.3543  0.4486 -0.5938
 8268SOL    HW231380   6.707   0.521   7.784  0.4679 -1.2182  2.4903
 8269SOL     OW31381   7.053   5.120   3.388 -0.2979 -0.1036 -0.1545
 8269SOL    HW131382   6.980   5.054   3.372 -0.0038 -0.8716  1.5380
 8269SOL    HW231383   7.121   5.080   3.450  1.4147  0.7083 -1.4758
 8273SOL     OW31384   7.715   4.217   1.428 -0.6037 -0.2400  0.0840
 8273SOL    HW131385   7.634   4.257   1.386 -1.0510  0.3446  1.5136
 8273SOL    HW231386   7.711   4.227   1.527  0.7194 -1.1340  0.2440
 8274SOL     OW31387   4.949   7.246   1.157 -0.1715  0.1078  0.2619
 8274SOL    HW131388   5.015   7.187   1.112 -1.0584 -0.1956 -0.6687
 8274SOL    HW231389   4.857   7.221   1.129 -0.6295  1.2125  0.7147
 8275SOL     OW31390   8.891   8.695   7.735 -0.3763  0.1302  0.4152
 8275SOL    HW131391   8.991   8.703   7.740 -0.4244  0.0330  1.9162
 8275SOL    HW231392   8.850   8.733   7.818 -1.6187  0.5419 -0.3711
 8276SOL     OW31393   5.524   0.537   2.254  0.3358  0.2890  0.2237
 8276SOL    HW131394   5.486   0.557   2.345  2.9694  0.3867  1.3470
 8276SOL    HW231395   5.532   0.438   2.243 -0.1684  0.2711  0.0226
 8277SOL     OW31396   5.186   5.813   2.563 -0.3540 -0.0999  0.2955
 8277SOL    HW131397   5.273   5.862   2.558 -1.1122  1.2530  0.2933
 8277SOL    HW231398   5.148   5.822   2.655 -0.0228 -1.5404  0.5954
 8278SOL     OW31399   0.714   0.320   4.077  0.4362 -0.1809  0.3814
 8278SOL    HW131400   0.759   0.316   4.167 -0.3472  1.6788  0.8603
 8278SOL    HW231401   0.768   0.377   4.016  0.5548 -0.8191 -0.1203
 8279SOL     OW31402   7.249   6.756   7.460  0.3642  0.3486  0.4628
 8279SOL    HW131403   7.295   6.769   7.547  0.5791 -0.3667  0.4642
 8279SOL    HW231404   7.201   6.839   7.434  0.5820  0.6720  1.0974
 8280SOL     OW31405   3.899   5.530   3.703 -0.0554 -0.0281  0.0503
 8280SOL    HW131406   3.963   5.454   3.709  0.6809  0.4742 -1.2422
 8280SOL    HW231407   3.949   5.616   3.708 -0.7609  0.3740  0.2657
 8281SOL     OW31408   8.192   6.675   7.863  0.8485  0.2399  0.5691
 8281SOL    HW131409   8.252   6.744   7.824  0.0816  0.0685 -0.9524
 8281SOL    HW231410   8.208   6.587   7.817 -0.5569  0.1968  0.1511
 8282SOL     OW31411   1.716   0.613   6.537  0.3515 -0.5753 -0.3053
 8282SOL    HW131412   1.783   0.546   6.505 -1.2362 -1.4168 -1.9691
 8282SOL    HW231413   1.715   0.613   6.637  1.6869 -1.6838 -0.2651
 8283SOL     OW31414   8.626   1.103   5.519 -0.6323 -0.1633  0.8164
 8283SOL    HW131415   8.546   1.050   5.488 -1.4146  0.7515  1.2393
 8283SOL    HW231416   8.707   1.071   5.471 -1.8696  1.4093 -2.4912
 8284SOL     OW31417   8.071   0.729   1.502 -0.8009  0.3099 -0.0592
 8284SOL    HW131418   8.109   0.637   1.492 -2.1370 -0.2834  0.1924
 8284SOL    HW231419   8.123   0.793   1.446 -0.0305 -0.6468 -0.4529
 8285SOL     OW31420   8.874   2.527   0.459 -0.3217 -0.0745 -0.0630
 8285SOL    HW131421   8.927   2.603   0.422  0.1922  0.4452  1.6931
 8285SOL    HW231422   8.786   2.561   0.492 -0.9266 -0.5932 -1.1186
 8287SOL     OW31423   7.062   4.019   1.312 -0.0295 -0.4582 -0.5014
 8287SOL    HW131424   7.066   4.113   1.280  1.0731 -1.0374 -2.1339
 8287SOL    HW231425   6.988   4.009   1.378 -1.6293  1.0409 -2.0282
 8289SOL     OW31426   4.860   9.362   4.535 -0.1638 -0.3230  0.1188
 8289SOL    HW131427   4.931   9.368   4.606  0.9173 -1.6511 -0.8039
 8289SOL    HW231428   4.855   9.449   4.486  1.1269 -0.3300 -0.0558
 8290SOL     OW31429   5.916   3.585   1.800  0.0961  0.4480  0.0869
 8290SOL    HW131430   5.980   3.641   1.853  0.1972  0.2746  0.1479
 8290SOL    HW231431   5.966   3.534   1.731  0.1844 -0.6587  0.9639
 8291SOL     OW31432   0.116   5.147   2.699  0.4996 -0.8414 -0.7108
 8291SOL    HW131433   0.120   5.055   2.661  1.4195 -0.5295 -1.3667
 8291SOL    HW231434   0.208   5.187   2.700  0.1114  0.0535 -0.3924
 8292SOL     OW31435   3.969   9.143   2.625  0.0694  0.2411 -0.1767
 8292SOL    HW131436   4.059   9.137   2.670  0.1685 -1.5441 -0.5738
 8292SOL    HW231437   3.899   9.160   2.694  0.7475  2.0014  0.0958
 8293SOL     OW31438   2.178   0.900   4.340 -0.0824 -0.5817 -0.1845
 8293SOL    HW131439   2.090   0.929   4.303  0.6596  2.3989  0.2755
 8293SOL    HW231440   2.179   0.914   4.439  0.7987 -0.8565 -0.1532
 8296SOL     OW31441   1.345   6.294   1.704  0.1200 -0.0666  0.5161
 8296SOL    HW131442   1.253   6.279   1.668  0.5411  0.1370 -0.6721
 8296SOL    HW231443   1.404   6.218   1.677 -0.2294 -1.3461  3.2105
 8299SOL     OW31444   5.065   8.850   1.632 -0.0442  0.0376 -0.9181
 8299SOL    HW131445   5.107   8.895   1.554  2.7108 -0.0525  0.4525
 8299SOL    HW231446   5.106   8.760   1.645 -1.4715 -0.5228 -0.2129
 8300SOL     OW31447   6.310   1.166   3.358 -0.0055 -0.0353 -0.4513
 8300SOL    HW131448   6.391   1.109   3.362 -0.4857 -0.7075 -0.2415
 8300SOL    HW231449   6.307   1.213   3.270  1.0414  0.6421 -0.1267
 8301SOL     OW31450   1.471   1.542   4.091 -0.0382 -0.1703 -0.4676
 8301SOL    HW131451   1.392   1.577   4.040  0.2575  0.2280 -0.6616
 8301SOL    HW231452   1.523   1.619   4.128  0.7620 -0.3939 -1.1072
 8302SOL     OW31453   6.940   4.152   7.765 -0.6496  0.1180  0.1576
 8302SOL    HW131454   7.017   4.206   7.798  0.2812 -1.4352  0.5530
 8302SOL    HW231455   6.969   4.096   7.688 -0.9597 -1.6815  1.3237
 8303SOL     OW31456   1.770   2.621   6.954 -0.9176  1.0291 -1.0442
 8303SOL    HW131457   1.686   2.576   6.923 -2.7131  3.0398  0.7484
 8303SOL    HW231458   1.816   2.662   6.875 -2.8635  1.9097 -1.7513
 8304SOL     OW31459   9.012   2.908   6.135 -0.1403 -0.1513 -0.0219
 8304SOL    HW131460   8.998   2.809   6.141 -0.2849 -0.0824  0.8242
 8304SOL    HW231461   8.930   2.955   6.167 -0.2104  0.2495 -0.7718
 8305SOL     OW31462   4.274   0.588   5.463 -0.1849  0.2028  0.6972
 8305SOL    HW131463   4.211   0.569   5.387 -2.0000  1.6902  1.7823
 8305SOL    HW231464   4.226   0.640   5.534  2.1198  0.8322  1.8434
 8306SOL     OW31465   7.597   3.527   1.739  0.3250 -0.4138 -0.0047
 8306SOL    HW131466   7.584   3.431   1.715 -0.2498  0.1274 -1.9496
 8306SOL    HW231467   7.694   3.551   1.726  0.5487 -0.8273  0.8778
 8307SOL     OW31468   5.844   9.335   4.827 -0.0633  0.1425 -0.3605
 8307SOL    HW131469   5.764   9.313   4.772  0.3000  3.5619 -2.3268
 8307SOL    HW231470   5.816   9.391   4.905  0.4400  1.6437 -1.2481
 8309SOL     OW31471   7.640   9.580   3.001 -0.5133  0.3393  0.1473
 8309SOL    HW131472   7.611   9.520   2.926 -0.0496  0.8001 -0.4121
 8309SOL    HW231473   7.611   9.542   3.088 -0.1529 -0.7431 -0.2016
 8310SOL     OW31474   9.175   7.215   1.464 -0.4175  0.8433  0.0186
 8310SOL    HW131475   9.090   7.163   1.473 -0.5456  0.9691 -0.4293
 8310SOL    HW231476   9.248   7.155   1.433 -0.2930  0.6914  0.6071
 8311SOL     OW31477   8.459   2.285   5.866 -0.0303  0.4201  0.9095
 8311SOL    HW131478   8.415   2.248   5.784  1.6213  1.6348 -0.5930
 8311SOL    HW231479   8.394   2.339   5.918 -1.0638 -0.2176  0.2892
 8312SOL     OW31480   0.896   5.916   1.533 -0.0922  0.4733 -0.5807
 8312SOL    HW131481   0.962   5.920   1.609 -0.4908 -0.1970 -0.1933
 8312SOL    HW231482   0.912   5.993   1.471 -0.4549  1.6568  0.7640
 8313SOL     OW31483   1.134   0.917   5.657 -1.0606 -0.7065  0.4382
 8313SOL    HW131484   1.180   0.943   5.741 -0.5139  0.9120 -0.3289
 8313SOL    HW231485   1.153   0.986   5.586 -2.7999 -1.1968 -0.5385
 8314SOL     OW31486   0.408   8.577   1.538  0.4722  0.4493  0.2330
 8314SOL    HW131487   0.407   8.670   1.574  0.8458  1.1229 -1.4478
 8314SOL    HW231488   0.315   8.540   1.537  0.3538  0.7008  1.1080
 8315SOL     OW31489   6.409   4.506   0.883 -0.0431 -0.5267  0.8149
 8315SOL    HW131490   6.340   4.535   0.817 -0.5171 -1.4992  0.8825
 8315SOL    HW231491   6.379   4.532   0.975  0.4267  0.4615  0.6963
 8316SOL     OW31492   9.382   1.802   2.329  0.5112 -0.3412 -0.0275
 8316SOL    HW131493   9.403   1.819   2.426 -1.0970 -2.6584  0.7828
 8316SOL    HW231494   9.353   1.887   2.286  0.2003  0.5204  1.8183
 8317SOL     OW31495   3.319   7.327   4.778  0.0535 -0.5293  0.2312
 8317SOL    HW131496   3.240   7.265   4.780  0.0940 -0.6100 -0.4511
 8317SOL    HW231497   3.376   7.310   4.858 -0.5019 -0.6343  0.6056
 8318SOL     OW31498   0.465   2.349   1.669  0.0728 -0.1183 -0.0726
 8318SOL    HW131499   0.454   2.448   1.684 -1.2074 -0.3145  0.3919
 8318SOL    HW231500   0.415   2.299   1.740  0.9598 -1.1046 -0.1359
 8319SOL     OW31501   1.255   7.448   7.770 -0.2069  0.4578 -0.2021
 8319SOL    HW131502   1.325   7.509   7.807 -0.1483  0.2183  0.0881
 8319SOL    HW231503   1.172   7.455   7.827 -0.8162  1.5863 -1.2038
 8321SOL     OW31504   1.250   9.605   1.172 -0.1274  0.0164 -0.4531
 8321SOL    HW131505   1.254   9.616   1.271 -0.9125  0.2626 -0.4475
 8321SOL    HW231506   1.232   9.694   1.129 -0.4731 -0.2064 -0.7757
 8322SOL     OW31507   7.948   8.252   1.134  0.0925 -0.3238  0.4295
 8322SOL    HW131508   7.981   8.346   1.146  0.3114 -0.3076 -0.2607
 8322SOL    HW231509   8.024   8.193   1.106 -0.4697 -0.2688 -1.2727
 8323SOL     OW31510   1.842   8.768   4.789  0.1667  0.3399  0.2061
 8323SOL    HW131511   1.825   8.684   4.841 -0.2363  0.7724  0.7807
 8323SOL    HW231512   1.763   8.786   4.730  0.5904 -0.1083 -0.5127
 8324SOL     OW31513   3.480   4.307   3.679  0.4534  1.1933 -0.1774
 8324SOL    HW131514   3.484   4.406   3.662 -1.6133  1.0777 -1.4788
 8324SOL    HW231515   3.415   4.265   3.616  0.8283 -0.9141  0.8090
 8327SOL     OW31516   7.683   3.763   4.991 -0.9755 -0.1969  0.1670
 8327SOL    HW131517   7.751   3.690   4.987 -0.1185  0.5342  1.0323
 8327SOL    HW231518   7.730   3.852   4.993 -2.0032  0.4521 -2.1376
 8328SOL     OW31519   5.612   0.858   5.285  0.6761 -0.0085  0.3251
 8328SOL    HW131520   5.677   0.906   5.344  1.0905  0.0191 -0.1561
 8328SOL    HW231521   5.557   0.795   5.341 -1.1365  2.3158  1.2887
 8329SOL     OW31522   9.770   2.318   3.882  0.0487 -0.3104 -0.2760
 8329SOL    HW131523   9.809   2.368   3.806  0.1185 -1.4282 -0.9889
 8329SOL    HW231524   9.671   2.309   3.870 -0.3828  1.9116  1.1793
 8330SOL     OW31525   0.867   3.327   6.863  0.1837  0.5957 -0.3431
 8330SOL    HW131526   0.853   3.426   6.866 -0.7347  0.4511  0.3254
 8330SOL    HW231527   0.796   3.282   6.917  0.3312 -0.4553 -1.0184
 8331SOL     OW31528   7.343   6.227   5.740  1.0032 -0.3859  0.2324
 8331SOL    HW131529   7.284   6.305   5.759  0.1184 -1.3214  1.3937
 8331SOL    HW231530   7.428   6.237   5.791 -0.4771 -1.8102  3.0868
 8332SOL     OW31531   4.315   4.476   5.051 -0.5218  0.0295 -0.0507
 8332SOL    HW131532   4.228   4.525   5.058 -0.8265 -0.2295 -1.8104
 8332SOL    HW231533   4.306   4.399   4.988  0.8679 -0.2371  0.0480
 8335SOL     OW31534   4.684   1.650   5.581  0.3664  0.4578  0.5206
 8335SOL    HW131535   4.654   1.573   5.526  1.6441 -0.1552  0.6679
 8335SOL    HW231536   4.783   1.650   5.588  0.2753  0.9752  2.1752
 8336SOL     OW31537   2.167   6.950   7.234 -0.5490  0.2169 -0.3470
 8336SOL    HW131538   2.207   6.949   7.143  0.1854  0.9453 -0.0348
 8336SOL    HW231539   2.068   6.963   7.227 -0.4572  0.5677 -1.0249
 8337SOL     OW31540   3.223   8.832   3.532 -0.1035  0.3119 -0.2440
 8337SOL    HW131541   3.262   8.922   3.553 -1.1612  0.3233  1.8185
 8337SOL    HW231542   3.259   8.764   3.596 -0.7836 -0.3527 -0.5623
 8339SOL     OW31543   7.755   3.867   0.151  0.7171  0.4911 -0.5764
 8339SOL    HW131544   7.700   3.877   0.068  0.8744  1.1776 -0.5976
 8339SOL    HW231545   7.849   3.897   0.133  1.2373 -1.1333 -0.6827
 8341SOL     OW31546   8.357   6.395   7.010  0.2312 -0.2181 -0.6131
 8341SOL    HW131547   8.284   6.445   6.963  0.2173  0.5929  0.2553
 8341SOL    HW231548   8.343   6.401   7.108  1.2700 -0.3721 -0.4501
 8342SOL     OW31549   7.803   4.925   0.599 -0.2339 -0.1439 -0.0604
 8342SOL    HW131550   7.726   4.869   0.628  0.4375  0.1219  2.2925
 8342SOL    HW231551   7.793   5.018   0.634  1.2741 -0.1777  0.5068
 8343SOL     OW31552   9.512   1.348   7.015  0.0233 -0.4665 -0.3649
 8343SOL    HW131553   9.547   1.256   7.003  1.5184  0.4163 -3.0762
 8343SOL    HW231554   9.416   1.351   6.987  0.1125 -1.0953 -0.7566
 8345SOL     OW31555   2.015   9.971   4.065  0.0577  0.6047  0.2263
 8345SOL    HW131556   1.943   9.922   4.114  0.1291 -0.0461 -0.3210
 8345SOL    HW231557   2.101   9.964   4.117  0.2854 -0.6419 -0.3250
 8347SOL     OW31558   2.667   8.615   6.301 -0.5113  0.7467 -0.2607
 8347SOL    HW131559   2.712   8.608   6.212  0.2076 -2.4265  0.2777
 8347SOL    HW231560   2.568   8.611   6.289 -0.4182  0.2688 -0.9050
 8348SOL     OW31561   0.505   2.814   1.094  0.3692  0.0859  0.3535
 8348SOL    HW131562   0.537   2.896   1.141 -0.8307  0.4395  0.5730
 8348SOL    HW231563   0.439   2.766   1.153  0.2513 -0.4501 -0.2148
 8349SOL     OW31564   1.335   2.602   5.026 -0.4677  0.1899 -0.4435
 8349SOL    HW131565   1.250   2.575   5.071 -0.0286  0.7889  0.7714
 8349SOL    HW231566   1.324   2.598   4.927 -1.3096 -1.5884 -0.2835
 8350SOL     OW31567   8.805   6.301   3.728  0.4118 -0.0908 -0.2512
 8350SOL    HW131568   8.828   6.301   3.825 -1.7625 -1.7076  0.3010
 8350SOL    HW231569   8.784   6.394   3.698 -1.4869  0.0887  1.5153
 8351SOL     OW31570   2.790   4.010   1.789  0.6411 -0.0876  0.7532
 8351SOL    HW131571   2.717   4.073   1.764  0.0151 -1.0668  0.0879
 8351SOL    HW231572   2.797   4.005   1.888 -1.5379 -1.5157  0.8507
 8352SOL     OW31573   7.322   3.222   0.485 -0.0712 -0.2695 -0.1993
 8352SOL    HW131574   7.283   3.134   0.514 -1.0956 -0.0553 -0.8693
 8352SOL    HW231575   7.377   3.208   0.402  0.5620 -0.4346  0.2493
 8354SOL     OW31576   4.079   0.510   0.260  0.7012  0.0782  0.2473
 8354SOL    HW131577   4.136   0.505   0.342 -1.1266 -0.4160  1.5230
 8354SOL    HW231578   4.084   0.602   0.221 -0.4628  1.1270  2.4703
 8355SOL     OW31579   2.410   6.297   6.618 -0.2130 -0.0221 -0.7746
 8355SOL    HW131580   2.383   6.283   6.523  0.3214  1.6111 -1.1788
 8355SOL    HW231581   2.330   6.288   6.677 -0.5817 -0.8339 -1.3816
 8356SOL     OW31582   1.773   8.023   0.631  0.0744 -0.0402 -0.3595
 8356SOL    HW131583   1.727   8.099   0.677  0.6767 -0.3891  0.8325
 8356SOL    HW231584   1.741   8.017   0.537  0.8379  2.3595 -0.7851
 8357SOL     OW31585   1.979   1.780   4.836 -0.2763 -0.7319  0.0639
 8357SOL    HW131586   1.897   1.796   4.782 -0.9117  1.1162  1.5228
 8357SOL    HW231587   2.048   1.849   4.814 -0.2810 -0.3924  1.0739
 8358SOL     OW31588   0.761   6.463   0.630  0.4140 -0.2289  0.3346
 8358SOL    HW131589   0.681   6.521   0.614  0.7552  0.3367  0.6248
 8358SOL    HW231590   0.764   6.437   0.727  1.7000  1.4820  0.7835
 8359SOL     OW31591   3.591   0.656   0.734 -0.2125 -0.0217  0.4082
 8359SOL    HW131592   3.531   0.615   0.802 -1.2201 -1.5893 -1.3724
 8359SOL    HW231593   3.664   0.591   0.710 -0.9802 -0.2768 -1.3720
 8360SOL     OW31594   7.615   1.402   0.199  0.0511  0.4621  0.7274
 8360SOL    HW131595   7.713   1.404   0.219  0.0513 -0.5339  0.8401
 8360SOL    HW231596   7.565   1.370   0.280 -0.1847 -0.9899  0.0228
 8362SOL     OW31597   1.613   7.924   2.124  0.2582  0.2641 -0.9572
 8362SOL    HW131598   1.578   7.870   2.047 -1.1405 -1.3657  0.7803
 8362SOL    HW231599   1.707   7.897   2.145  0.0128 -0.5751 -0.9337
 8363SOL     OW31600   9.935   6.653   6.736 -0.2973 -0.2088 -0.1481
 8363SOL    HW131601   9.995   6.661   6.656  0.5160 -0.8048  0.4010
 8363SOL    HW231602   9.949   6.565   6.780 -0.9050  0.0286  0.5331
 8364SOL     OW31603   9.359   3.042   5.497 -0.3563 -0.6258  0.0642
 8364SOL    HW131604   9.292   3.082   5.561  0.4709 -0.2136  0.6880
 8364SOL    HW231605   9.411   2.971   5.544 -0.3356 -0.9273 -0.4152
 8365SOL     OW31606   2.811   4.936   4.364 -0.0922  0.1980  0.2407
 8365SOL    HW131607   2.711   4.928   4.373 -0.1948 -0.2907 -1.2266
 8365SOL    HW231608   2.849   4.971   4.450 -1.6029  1.1170  0.5621
 8367SOL     OW31609   1.854   4.999   4.359  0.1444  0.8088  0.1437
 8367SOL    HW131610   1.836   5.082   4.306 -1.9344  0.4986  0.3263
 8367SOL    HW231611   1.839   4.919   4.301 -0.0716  0.5102  0.6114
 8368SOL     OW31612   8.613   1.802   6.979 -0.2646 -0.1149 -0.1166
 8368SOL    HW131613   8.607   1.834   7.074 -3.6555 -2.0966  0.4238
 8368SOL    HW231614   8.671   1.720   6.976 -0.1568 -0.0559  0.2729
 8370SOL     OW31615   2.864   4.929   4.657 -0.1587  0.1876 -0.2555
 8370SOL    HW131616   2.785   4.877   4.627 -0.4116  0.6680 -0.4295
 8370SOL    HW231617   2.844   4.973   4.744 -0.1812  0.5269 -0.4298
 8371SOL     OW31618   8.163   0.856   6.016  0.0740 -0.0553  0.2004
 8371SOL    HW131619   8.193   0.904   6.098  0.2569  0.2524 -0.0415
 8371SOL    HW231620   8.161   0.921   5.939  0.4872 -0.4752 -0.1636
 8372SOL     OW31621   2.448   3.296   4.284  0.1211  0.2615  0.0467
 8372SOL    HW131622   2.526   3.260   4.233 -0.9172  0.0106 -1.4119
 8372SOL    HW231623   2.428   3.389   4.252 -3.6694 -1.6924 -3.7409
 8373SOL     OW31624   6.314   1.721   3.440 -0.1939 -0.1046  0.5699
 8373SOL    HW131625   6.390   1.763   3.390  0.7261 -2.4982 -0.0900
 8373SOL    HW231626   6.267   1.655   3.381 -0.3661 -1.4668  2.1992
 8374SOL     OW31627   7.636   4.832   3.592 -0.0510  0.5978  0.6622
 8374SOL    HW131628   7.566   4.777   3.547  0.7811 -0.8933  1.1495
 8374SOL    HW231629   7.605   4.855   3.684  0.3874 -0.6759  1.1399
 8375SOL     OW31630   3.141   0.445   3.673 -0.4918 -0.0113  0.3596
 8375SOL    HW131631   3.114   0.512   3.743 -0.6197 -0.4892  0.7662
 8375SOL    HW231632   3.198   0.375   3.714  1.1392  0.8259 -0.4300
 8376SOL     OW31633   1.017   2.678   1.144  0.0212  0.0052 -0.2854
 8376SOL    HW131634   0.935   2.734   1.131 -1.0072 -1.2275  0.8419
 8376SOL    HW231635   0.991   2.582   1.146  1.8001 -0.5457 -2.3855
 8378SOL     OW31636   8.232   1.369   0.019 -0.4790 -0.5024  0.3280
 8378SOL    HW131637   8.265   1.329  -0.067 -0.5233 -2.7410  1.2949
 8378SOL    HW231638   8.147   1.418   0.003 -0.6359 -1.1340 -0.8629
 8379SOL     OW31639   7.937   9.132   3.761  0.1066 -0.2503  0.5447
 8379SOL    HW131640   8.005   9.060   3.746 -3.3255 -2.9014 -3.7584
 8379SOL    HW231641   7.973   9.219   3.729  1.7455 -1.4729 -1.0394
 8380SOL     OW31642   3.227   9.564   3.189  0.1649  0.4022 -0.2215
 8380SOL    HW131643   3.140   9.606   3.161 -0.9362 -0.5568  1.6909
 8380SOL    HW231644   3.295   9.636   3.202 -1.0881  1.4208  0.9090
 8381SOL     OW31645   9.764   3.722   1.582  0.2095  0.1572 -0.3697
 8381SOL    HW131646   9.778   3.623   1.577  1.9216  0.2619  1.9137
 8381SOL    HW231647   9.673   3.740   1.620  0.1744 -0.5158 -0.1216
 8382SOL     OW31648   4.316   9.287   5.802  0.5605 -0.4415 -0.6385
 8382SOL    HW131649   4.355   9.274   5.893 -1.3044 -0.8179  0.1240
 8382SOL    HW231650   4.356   9.221   5.739  1.3107 -0.6705  0.0658
 8383SOL     OW31651   5.184   1.746   0.256 -0.1923  0.3591 -0.0509
 8383SOL    HW131652   5.182   1.831   0.203  1.0073  0.7783  0.5642
 8383SOL    HW231653   5.137   1.761   0.343 -0.4336  0.2376 -0.1594
 8384SOL     OW31654   0.324   2.636   1.233 -0.0680  0.2159  0.1273
 8384SOL    HW131655   0.396   2.587   1.281 -0.1476  0.6226  0.6708
 8384SOL    HW231656   0.235   2.608   1.269 -0.0628  1.7089  1.3616
 8385SOL     OW31657   8.252   9.111   3.959  0.6602 -0.1420  0.2448
 8385SOL    HW131658   8.318   9.108   3.884 -1.1956 -2.2224 -1.4008
 8385SOL    HW231659   8.296   9.081   4.044  1.9804 -0.9124 -0.6917
 8386SOL     OW31660   2.270   8.161   2.121 -0.2707  0.2870 -0.2682
 8386SOL    HW131661   2.261   8.061   2.118  0.6406  0.1466  0.9876
 8386SOL    HW231662   2.182   8.201   2.148 -1.0254 -0.0672 -2.1179
 8387SOL     OW31663   7.442   5.357   7.369  0.5955 -0.1372  0.2082
 8387SOL    HW131664   7.429   5.327   7.463  3.1791 -1.7979  0.0934
 8387SOL    HW231665   7.505   5.435   7.368  0.6539 -0.1896 -0.1470
 8390SOL     OW31666   5.499   8.675   7.588  0.3368 -0.6703  0.2469
 8390SOL    HW131667   5.423   8.678   7.652 -0.7006  2.9413 -1.0230
 8390SOL    HW231668   5.474   8.621   7.508 -0.4509 -0.4681  0.3564
 8391SOL     OW31669   2.906   6.192   5.095 -0.5100 -0.1534 -0.0230
 8391SOL    HW131670   2.827   6.153   5.048 -1.2852  1.6052 -0.1958
 8391SOL    HW231671   2.949   6.121   5.151 -2.3397 -1.0769  0.2628
 8393SOL     OW31672   2.354   5.659   5.408  0.0298 -0.1434  0.3798
 8393SOL    HW131673   2.289   5.624   5.475 -1.3964  0.6192 -0.5951
 8393SOL    HW231674   2.310   5.665   5.319  1.0785  1.5042 -0.0480
 8394SOL     OW31675   3.428   2.801   5.603 -0.2996 -0.5236 -0.1139
 8394SOL    HW131676   3.502   2.848   5.651 -1.1844 -0.9177  1.6584
 8394SOL    HW231677   3.417   2.709   5.640 -0.7934 -0.9438 -1.2893
 8395SOL     OW31678   2.451   6.699   7.229 -0.5941 -0.1670 -0.6355
 8395SOL    HW131679   2.402   6.777   7.269 -0.9204 -1.2162  1.0727
 8395SOL    HW231680   2.415   6.681   7.138 -0.4216  1.7546 -1.1099
 8396SOL     OW31681   6.879   3.214   0.438 -0.2908  0.1694 -0.0319
 8396SOL    HW131682   6.963   3.269   0.431 -1.4438  1.9630 -0.2797
 8396SOL    HW231683   6.814   3.260   0.498 -0.7788 -1.6392  0.8502
 8397SOL     OW31684   4.046   6.198   2.299  0.0442  0.3635 -0.1749
 8397SOL    HW131685   4.030   6.107   2.338 -1.7884  0.5195 -0.5144
 8397SOL    HW231686   4.099   6.253   2.363 -0.3819 -0.3582  0.8029
 8399SOL     OW31687   1.841   7.654   1.993  0.0951 -0.4761 -0.3277
 8399SOL    HW131688   1.909   7.723   1.969 -0.0257  0.0492  0.7860
 8399SOL    HW231689   1.749   7.690   1.976  0.0531 -0.7019 -0.5925
 8400SOL     OW31690   3.004   6.343   3.662  0.7511  0.1613  0.7093
 8400SOL    HW131691   2.949   6.324   3.582  2.5881 -0.0251 -0.5470
 8400SOL    HW231692   3.006   6.442   3.679 -0.6312  0.0998  1.2627
 8401SOL     OW31693   7.484   8.213   4.550 -0.2249  0.3150 -0.5121
 8401SOL    HW131694   7.407   8.217   4.613 -0.3182  1.0494 -0.6672
 8401SOL    HW231695   7.569   8.207   4.601 -0.2551  1.5988 -0.2952
 8402SOL     OW31696   2.442   1.805   2.293  0.0317 -0.5575  0.1004
 8402SOL    HW131697   2.446   1.798   2.392 -1.4715  0.3392  0.2468
 8402SOL    HW231698   2.410   1.896   2.267 -0.4578 -1.0798 -1.1713
 8404SOL     OW31699   8.318   3.286   5.136 -0.0800 -0.3578 -0.2442
 8404SOL    HW131700   8.348   3.364   5.082  1.4541 -1.1793 -0.6372
 8404SOL    HW231701   8.399   3.236   5.168 -1.0397 -2.4293 -0.9784
 8405SOL     OW31702   2.769   9.213   5.042  0.2991  0.1766 -0.1282
 8405SOL    HW131703   2.699   9.239   4.975  1.1011  1.2418 -0.5621
 8405SOL    HW231704   2.859   9.232   5.005  0.8256 -0.9998  0.5171
 8406SOL     OW31705   7.781   4.425   7.702 -0.2165  0.1894 -0.3500
 8406SOL    HW131706   7.826   4.499   7.652 -3.1339  1.0790 -1.7416
 8406SOL    HW231707   7.792   4.339   7.651  0.2167  0.3138 -0.4681
 8407SOL     OW31708   2.745   1.251   3.867  0.2353 -0.4606  0.0008
 8407SOL    HW131709   2.810   1.290   3.802  0.1837 -1.7314 -0.8313
 8407SOL    HW231710   2.652   1.275   3.839  0.2059 -1.1417 -0.4780
 8408SOL     OW31711   1.719   2.347   5.140 -0.6407 -0.1179  0.3248
 8408SOL    HW131712   1.661   2.428   5.131 -0.4899  0.0786  1.0736
 8408SOL    HW231713   1.686   2.290   5.215  0.4481  0.2802  1.1282
 8409SOL     OW31714   2.694   7.051   7.516  0.4903  0.4790 -0.1512
 8409SOL    HW131715   2.755   6.972   7.509 -0.3089 -0.1638  0.0475
 8409SOL    HW231716   2.599   7.019   7.519 -0.0029  1.5638 -2.7548
 8410SOL     OW31717   0.584   8.497   4.856  0.0137  0.2235  0.1056
 8410SOL    HW131718   0.589   8.418   4.796  1.5927  0.3219  0.0905
 8410SOL    HW231719   0.676   8.522   4.886 -0.6982  0.4962  2.1412
 8411SOL     OW31720   4.444   8.881   2.754  0.2151 -0.3297 -0.2671
 8411SOL    HW131721   4.387   8.913   2.678 -0.8650  1.8741  1.3921
 8411SOL    HW231722   4.494   8.958   2.793  0.3016 -1.2915  1.6018
 8412SOL     OW31723   4.498   2.062   5.316 -0.0681  0.4096 -0.0186
 8412SOL    HW131724   4.585   2.014   5.301 -0.1819  0.6358 -1.4654
 8412SOL    HW231725   4.426   1.996   5.335  0.2755  0.1847  0.5413
 8413SOL     OW31726   6.146   1.668   0.678 -0.0192  0.0842  0.4041
 8413SOL    HW131727   6.121   1.727   0.754  1.7506  0.7345  0.5211
 8413SOL    HW231728   6.160   1.723   0.595  2.1235 -0.0693  0.6343
 8414SOL     OW31729   1.409   8.156   0.457  0.1411 -0.1605  0.4799
 8414SOL    HW131730   1.323   8.104   0.450  0.5727 -0.9419  0.9615
 8414SOL    HW231731   1.485   8.093   0.470  0.6179  0.6154  1.5078
 8415SOL     OW31732   5.489   1.560   5.414  0.8117 -0.2452  0.3675
 8415SOL    HW131733   5.405   1.591   5.458  1.5234  0.6899  1.0926
 8415SOL    HW231734   5.561   1.552   5.482  2.0584  1.6816 -0.7117
 8417SOL     OW31735   3.753   8.421   1.746  0.0663  0.3440 -0.0217
 8417SOL    HW131736   3.765   8.323   1.732 -0.1992  0.1895  0.7891
 8417SOL    HW231737   3.656   8.443   1.753  0.1183  0.6810 -0.3340
 8418SOL     OW31738   1.116   6.647   7.600 -0.2238  0.6253  0.0461
 8418SOL    HW131739   1.149   6.707   7.673  0.1006  0.3221  0.1536
 8418SOL    HW231740   1.187   6.635   7.532 -0.0195 -0.2267  0.4004
 8419SOL     OW31741   6.766   0.909   0.497 -0.6582  0.2542 -0.4656
 8419SOL    HW131742   6.825   0.917   0.578  0.8781 -1.6964 -1.3516
 8419SOL    HW231743   6.803   0.964   0.423 -0.5247 -0.1439 -0.6960
 8420SOL     OW31744   4.166   8.967   5.159 -0.1907  0.6588 -0.2324
 8420SOL    HW131745   4.118   9.022   5.227 -2.6178 -1.7234  0.0620
 8420SOL    HW231746   4.264   8.989   5.162 -0.8889  3.9456  0.7584
 8421SOL     OW31747   3.339   9.766   3.431  0.5197  0.1919 -0.1656
 8421SOL    HW131748   3.374   9.686   3.384 -0.4735 -0.6211  0.4627
 8421SOL    HW231749   3.299   9.830   3.365  1.5488  0.3033 -0.6898
 8422SOL     OW31750   4.441   9.634   0.129  0.0705 -0.6038  0.5485
 8422SOL    HW131751   4.404   9.608   0.219  0.8151  1.2057  1.4095
 8422SOL    HW231752   4.512   9.703   0.141  1.1390 -1.3233 -1.3645
 8423SOL     OW31753   5.078   8.525   2.152  0.5969  0.0414 -0.6471
 8423SOL    HW131754   5.119   8.565   2.070  0.3535  0.1751 -0.7025
 8423SOL    HW231755   4.996   8.473   2.127  1.3547 -1.1695 -0.6824
 8424SOL     OW31756   9.858   6.752   1.716  0.0803  0.3990 -0.1723
 8424SOL    HW131757   9.941   6.730   1.665 -0.1821 -0.6405 -0.1447
 8424SOL    HW231758   9.778   6.717   1.668 -0.2319  0.1472  0.5183
 8425SOL     OW31759   3.735   4.083   5.338 -0.2470 -0.1516 -0.0894
 8425SOL    HW131760   3.785   4.157   5.294 -1.4775  0.7643  0.0332
 8425SOL    HW231761   3.642   4.113   5.360 -0.4069 -1.3666  0.9767
 8426SOL     OW31762   8.886   7.482   5.506  0.1743 -0.2566  0.1769
 8426SOL    HW131763   8.936   7.396   5.514 -0.5618 -0.6333  0.8065
 8426SOL    HW231764   8.928   7.551   5.566  1.6321  0.2559 -1.3904
 8427SOL     OW31765   2.212   2.468   7.862 -0.4241 -0.9969  0.0448
 8427SOL    HW131766   2.172   2.549   7.820 -1.3454 -0.6936  1.4790
 8427SOL    HW231767   2.271   2.496   7.939 -1.7657 -1.7358  1.3691
 8428SOL     OW31768   9.341   3.957   7.599  0.4053  0.6294  0.4885
 8428SOL    HW131769   9.267   3.913   7.649  0.1310  0.0656 -0.4265
 8428SOL    HW231770   9.427   3.944   7.650 -0.0961  1.2382  1.5140
 8430SOL     OW31771   1.325   7.859   5.974 -0.1411  0.1665 -0.3663
 8430SOL    HW131772   1.380   7.813   6.045  0.9578  0.6460 -0.9002
 8430SOL    HW231773   1.235   7.815   5.969 -0.3692  0.3512  1.5704
 8431SOL     OW31774   6.834   2.372   1.869  0.1202 -0.5501  0.2626
 8431SOL    HW131775   6.763   2.363   1.938  0.8424  0.3312  1.1381
 8431SOL    HW231776   6.836   2.290   1.811 -1.2695 -0.7814  0.5437
 8432SOL     OW31777   4.638   2.981   0.708  0.1032 -0.2679 -0.2069
 8432SOL    HW131778   4.632   2.886   0.739 -0.0661 -1.0739 -2.6287
 8432SOL    HW231779   4.734   3.011   0.711  0.3376 -0.9544 -0.6980
 8433SOL     OW31780   2.697   6.326   0.792 -0.5020  0.2211  0.2692
 8433SOL    HW131781   2.786   6.284   0.809 -0.5485 -1.1845 -2.6556
 8433SOL    HW231782   2.636   6.309   0.869  1.3781  0.2055  1.7891
 8434SOL     OW31783   0.488   8.560   2.099 -0.1386  0.1971  0.2570
 8434SOL    HW131784   0.415   8.622   2.130  0.6018  0.3904  1.6856
 8434SOL    HW231785   0.455   8.506   2.022 -2.0482 -0.2146  1.3109
 8435SOL     OW31786   1.399   6.503   2.815  0.1860  0.4131 -0.0355
 8435SOL    HW131787   1.314   6.461   2.847 -0.0614 -0.3357 -1.6525
 8435SOL    HW231788   1.381   6.556   2.732  1.0325  1.4561  0.4340
 8437SOL     OW31789   5.012   0.913   0.367  0.2631 -0.6955  0.3683
 8437SOL    HW131790   4.969   0.837   0.318 -1.6658  1.8530 -2.0163
 8437SOL    HW231791   5.104   0.928   0.330  0.7087 -1.8798  0.9333
 8438SOL     OW31792   1.151   9.094   1.973 -0.2429 -0.3005 -0.4555
 8438SOL    HW131793   1.067   9.100   2.027 -0.1966  0.3878 -0.4621
 8438SOL    HW231794   1.179   8.998   1.966  0.0834 -0.3347  1.2268
 8440SOL     OW31795   8.632   6.207   5.524 -0.4271  0.3713  0.0914
 8440SOL    HW131796   8.621   6.140   5.597 -0.2363 -0.4540 -0.6309
 8440SOL    HW231797   8.685   6.167   5.449  0.1688  1.5115 -0.1099
 8441SOL     OW31798   9.912   6.838   0.268  0.9417  0.0469 -0.3421
 8441SOL    HW131799   9.854   6.768   0.227  1.9713  0.0029 -1.7420
 8441SOL    HW231800   9.981   6.867   0.202  1.2697  1.5257  0.6391
 8443SOL     OW31801   8.238   6.687   6.464  0.3247  0.3289 -0.0575
 8443SOL    HW131802   8.213   6.727   6.376  1.5922 -0.7368 -0.9353
 8443SOL    HW231803   8.337   6.697   6.478  0.3980 -0.9714  0.4690
 8444SOL     OW31804   4.037   4.490   1.435  0.0430 -0.3314  0.1277
 8444SOL    HW131805   3.955   4.540   1.406 -0.1722 -2.0740 -2.3998
 8444SOL    HW231806   4.018   4.439   1.519 -1.8403 -1.6881 -1.1114
 8445SOL     OW31807   1.181   0.211   6.753 -0.2105 -0.0709 -0.2850
 8445SOL    HW131808   1.152   0.121   6.722 -1.1723  0.8982 -2.2711
 8445SOL    HW231809   1.104   0.257   6.797 -0.1344  0.3529 -0.5975
 8449SOL     OW31810   6.650   2.524   2.973  0.0935 -0.0970 -0.3132
 8449SOL    HW131811   6.636   2.476   2.887  0.2923  0.2229 -0.5253
 8449SOL    HW231812   6.671   2.457   3.045  3.0242 -0.1629 -1.1490
 8450SOL     OW31813   2.216   1.994   0.804 -0.7788  0.7463 -0.3871
 8450SOL    HW131814   2.291   1.927   0.801 -0.4244  1.2212 -3.4038
 8450SOL    HW231815   2.251   2.084   0.778 -2.0111  1.3634  0.0593
 8451SOL     OW31816   5.660   9.062   3.879 -0.2596  0.2400  1.0897
 8451SOL    HW131817   5.748   9.046   3.834  0.1949 -1.2446  2.4511
 8451SOL    HW231818   5.668   9.042   3.977 -2.4351 -1.0843  1.0313
 8452SOL     OW31819   4.346   4.245   4.873 -0.4229 -0.5241  0.3107
 8452SOL    HW131820   4.265   4.188   4.860  0.2867 -1.3055 -0.7127
 8452SOL    HW231821   4.413   4.196   4.929 -1.0359  0.4916  1.9462
 8453SOL     OW31822   2.283   9.958   2.117  0.2084 -0.0982 -0.4875
 8453SOL    HW131823   2.285  10.040   2.060  1.3024 -0.2844 -0.7327
 8453SOL    HW231824   2.188   9.931   2.134 -0.1509  0.9391 -0.8020
 8454SOL     OW31825   8.020   9.473   4.475 -0.2430  0.4395  0.1982
 8454SOL    HW131826   8.017   9.393   4.416 -0.0975 -0.3524  1.2488
 8454SOL    HW231827   7.992   9.447   4.568  0.4412  1.4615  0.7042
 8455SOL     OW31828   9.188   5.943   2.646  0.3334  0.2094  0.2559
 8455SOL    HW131829   9.236   5.909   2.727 -0.8379 -0.7874  0.5541
 8455SOL    HW231830   9.138   5.867   2.603  0.5793  0.8274 -1.1404
 8456SOL     OW31831   5.405   0.019   5.454 -0.7509 -1.0485  0.1657
 8456SOL    HW131832   5.349   0.101   5.445  1.6508  0.3742 -2.4689
 8456SOL    HW231833   5.461   0.025   5.537 -1.2889 -0.4895  0.4882
 8457SOL     OW31834   0.354   8.364   3.229  0.7697 -0.4681 -0.1444
 8457SOL    HW131835   0.274   8.326   3.184 -0.1583  0.2922  0.8370
 8457SOL    HW231836   0.415   8.289   3.258  0.4319 -1.0391 -0.9068
 8458SOL     OW31837   8.005   0.933   6.362 -0.5186  0.1274  0.0928
 8458SOL    HW131838   7.957   0.985   6.291 -0.1740  0.0734 -0.1812
 8458SOL    HW231839   7.969   0.840   6.364 -0.3477  0.0566 -0.1848
 8459SOL     OW31840   1.650   6.367   3.422  0.0444 -0.1886  0.2384
 8459SOL    HW131841   1.598   6.449   3.441 -0.0628 -0.5578  1.5759
 8459SOL    HW231842   1.641   6.302   3.498  1.3912 -0.7924 -0.0841
 8461SOL     OW31843   3.901   3.048   1.215  0.7421  0.0505 -0.2076
 8461SOL    HW131844   3.841   3.077   1.290 -0.0885 -2.1143 -0.0045
 8461SOL    HW231845   3.861   2.968   1.169  0.9452  1.6934 -3.3708
 8462SOL     OW31846   3.158   9.465   4.228  0.0112 -0.0452  0.1932
 8462SOL    HW131847   3.210   9.421   4.155  0.9639 -1.0722  1.4516
 8462SOL    HW231848   3.074   9.414   4.245  0.3181 -0.4478  0.5325
 8463SOL     OW31849   1.693   1.014   1.796 -0.7154 -0.2954 -0.0559
 8463SOL    HW131850   1.683   0.976   1.888 -0.8969 -0.9488 -0.3477
 8463SOL    HW231851   1.769   1.079   1.795  1.4289 -2.7673 -0.2447
 8464SOL     OW31852   3.274   7.712   1.335  0.0628  0.1681 -0.0930
 8464SOL    HW131853   3.278   7.663   1.423  1.6011  0.4774  0.0074
 8464SOL    HW231854   3.286   7.646   1.261 -0.4823  0.0218 -0.0600
 8468SOL     OW31855   8.863   3.358   2.917 -0.0638  0.0628 -0.0479
 8468SOL    HW131856   8.847   3.259   2.921 -2.3660  0.4096 -0.4338
 8468SOL    HW231857   8.909   3.381   2.832  0.3815 -0.6439 -0.0077
 8469SOL     OW31858   8.357   6.697   6.070 -0.0339 -0.2591 -0.1931
 8469SOL    HW131859   8.437   6.665   6.019 -0.2152  0.8709 -1.2141
 8469SOL    HW231860   8.377   6.698   6.168  1.0411 -0.4308 -0.4080
 8470SOL     OW31861   0.279   3.052   5.089  0.3588 -0.4449  0.2131
 8470SOL    HW131862   0.218   3.058   5.010 -0.5116  0.6081  0.9531
 8470SOL    HW231863   0.225   3.049   5.173  1.3346  1.6278  0.9485
 8471SOL     OW31864   2.040   3.716   3.802  0.0434  0.0069  0.4278
 8471SOL    HW131865   1.945   3.704   3.830 -0.1155 -0.6360 -0.3406
 8471SOL    HW231866   2.091   3.762   3.874 -0.3290 -1.6532  1.8001
 8472SOL     OW31867   9.673   0.338   3.054 -0.3469  0.0542 -0.6432
 8472SOL    HW131868   9.614   0.268   3.014 -0.5290  0.7607 -1.6333
 8472SOL    HW231869   9.621   0.423   3.064  0.4123  0.6042 -1.2677
 8473SOL     OW31870   7.967   0.671   5.404  0.0368 -0.0703  0.4271
 8473SOL    HW131871   8.013   0.737   5.344 -0.4566 -0.3627 -0.2740
 8473SOL    HW231872   8.010   0.582   5.395 -3.0176 -1.3142 -3.1382
 8475SOL     OW31873   6.611   0.436   5.972 -1.0204 -0.2442  0.0977
 8475SOL    HW131874   6.710   0.447   5.964 -0.9371 -2.4022 -2.6015
 8475SOL    HW231875   6.591   0.381   6.053 -0.0400  0.1926  0.6575
 8476SOL     OW31876   3.798   8.592   5.500  0.2503 -0.4020  0.1214
 8476SOL    HW131877   3.892   8.565   5.521  0.0061 -0.3187  1.3430
 8476SOL    HW231878   3.796   8.636   5.410  1.1040 -1.9165 -0.6701
 8477SOL     OW31879   7.948   7.816   3.442 -0.2858  0.1080  0.0061
 8477SOL    HW131880   7.894   7.821   3.358 -1.5063  2.4957  0.8616
 8477SOL    HW231881   8.039   7.780   3.422 -0.3557  1.2078 -2.4645
 8478SOL     OW31882   7.239   6.650   5.456  0.2277  0.0714  0.1554
 8478SOL    HW131883   7.264   6.586   5.383 -0.7688 -0.6990  0.4806
 8478SOL    HW231884   7.224   6.741   5.416  2.2878  0.2832 -0.2202
 8479SOL     OW31885   3.242   5.514   6.292 -0.1431  0.0519  0.4393
 8479SOL    HW131886   3.243   5.594   6.233 -0.3404 -0.3089 -0.0600
 8479SOL    HW231887   3.306   5.445   6.256 -1.6645 -0.9317 -0.4430
 8480SOL     OW31888   1.227   8.134   5.998  0.0256  0.4206 -0.1058
 8480SOL    HW131889   1.276   8.048   6.013  0.0591  0.0015 -2.4213
 8480SOL    HW231890   1.293   8.208   5.987  0.1387  0.0658 -1.9797
 8481SOL     OW31891   4.767   7.656   5.291 -0.0137 -0.1947  0.5559
 8481SOL    HW131892   4.786   7.752   5.271  0.8268 -0.3073  0.8054
 8481SOL    HW231893   4.774   7.641   5.390  1.2692 -0.8105  0.3809
 8482SOL     OW31894   0.742   0.709   5.372  0.4989  0.0912 -0.0992
 8482SOL    HW131895   0.690   0.703   5.457 -0.0630 -4.0073 -0.6097
 8482SOL    HW231896   0.678   0.703   5.294  1.2238  1.2123 -0.7886
 8483SOL     OW31897   9.105   6.761   6.223  0.0658 -0.2956 -0.1645
 8483SOL    HW131898   9.157   6.839   6.189  1.9416 -1.2078  0.5597
 8483SOL    HW231899   9.009   6.787   6.234  0.7171  1.9886  0.3091
 8484SOL     OW31900   2.969   8.960   2.622 -0.5742 -0.0252 -0.2138
 8484SOL    HW131901   2.974   9.023   2.700  0.6825  1.3454 -1.3652
 8484SOL    HW231902   2.931   8.873   2.652 -0.1326  0.4868  1.9425
 8485SOL     OW31903   0.001   3.743   0.033 -0.0241 -0.2723  0.3740
 8485SOL    HW131904   0.038   3.790   0.113  1.0268 -0.1680 -0.1733
 8485SOL    HW231905  -0.014   3.809  -0.041 -0.7531 -0.4136  0.3845
 8487SOL     OW31906   1.024   1.786   0.637  0.2993 -0.2175  0.3699
 8487SOL    HW131907   1.004   1.796   0.539 -0.5591  0.1175  0.5748
 8487SOL    HW231908   0.983   1.702   0.671  0.6066 -0.3382  0.4447
 8488SOL     OW31909   0.519   3.298   3.012 -0.4721  0.9112 -0.0062
 8488SOL    HW131910   0.555   3.326   3.101 -1.2104 -0.4448  0.7449
 8488SOL    HW231911   0.421   3.278   3.020 -0.4679  0.4286 -1.0393
 8489SOL     OW31912   1.071   0.250   4.372  0.2823  0.8541  0.7575
 8489SOL    HW131913   1.091   0.165   4.323  0.3466  2.0853 -1.3996
 8489SOL    HW231914   1.118   0.250   4.460  4.4963  0.8964 -1.4135
 8490SOL     OW31915   4.970   7.202   2.655  0.7207 -0.3464 -0.5520
 8490SOL    HW131916   4.987   7.285   2.602 -1.0492 -0.7985 -1.9130
 8490SOL    HW231917   4.951   7.225   2.750 -2.1724  1.0542 -1.4172
 8491SOL     OW31918   4.673   9.530   7.072  0.4089 -0.3614 -0.0254
 8491SOL    HW131919   4.707   9.536   7.166 -2.3124 -0.7103  1.0576
 8491SOL    HW231920   4.632   9.440   7.057  0.8275 -0.3123 -1.5646
 8492SOL     OW31921   2.061   9.398   5.617  0.2096  0.6995  0.5240
 8492SOL    HW131922   1.967   9.363   5.621 -0.5942  2.8791  0.9791
 8492SOL    HW231923   2.094   9.418   5.709  1.0487  0.1599  0.3463
 8493SOL     OW31924   3.745   6.984   2.685 -0.5569  0.3827  0.2601
 8493SOL    HW131925   3.765   6.890   2.712 -1.5391  0.0029 -0.2889
 8493SOL    HW231926   3.830   7.035   2.673 -0.0665  0.1238  2.5059
 8494SOL     OW31927   2.959   2.911   3.580 -0.6535  0.4743 -0.2870
 8494SOL    HW131928   2.956   3.009   3.602  1.1898  0.3136  0.7634
 8494SOL    HW231929   2.890   2.863   3.634 -1.7530  1.2415 -1.0111
 8496SOL     OW31930   1.841   2.077   2.651 -0.0718 -0.1243  0.8968
 8496SOL    HW131931   1.803   1.995   2.693  0.4005 -0.6325  0.3399
 8496SOL    HW231932   1.881   2.136   2.721 -2.2805  0.6425  1.5559
 8497SOL     OW31933   3.701   0.678   7.400 -0.0312 -0.0477 -0.3664
 8497SOL    HW131934   3.623   0.648   7.347  0.5798  0.0594 -1.3366
 8497SOL    HW231935   3.770   0.606   7.403  0.4942  0.4323 -0.8290
 8498SOL     OW31936   2.602   1.469   0.443 -0.0223 -0.3365 -0.3305
 8498SOL    HW131937   2.518   1.517   0.468  0.8365  1.0121  0.0235
 8498SOL    HW231938   2.602   1.449   0.345 -0.5261  0.1125 -0.4223
 8499SOL     OW31939   5.340   1.549   6.248  0.7931 -0.4908  0.1240
 8499SOL    HW131940   5.330   1.589   6.340  0.6390  2.8012 -1.2659
 8499SOL    HW231941   5.430   1.571   6.212  0.0086  0.2129 -1.4246
 8500SOL     OW31942   8.966   8.218   1.631 -0.1856  0.2158 -0.3522
 8500SOL    HW131943   8.912   8.169   1.698 -0.1842  0.3584 -0.2453
 8500SOL    HW231944   8.960   8.172   1.542 -0.8185  0.4643 -0.4425
 8501SOL     OW31945   8.825   0.738   2.185  0.5932  0.3086 -0.3239
 8501SOL    HW131946   8.819   0.695   2.095  2.1071 -0.6645  0.0058
 8501SOL    HW231947   8.801   0.671   2.256  1.0061  0.5839  0.0836
 8502SOL     OW31948   1.860   8.844   0.613 -0.2943 -0.0003  0.3277
 8502SOL    HW131949   1.885   8.938   0.638  0.0572  0.3293 -1.1950
 8502SOL    HW231950   1.935   8.803   0.561 -2.3742  0.5521 -3.1960
 8503SOL     OW31951   9.935   3.093   4.523  0.0202 -0.1718  0.3635
 8503SOL    HW131952  10.023   3.049   4.507 -0.0224  0.3927 -1.5331
 8503SOL    HW231953   9.869   3.026   4.556  0.3478 -1.2267 -1.0968
 8504SOL     OW31954   9.610   9.975   5.037  0.1190  0.5420 -0.1732
 8504SOL    HW131955   9.698   9.930   5.019 -0.2608 -0.3264  0.1037
 8504SOL    HW231956   9.536   9.916   5.006 -0.3140  2.7493 -3.6834
 8505SOL     OW31957   2.478   2.895   5.279 -0.5283  0.2245 -0.0987
 8505SOL    HW131958   2.445   2.990   5.281 -0.8336  0.1819 -1.7654
 8505SOL    HW231959   2.539   2.879   5.356  0.8832  2.2862 -0.7258
 8506SOL     OW31960   1.153   9.959   5.272 -0.8238  0.4712  0.4001
 8506SOL    HW131961   1.130   9.880   5.329  0.3348  1.0706  1.7451
 8506SOL    HW231962   1.232   9.937   5.214 -1.8950 -0.0842 -0.8473
 8508SOL     OW31963   6.122   9.896   1.823  0.0743 -0.1436  0.4177
 8508SOL    HW131964   6.121   9.837   1.904  0.2495 -0.0188  0.5114
 8508SOL    HW231965   6.217   9.908   1.792  0.1175  0.7117  0.8545
 8509SOL     OW31966   8.441   5.818   2.124  0.4743  0.9144 -0.4652
 8509SOL    HW131967   8.386   5.789   2.202  1.5420  0.4253  0.1176
 8509SOL    HW231968   8.536   5.832   2.153  0.5297  2.4451 -1.2960
 8512SOL     OW31969   5.199   0.129   4.888  0.7446 -0.3016 -0.2382
 8512SOL    HW131970   5.175   0.039   4.925  1.7519 -0.5407 -0.1440
 8512SOL    HW231971   5.298   0.142   4.895  0.6851  0.5283 -0.8953
 8513SOL     OW31972   2.235   0.525   6.626  0.2686  0.1317  0.0033
 8513SOL    HW131973   2.191   0.599   6.677  0.0321 -0.0364  0.0428
 8513SOL    HW231974   2.287   0.467   6.689 -0.1525 -0.1680  0.0769
 8514SOL     OW31975   3.799   2.111   2.885 -0.2861 -0.5514  0.3019
 8514SOL    HW131976   3.875   2.083   2.825 -1.1481 -1.0369 -0.5974
 8514SOL    HW231977   3.831   2.178   2.951  1.1770 -1.5320  0.6215
 8515SOL     OW31978   4.357   1.167   6.342  0.0802 -0.0123  0.6197
 8515SOL    HW131979   4.425   1.234   6.371  0.0690 -0.1060  0.8615
 8515SOL    HW231980   4.395   1.075   6.353 -0.3466 -0.0924  1.4172
 8516SOL     OW31981   6.926   1.902   4.713  0.2569  0.4428 -0.0632
 8516SOL    HW131982   7.015   1.873   4.750  1.1049  2.5700 -0.3616
 8516SOL    HW231983   6.861   1.910   4.788  0.8418  0.7024  0.4259
 8517SOL     OW31984   4.497   1.347   6.504 -0.1562 -0.1392 -0.0162
 8517SOL    HW131985   4.469   1.432   6.548 -0.0513 -0.7449  1.2501
 8517SOL    HW231986   4.582   1.314   6.545 -0.9258 -1.5762  0.4589
 8518SOL     OW31987   5.541   2.030   6.156  0.4212  0.6542 -0.2574
 8518SOL    HW131988   5.629   1.992   6.182 -0.3299 -0.8996  0.0450
 8518SOL    HW231989   5.523   2.012   6.060 -0.6140 -1.1578  0.2464
 8520SOL     OW31990   9.642   5.936   3.863  0.3616 -0.1517  0.1480
 8520SOL    HW131991   9.664   5.983   3.778 -1.5055 -0.8117 -0.7178
 8520SOL    HW231992   9.630   6.003   3.936  2.6232  0.3764  0.0842
 8521SOL     OW31993   4.011   0.192   7.113  0.9633 -0.1890 -0.7367
 8521SOL    HW131994   4.023   0.110   7.056  1.0288  1.1257 -2.6610
 8521SOL    HW231995   4.072   0.265   7.080  0.5572  0.8023  0.6507
 8523SOL     OW31996   5.553   3.226   0.814 -0.7458  0.0774 -0.1179
 8523SOL    HW131997   5.598   3.299   0.762 -0.9008 -0.8507 -1.5858
 8523SOL    HW231998   5.484   3.265   0.874  0.9280  1.3781  1.0154
 8524SOL     OW31999   0.790   6.216   4.488  0.1210  0.0031 -0.6718
 8524SOL    HW132000   0.809   6.220   4.390 -0.0403 -0.6364 -0.7299
 8524SOL    HW232001   0.704   6.167   4.504  0.6979 -0.8515 -0.1517
 8525SOL     OW32002   1.204   1.660   4.035 -0.4528 -0.0848 -0.0819
 8525SOL    HW132003   1.186   1.734   3.969 -0.6851  0.3658  0.4832
 8525SOL    HW232004   1.200   1.697   4.128  1.6629 -0.3476  0.1258
 8526SOL     OW32005   7.697   0.303   5.845  0.2521  0.0419 -0.3979
 8526SOL    HW132006   7.599   0.317   5.834 -0.0624 -0.8823  1.0585
 8526SOL    HW232007   7.738   0.383   5.889 -0.1199 -0.1716  0.3537
 8527SOL     OW32008   0.072   6.415   6.868  0.2311  0.5334 -0.5536
 8527SOL    HW132009   0.106   6.470   6.944 -0.2346 -2.0503  1.6006
 8527SOL    HW232010   0.148   6.388   6.808  0.8574  1.1302 -0.0253
 8528SOL     OW32011   8.813   0.757   7.922 -0.3194  0.1535 -0.0677
 8528SOL    HW132012   8.870   0.714   7.852 -0.8091 -0.8476  0.1436
 8528SOL    HW232013   8.826   0.711   8.009 -0.3164  0.8899  0.3248
 8529SOL     OW32014   2.636   1.103   3.177 -0.2605  0.1501 -0.0459
 8529SOL    HW132015   2.693   1.185   3.177 -1.0448  0.7149  1.0492
 8529SOL    HW232016   2.636   1.062   3.269  1.3662 -1.9643 -0.9471
 8530SOL     OW32017   0.149   2.452   1.867  0.0327  0.5488 -0.5565
 8530SOL    HW132018   0.242   2.421   1.887 -0.2371 -0.8328 -1.3913
 8530SOL    HW232019   0.139   2.547   1.894  1.6968  0.7024 -0.4493
 8531SOL     OW32020   6.998   3.286   1.924 -0.6269  0.6053  0.5583
 8531SOL    HW132021   6.980   3.207   1.983 -0.5135 -0.8372 -1.2966
 8531SOL    HW232022   7.052   3.257   1.845 -0.3194  2.6178 -0.0031
 8532SOL     OW32023   2.565   8.279   6.198  0.2387  0.4158  0.4447
 8532SOL    HW132024   2.543   8.184   6.223 -1.3134  0.8020  0.6244
 8532SOL    HW232025   2.659   8.284   6.166  1.3439 -0.6601  3.2873
 8533SOL     OW32026   1.195   8.843   2.253  0.2576  0.0203  0.1752
 8533SOL    HW132027   1.208   8.930   2.300  0.3253  0.4661 -0.6674
 8533SOL    HW232028   1.121   8.793   2.297 -1.1566  1.4000 -0.5750
 8535SOL     OW32029   3.501   4.089   1.361  0.0812 -0.2963  0.0135
 8535SOL    HW132030   3.430   4.025   1.329  2.5478 -2.7693 -0.6601
 8535SOL    HW232031   3.535   4.143   1.284 -0.1740  0.0003  0.1070
 8536SOL     OW32032   0.216   0.555   0.567 -0.2688 -0.6017 -0.1456
 8536SOL    HW132033   0.312   0.556   0.594 -0.9425 -0.2949  2.2905
 8536SOL    HW232034   0.191   0.462   0.539  0.2245 -1.1134  1.1031
 8537SOL     OW32035   8.491   3.178   7.266  0.2056 -0.5319 -0.5775
 8537SOL    HW132036   8.518   3.102   7.207  0.7462  0.7131 -1.9951
 8537SOL    HW232037   8.436   3.145   7.342  0.4148 -2.3202 -1.1931
 8538SOL     OW32038   1.851   1.180   7.935  0.1861  0.0368  0.2495
 8538SOL    HW132039   1.876   1.096   7.983  1.7503  1.2707  1.6549
 8538SOL    HW232040   1.916   1.196   7.860 -0.0543  0.0469  0.0412
 8539SOL     OW32041   0.884   4.085   7.707 -0.1315  0.0804  0.3606
 8539SOL    HW132042   0.859   4.130   7.622  1.5516  0.7195  0.1950
 8539SOL    HW232043   0.803   4.079   7.766 -1.1915  0.0693 -1.0685
 8540SOL     OW32044   9.551   1.630   5.451  0.3418  0.4535 -0.3298
 8540SOL    HW132045   9.502   1.544   5.468  0.6264  0.8232  2.5346
 8540SOL    HW232046   9.625   1.614   5.386  0.3776 -1.4826  0.1552
 8542SOL     OW32047   6.687   1.233   0.723 -0.2656 -0.7488  0.2948
 8542SOL    HW132048   6.724   1.143   0.700 -0.7721 -0.7040 -0.7163
 8542SOL    HW232049   6.683   1.290   0.640 -1.3337 -0.2992  0.6427
 8543SOL     OW32050   3.989   6.127   0.933  0.3406  0.4773 -0.4603
 8543SOL    HW132051   4.020   6.203   0.877 -0.5405  1.9069  0.9559
 8543SOL    HW232052   3.983   6.155   1.029 -4.1581 -0.0244 -0.4708
 8544SOL     OW32053   2.781   4.933   5.830 -0.0801  0.1634 -0.1450
 8544SOL    HW132054   2.872   4.903   5.800 -0.1465 -0.2983  0.1292
 8544SOL    HW232055   2.715   4.860   5.815  0.0579 -0.4244  2.0300
 8545SOL     OW32056   9.542   8.402   2.923  0.7633 -0.2659  0.3641
 8545SOL    HW132057   9.445   8.383   2.938  0.9832 -0.1050  2.1233
 8545SOL    HW232058   9.560   8.498   2.945  0.9129  0.2878 -2.0748
 8546SOL     OW32059   0.691   7.792   2.675 -0.5062 -0.2924  0.0775
 8546SOL    HW132060   0.761   7.760   2.739 -0.5250  1.5684  1.0738
 8546SOL    HW232061   0.693   7.892   2.671 -1.5187 -0.3220 -1.7146
 8548SOL     OW32062   7.619   9.147   6.730 -0.5147 -0.3811 -0.7744
 8548SOL    HW132063   7.629   9.062   6.782 -0.0683 -0.3762 -0.8478
 8548SOL    HW232064   7.552   9.206   6.774 -2.2182 -1.5622 -1.7502
 8549SOL     OW32065   8.167   3.559   2.662 -0.2940  0.2351  0.2610
 8549SOL    HW132066   8.164   3.462   2.635 -0.8836  0.2800  0.1487
 8549SOL    HW232067   8.212   3.567   2.751  0.7920 -0.0143 -0.2631
 8550SOL     OW32068   6.127   8.658   4.056  0.1065 -0.0708 -0.0063
 8550SOL    HW132069   6.191   8.675   3.981  1.4844 -1.7205  0.7501
 8550SOL    HW232070   6.057   8.593   4.025  0.9139 -1.0743  0.2244
 8551SOL     OW32071   8.550   2.141   2.073  0.1528  0.4017  0.0175
 8551SOL    HW132072   8.599   2.097   1.997 -0.6630 -0.6304  0.0765
 8551SOL    HW232073   8.588   2.109   2.160  0.3695  0.7604  0.0564
 8552SOL     OW32074   2.266   0.787   6.757 -0.9842  0.0802  0.4479
 8552SOL    HW132075   2.308   0.803   6.667 -0.8577 -0.5723  0.3891
 8552SOL    HW232076   2.329   0.816   6.829 -1.6118  1.8454  0.3100
 8554SOL     OW32077   0.883   8.554   0.295  0.7006 -0.5076  0.6328
 8554SOL    HW132078   0.875   8.502   0.210 -0.6916  0.2386  0.2877
 8554SOL    HW232079   0.836   8.504   0.369  1.5359 -0.9444  0.8776
 8555SOL     OW32080   1.162   5.900   4.886 -0.4347  0.0724  0.1969
 8555SOL    HW132081   1.213   5.828   4.840  1.0934  1.2987 -0.0575
 8555SOL    HW232082   1.192   5.909   4.980  0.0983  1.0421 -0.0543
 8556SOL     OW32083   3.942   9.692   5.772 -0.1557 -0.9958  0.4533
 8556SOL    HW132084   3.960   9.790   5.765  2.2607 -1.4685 -0.2657
 8556SOL    HW232085   4.024   9.641   5.746 -0.9982 -3.2046  1.9778
 8557SOL     OW32086   8.796   5.492   4.324 -0.2650  0.2964 -0.3672
 8557SOL    HW132087   8.887   5.520   4.355  0.4006  0.1121 -2.0876
 8557SOL    HW232088   8.752   5.568   4.277  0.0864 -0.4103 -1.8700
 8558SOL     OW32089   2.380   1.107   3.417 -0.4364  0.5905 -0.4959
 8558SOL    HW132090   2.407   1.093   3.512 -3.0043  0.9912  0.3105
 8558SOL    HW232091   2.432   1.184   3.379 -1.8306  2.6854  1.6621
 8559SOL     OW32092   8.346   3.483   4.933 -0.6548  0.5991 -0.2912
 8559SOL    HW132093   8.368   3.548   5.006 -0.7268 -0.4931  0.7097
 8559SOL    HW232094   8.296   3.530   4.861  0.6419  2.0051 -0.2986
 8560SOL     OW32095   8.498   7.800   2.562  0.4524 -0.1712 -0.6063
 8560SOL    HW132096   8.468   7.821   2.469  1.5150 -1.6022 -1.2819
 8560SOL    HW232097   8.597   7.809   2.568  0.5759 -1.7819 -0.0699
 8561SOL     OW32098   7.787   3.003   2.593 -0.2392 -0.0741  0.1400
 8561SOL    HW132099   7.752   2.912   2.568 -2.2620  0.8299 -0.4291
 8561SOL    HW232100   7.836   3.042   2.515 -0.8210  0.0005 -0.1964
 8562SOL     OW32101   2.160   3.203   6.281  0.4736  0.1372 -0.7217
 8562SOL    HW132102   2.166   3.120   6.225 -0.2417  0.5286 -1.4029
 8562SOL    HW232103   2.143   3.281   6.221 -0.4143  0.5487  0.0642
 8563SOL     OW32104   3.517   7.944   4.279 -0.1396  0.3500 -0.2178
 8563SOL    HW132105   3.422   7.971   4.295 -0.1940 -0.1113  0.2571
 8563SOL    HW232106   3.570   8.024   4.253 -0.9657  0.3706 -1.8987
 8564SOL     OW32107   4.437   5.853   0.084 -0.1950 -0.3840  0.3379
 8564SOL    HW132108   4.390   5.796   0.015 -0.9822 -0.3840  0.8697
 8564SOL    HW232109   4.410   5.948   0.072  0.2460 -0.2803  0.1733
 8565SOL     OW32110   2.560   7.146   7.138 -0.3152 -0.0337  0.0037
 8565SOL    HW132111   2.521   7.093   7.213 -0.0417 -0.3807 -0.0935
 8565SOL    HW232112   2.502   7.224   7.118 -2.3187 -1.9128 -1.8216
 8566SOL     OW32113   1.642   8.252   3.543  0.0677 -0.3891  0.3737
 8566SOL    HW132114   1.572   8.275   3.475  0.1411 -1.4659 -0.0793
 8566SOL    HW232115   1.663   8.333   3.598 -1.2298  0.0550  0.2387
 8567SOL     OW32116   2.121   8.710   7.076  0.3273  0.1131 -0.2223
 8567SOL    HW132117   2.035   8.667   7.103  1.2869 -0.3266  2.2940
 8567SOL    HW232118   2.130   8.798   7.122  0.3011  1.0954 -2.0748
 8568SOL     OW32119   2.290   3.111   7.238  0.4652 -1.0114 -0.9644
 8568SOL    HW132120   2.368   3.056   7.265  1.9054  1.2812 -0.2798
 8568SOL    HW232121   2.300   3.204   7.273 -1.7394 -0.1990 -2.2987
 8569SOL     OW32122   1.323   6.810   3.465  0.2734  0.0204  0.0210
 8569SOL    HW132123   1.286   6.725   3.501 -0.9694  0.6054  0.1397
 8569SOL    HW232124   1.254   6.882   3.470  1.1904  0.9516 -0.4134
 8570SOL     OW32125   9.717   9.322   6.410  0.7300  0.3028  0.0319
 8570SOL    HW132126   9.759   9.307   6.321  0.1463  1.4318 -0.4370
 8570SOL    HW232127   9.782   9.367   6.471  0.4979  1.2541 -0.4182
 8573SOL     OW32128   3.912   4.292   3.768 -0.4100  0.3847 -0.4733
 8573SOL    HW132129   4.005   4.278   3.732 -0.5306  3.8041 -2.3147
 8573SOL    HW232130   3.858   4.210   3.751  1.4140 -0.5214 -2.2073
 8574SOL     OW32131   9.875   5.050   6.776 -0.0668  0.4491  0.0179
 8574SOL    HW132132   9.906   5.076   6.867 -0.1892 -0.1354  0.2262
 8574SOL    HW232133   9.782   5.013   6.781  0.1911 -0.2354 -0.2425
 8575SOL     OW32134   5.446   2.928   0.031  0.4721  0.0621 -0.2065
 8575SOL    HW132135   5.473   2.841   0.073 -0.9883  0.0550  0.7473
 8575SOL    HW232136   5.526   2.987   0.021  1.0150 -0.3449  1.6453
 8576SOL     OW32137   3.843   4.188   7.574  0.1481 -0.3905 -0.2408
 8576SOL    HW132138   3.831   4.090   7.586 -1.2360 -0.2072 -0.0286
 8576SOL    HW232139   3.940   4.209   7.560  0.5826 -1.6655  0.8264
 8577SOL     OW32140   1.545   4.330   3.159  0.1472  0.6969 -0.4060
 8577SOL    HW132141   1.495   4.401   3.208  1.3228 -0.3594  2.4161
 8577SOL    HW232142   1.481   4.275   3.105 -1.0520  2.4159 -0.7802
 8578SOL     OW32143   9.931   1.630   7.075  0.3301  0.5695  0.3797
 8578SOL    HW132144  10.000   1.601   7.009 -0.1910  0.2275 -0.0221
 8578SOL    HW232145   9.974   1.645   7.164  0.5981 -1.6542  0.6630
 8579SOL     OW32146   2.812   1.142   4.122 -0.0864 -0.4957 -0.3752
 8579SOL    HW132147   2.798   1.155   4.023 -2.5966  0.1740  0.0189
 8579SOL    HW232148   2.815   1.231   4.167 -1.5203 -0.8308  0.4301
 8580SOL     OW32149   2.718   2.512   4.670 -0.2715  0.3925  0.3150
 8580SOL    HW132150   2.633   2.559   4.695 -1.0525 -0.3699 -0.8477
 8580SOL    HW232151   2.696   2.419   4.639  0.9361  0.3852 -0.5288
 8581SOL     OW32152   2.310   8.920   6.152  0.0572  0.1498 -0.2439
 8581SOL    HW132153   2.400   8.948   6.118 -0.2772 -0.7096 -1.9109
 8581SOL    HW232154   2.317   8.828   6.191  0.2929  0.8590  1.4425
 8582SOL     OW32155   4.201   0.182   2.206 -0.3769 -0.0414 -0.0423
 8582SOL    HW132156   4.131   0.199   2.136  0.0034  1.3942 -0.0962
 8582SOL    HW232157   4.278   0.133   2.165 -0.6980 -0.2952 -0.3417
 8583SOL     OW32158   9.608   6.970   2.452 -0.2097  0.2033 -0.3462
 8583SOL    HW132159   9.573   7.011   2.367  0.5608 -0.5447 -1.0384
 8583SOL    HW232160   9.646   6.880   2.431  1.8934  0.8892  0.4255
 8585SOL     OW32161   4.093   2.764   7.671  0.9364  0.5800  0.0244
 8585SOL    HW132162   4.165   2.698   7.650  1.2149  0.3555  1.5946
 8585SOL    HW232163   4.112   2.850   7.624  1.9007  0.3253 -0.0735
 8586SOL     OW32164   5.673   7.731   4.887 -0.9436  0.0951  0.3493
 8586SOL    HW132165   5.606   7.696   4.953 -0.6931 -0.8725  0.1053
 8586SOL    HW232166   5.765   7.718   4.923 -0.7709 -1.1545 -0.5107
 8587SOL     OW32167   8.088   1.358   4.932 -0.1201  0.3565  0.3433
 8587SOL    HW132168   8.134   1.271   4.952  1.8041  1.6880  1.8441
 8587SOL    HW232169   8.019   1.376   5.003 -1.0025 -0.2578 -0.3462
 8588SOL     OW32170   0.617   0.569   0.480  0.1652  0.1033 -0.1143
 8588SOL    HW132171   0.642   0.547   0.385 -0.8456 -0.3043 -0.2938
 8588SOL    HW232172   0.619   0.668   0.493  0.6327  0.1425 -0.4729
 8590SOL     OW32173   6.565   7.309   6.212 -0.3446  0.3526  0.4803
 8590SOL    HW132174   6.612   7.364   6.282 -1.3211 -0.6390  1.9487
 8590SOL    HW232175   6.466   7.312   6.229 -0.5141 -0.6585 -0.3078
 8591SOL     OW32176   8.779   9.585   1.066 -0.4273  0.2119 -0.2736
 8591SOL    HW132177   8.780   9.599   0.967 -1.5630 -1.7931 -0.5989
 8591SOL    HW232178   8.814   9.494   1.087 -1.5356  0.0737  1.0483
 8592SOL     OW32179   4.344   1.813   1.911  0.6692  0.4611  0.3642
 8592SOL    HW132180   4.377   1.730   1.867  2.2661 -0.0604  2.4588
 8592SOL    HW232181   4.408   1.888   1.895  0.2247  0.7930  0.1158
 8593SOL     OW32182   1.177   2.606   5.849 -0.0672 -0.1599  0.2348
 8593SOL    HW132183   1.261   2.584   5.899  0.0531 -0.4460 -0.0977
 8593SOL    HW232184   1.113   2.650   5.912  0.6635  0.8677  0.2810
 8594SOL     OW32185   0.922   8.311   3.471  0.1235  0.3224 -0.3904
 8594SOL    HW132186   0.846   8.377   3.471  0.8471  1.1765  1.0286
 8594SOL    HW232187   0.955   8.298   3.564  1.8807  0.1321 -1.0233
 8597SOL     OW32188   4.611   0.752   1.777 -0.0910 -0.0137  0.3365
 8597SOL    HW132189   4.572   0.844   1.782 -1.0006 -0.4458  1.2176
 8597SOL    HW232190   4.591   0.713   1.687 -2.8420 -0.7268  1.2158
 8598SOL     OW32191   1.459   5.493   5.440 -1.0077  0.3866  0.2991
 8598SOL    HW132192   1.417   5.528   5.356  0.4874  2.5091  0.4061
 8598SOL    HW232193   1.408   5.526   5.519 -0.9464  0.4422  0.3151
 8599SOL     OW32194   1.946   9.697   7.452  0.3816 -0.4248 -0.0575
 8599SOL    HW132195   1.909   9.617   7.498  0.7022 -1.0280 -0.8415
 8599SOL    HW232196   1.926   9.691   7.354  0.1875  0.5741 -0.0866
 8600SOL     OW32197   1.301   5.676   6.738 -0.6685 -0.1551  0.2011
 8600SOL    HW132198   1.253   5.670   6.651  0.9982  0.8725 -0.8323
 8600SOL    HW232199   1.290   5.768   6.775  1.2100  0.3796 -0.5054
 8601SOL     OW32200   6.603   1.921   4.950 -0.3479 -0.8154  0.5005
 8601SOL    HW132201   6.553   1.837   4.925 -2.0788  1.3588 -3.8644
 8601SOL    HW232202   6.545   1.979   5.006 -0.2686 -1.1269  0.9148
 8602SOL     OW32203   2.141   1.201   7.751  0.1065  0.4037  0.5193
 8602SOL    HW132204   2.196   1.274   7.791 -1.6014  1.7367  0.5267
 8602SOL    HW232205   2.197   1.119   7.739  1.2898  0.7553  3.2870
 8603SOL     OW32206   2.698   5.794   0.044  0.2650 -0.7339 -0.0484
 8603SOL    HW132207   2.607   5.798   0.085 -0.0128 -0.4207 -0.6772
 8603SOL    HW232208   2.768   5.800   0.115 -0.2070 -0.1818  0.3698
 8604SOL     OW32209   3.224   2.948   7.588  1.0218  0.3540 -0.0842
 8604SOL    HW132210   3.211   2.910   7.679 -1.2176  1.5851  0.1549
 8604SOL    HW232211   3.253   3.044   7.596  1.6205  0.2232 -0.6597
 8605SOL     OW32212   8.996   7.999   3.496 -0.4012  0.2309 -0.6372
 8605SOL    HW132213   8.980   7.975   3.592  0.1136 -1.1988 -0.8985
 8605SOL    HW232214   8.908   8.019   3.452 -0.7278  0.0259 -0.0894
 8606SOL     OW32215   9.464   5.730   3.824 -0.1383  0.4508  0.2272
 8606SOL    HW132216   9.495   5.716   3.730  1.4618 -0.2138  0.8319
 8606SOL    HW232217   9.507   5.813   3.860 -0.8164  0.7474  0.3496
 8607SOL     OW32218   6.429   1.614   2.041  0.2958  0.4859 -0.6478
 8607SOL    HW132219   6.469   1.630   2.131 -0.7536  2.1795 -0.4430
 8607SOL    HW232220   6.347   1.557   2.050  0.0037  0.9265 -0.4729
 8608SOL     OW32221   8.383   4.481   3.592  0.2402  0.0145  0.2967
 8608SOL    HW132222   8.414   4.570   3.627 -0.1805  0.2764  0.0096
 8608SOL    HW232223   8.298   4.494   3.541 -0.0408 -0.6171  0.6121
 8609SOL     OW32224   6.986   1.571   6.390  0.6729 -0.4696  0.3432
 8609SOL    HW132225   6.950   1.515   6.464  0.9100 -0.3218  0.5690
 8609SOL    HW232226   6.933   1.655   6.383  0.0310 -0.9191 -0.2855
 8610SOL     OW32227   8.518   3.681   4.235 -0.5967  0.1179  0.3437
 8610SOL    HW132228   8.567   3.602   4.200  0.3777  1.1278 -0.6226
 8610SOL    HW232229   8.487   3.738   4.158 -1.1248  0.7659  1.0277
 8611SOL     OW32230   2.817   4.019   2.042  0.0939  0.4898  0.1490
 8611SOL    HW132231   2.771   4.092   2.093 -0.3447 -0.9262  1.7987
 8611SOL    HW232232   2.879   3.970   2.103  1.1661  0.1396 -1.2100
 8612SOL     OW32233   8.637   8.689   5.764 -0.1714  0.2400 -0.4241
 8612SOL    HW132234   8.673   8.596   5.754  2.5152  1.1584  0.1886
 8612SOL    HW232235   8.643   8.736   5.677  0.8499  0.6454 -0.1350
 8614SOL     OW32236   4.404   0.549   1.452 -0.0442  0.5452  0.2580
 8614SOL    HW132237   4.334   0.549   1.523 -1.3813  1.4675 -1.0237
 8614SOL    HW232238   4.477   0.613   1.478 -0.8448  1.3746  0.5243
 8615SOL     OW32239   3.284   2.199   4.302 -0.4153  0.2280 -0.3417
 8615SOL    HW132240   3.354   2.136   4.269 -0.5036  0.6094 -1.2914
 8615SOL    HW232241   3.246   2.166   4.388  1.3904  0.3448  0.5267
 8616SOL     OW32242   0.721   8.626   1.814 -0.4398  0.4386 -0.3021
 8616SOL    HW132243   0.820   8.622   1.824 -0.4835  1.7227  0.9246
 8616SOL    HW232244   0.683   8.534   1.815  0.6754 -0.0217  0.0311
 8618SOL     OW32245   5.664   9.000   4.957 -0.4722  0.1333 -0.1633
 8618SOL    HW132246   5.692   8.910   4.922 -0.0845  0.0099  0.4537
 8618SOL    HW232247   5.723   9.026   5.033 -2.1971 -0.2757  1.3713
 8619SOL     OW32248   4.591   1.447   4.084 -0.5087  0.1793  0.0833
 8619SOL    HW132249   4.559   1.364   4.039 -0.5607  0.3764 -0.2488
 8619SOL    HW232250   4.555   1.451   4.177 -0.7872 -0.0010 -0.0164
 8620SOL     OW32251   1.202   3.116   7.565 -0.6221 -0.0913  0.2850
 8620SOL    HW132252   1.119   3.120   7.621 -0.0729 -1.5556  1.2088
 8620SOL    HW232253   1.199   3.191   7.498 -3.9492 -1.6423 -1.4501
 8622SOL     OW32254   2.788   7.428   1.648  0.1711  0.5932  0.1750
 8622SOL    HW132255   2.868   7.369   1.641  1.1599  2.0371 -0.9149
 8622SOL    HW232256   2.797   7.505   1.585 -2.6510  0.1304 -0.8635
 8623SOL     OW32257   8.979   3.590   0.739 -0.1276  0.6009 -0.1241
 8623SOL    HW132258   8.881   3.573   0.730  0.0087 -0.4127  0.3019
 8623SOL    HW232259   8.994   3.687   0.757 -1.0327  0.8065 -0.4444
 8624SOL     OW32260   3.860   1.157   6.294  0.1232  0.1873 -0.1277
 8624SOL    HW132261   3.858   1.062   6.265 -1.7132  0.4354 -0.8639
 8624SOL    HW232262   3.769   1.197   6.283  0.6096  1.7072  1.2336
 8625SOL     OW32263   8.730   9.519   5.015 -0.3466 -0.3327 -0.6718
 8625SOL    HW132264   8.793   9.444   5.035  0.1731  0.4121  0.5559
 8625SOL    HW232265   8.770   9.576   4.943  1.3124  1.1961  1.3815
 8626SOL     OW32266   9.718   2.091   4.330 -0.2152  0.1100 -0.0112
 8626SOL    HW132267   9.815   2.102   4.308  0.2620 -1.2508  1.2972
 8626SOL    HW232268   9.689   1.998   4.307 -1.1253  0.4211 -0.1235
 8627SOL     OW32269   7.638   0.440   5.410  0.0591 -0.0565  0.0067
 8627SOL    HW132270   7.647   0.528   5.363 -0.7195 -0.1235 -0.2848
 8627SOL    HW232271   7.546   0.433   5.449 -0.4359 -1.4307 -1.3831
 8628SOL     OW32272   7.724   3.441   3.702 -0.7357  0.2033  0.2696
 8628SOL    HW132273   7.818   3.406   3.709 -0.7807 -0.2937 -1.2840
 8628SOL    HW232274   7.667   3.373   3.656 -2.3611 -0.3403  3.0402
 8630SOL     OW32275   9.365   8.023   1.633 -0.1157  0.2649 -0.3132
 8630SOL    HW132276   9.320   8.080   1.701  0.3910  0.0178  0.2315
 8630SOL    HW232277   9.355   8.065   1.543 -2.4554 -0.3803 -0.3902
 8632SOL     OW32278   4.301   1.268   1.999 -0.6898  0.3066  0.4597
 8632SOL    HW132279   4.253   1.340   2.051  1.3798  0.9301  1.5674
 8632SOL    HW232280   4.367   1.310   1.937 -1.3626 -0.5542 -0.8627
 8634SOL     OW32281   2.489   4.788   3.695 -0.4331 -0.3081  0.3484
 8634SOL    HW132282   2.534   4.785   3.606 -0.6748 -0.3408  0.2289
 8634SOL    HW232283   2.534   4.723   3.757 -0.1782 -0.1842  0.2938
 8635SOL     OW32284   0.268   1.172   7.151 -0.4698  0.1271 -0.2509
 8635SOL    HW132285   0.178   1.132   7.134 -0.3621 -0.2121 -0.0324
 8635SOL    HW232286   0.335   1.099   7.163 -0.4311  0.3529  0.9916
 8637SOL     OW32287   4.168   7.192   5.084 -0.5230  0.1679  0.2735
 8637SOL    HW132288   4.185   7.117   5.148  2.3606 -0.7637 -1.4908
 8637SOL    HW232289   4.134   7.155   4.998  2.3931  0.6228 -1.1611
 8638SOL     OW32290   1.224   9.115   5.944  0.2663 -0.6050 -0.3521
 8638SOL    HW132291   1.318   9.092   5.918 -0.4091 -1.9731 -1.6756
 8638SOL    HW232292   1.212   9.104   6.042  1.3871 -0.8135 -0.2357
 8639SOL     OW32293   0.471   6.313   0.768  0.0739  0.1423  0.7675
 8639SOL    HW132294   0.521   6.316   0.854  1.6292 -0.5397 -0.0831
 8639SOL    HW232295   0.399   6.244   0.773 -0.9294  1.2687  2.0735
 8640SOL     OW32296   8.397   9.864   3.989 -0.2431  0.1449 -0.1005
 8640SOL    HW132297   8.389   9.777   4.038  0.3668  0.7247  1.0429
 8640SOL    HW232298   8.467   9.857   3.919  1.4319  0.4046  1.5246
 8641SOL     OW32299   0.304   9.380   1.433 -0.0922 -0.4171 -0.0493
 8641SOL    HW132300   0.308   9.388   1.333 -2.2590  0.0667 -0.1232
 8641SOL    HW232301   0.220   9.335   1.460  0.5235 -0.6402  1.5753
 8644SOL     OW32302   8.110   3.692   1.366  0.4506 -0.6112  0.0520
 8644SOL    HW132303   8.115   3.607   1.418 -3.0296  0.3371  2.1447
 8644SOL    HW232304   8.195   3.743   1.376  0.5101 -1.2482  3.4951
 8647SOL     OW32305   2.029   3.424   5.102 -0.5815 -0.3255 -0.4688
 8647SOL    HW132306   2.001   3.346   5.158 -0.9612 -0.6817 -1.1618
 8647SOL    HW232307   2.076   3.491   5.161  0.6564 -1.5184 -0.0731
 8650SOL     OW32308   8.281   6.154   1.523  0.0853 -0.2553 -0.9257
 8650SOL    HW132309   8.287   6.116   1.615  0.2825 -0.0061 -0.8356
 8650SOL    HW232310   8.213   6.103   1.470 -2.7968  1.9179  0.5122
 8651SOL     OW32311   0.782   9.217   5.738  0.3644  0.1244 -0.4025
 8651SOL    HW132312   0.760   9.224   5.641 -1.1053 -0.8357 -0.1564
 8651SOL    HW232313   0.873   9.175   5.749 -0.3343 -1.7016 -1.3309
 8654SOL     OW32314   3.303   8.224   1.323  0.8156  0.0289  0.2252
 8654SOL    HW132315   3.351   8.136   1.323 -0.2383 -0.5569 -0.4451
 8654SOL    HW232316   3.273   8.246   1.230  0.0182  0.5195  0.5892
 8655SOL     OW32317   5.088   4.575   2.171 -0.2273 -0.4664 -1.0046
 8655SOL    HW132318   5.127   4.546   2.259 -3.0374 -0.1102  0.4003
 8655SOL    HW232319   5.099   4.501   2.105  0.8704 -1.1977 -0.0490
 8657SOL     OW32320   2.509   5.520   3.915  0.4023 -0.5898  0.2865
 8657SOL    HW132321   2.585   5.473   3.870  0.2603 -1.0432  0.5164
 8657SOL    HW232322   2.424   5.497   3.869  0.5094  0.6954 -0.5845
 8659SOL     OW32323   2.361   3.997   4.091 -0.4317 -0.0052 -0.1597
 8659SOL    HW132324   2.363   4.096   4.077 -0.4018  0.0108 -0.0335
 8659SOL    HW232325   2.444   3.968   4.140 -0.5007 -0.0767 -0.0855
 8661SOL     OW32326   3.583   2.887   3.298  0.1786 -0.0184 -0.0729
 8661SOL    HW132327   3.649   2.949   3.255 -0.5163 -0.1524 -1.3768
 8661SOL    HW232328   3.517   2.857   3.229  0.0967 -1.6683  0.7126
 8662SOL     OW32329   3.764   7.979   4.605  0.1956 -0.3036 -0.3126
 8662SOL    HW132330   3.738   7.892   4.564 -0.7341  0.4811 -1.4436
 8662SOL    HW232331   3.808   7.963   4.694 -2.6736 -1.7930  0.9058
 8663SOL     OW32332   3.205   1.870   4.513  0.0489 -0.6099 -0.3394
 8663SOL    HW132333   3.156   1.896   4.430 -0.8847  0.3373  0.5017
 8663SOL    HW232334   3.140   1.836   4.581  0.7553 -0.9558  0.1645
 8664SOL     OW32335   5.556   9.683   5.125  0.0732 -0.3326 -0.3750
 8664SOL    HW132336   5.535   9.751   5.195  0.6447  0.5065 -1.0147
 8664SOL    HW232337   5.487   9.610   5.128 -1.4469  1.0589 -0.7136
 8666SOL     OW32338   5.143   5.043   2.011  0.3762 -0.0617 -0.4518
 8666SOL    HW132339   5.095   5.008   2.091  1.6896 -1.0564 -0.0794
 8666SOL    HW232340   5.126   4.983   1.933  0.6093 -0.1467 -0.4391
 8667SOL     OW32341   2.000   5.590   5.423  0.1433  0.1382  0.2703
 8667SOL    HW132342   1.901   5.586   5.417  0.0436  0.9910  1.2686
 8667SOL    HW232343   2.040   5.541   5.345 -1.0433 -0.8719  0.2840
 8668SOL     OW32344   9.250   7.855   0.731 -0.4294  0.0892 -0.2095
 8668SOL    HW132345   9.336   7.806   0.745  0.5968  1.0111 -3.0429
 8668SOL    HW232346   9.256   7.945   0.774 -1.0926 -0.9287  2.0993
 8670SOL     OW32347   1.908   8.957   5.404 -0.4424  0.2813 -0.2863
 8670SOL    HW132348   1.816   8.961   5.365 -0.6323  0.7859  0.2056
 8670SOL    HW232349   1.960   9.038   5.376 -0.3281  0.2701 -0.1073
 8672SOL     OW32350   3.608   0.725   5.957 -0.2164 -0.7295 -0.0168
 8672SOL    HW132351   3.612   0.824   5.943 -1.4710 -0.5028  1.1113
 8672SOL    HW232352   3.557   0.683   5.882 -1.3600 -0.2868  0.5075
 8673SOL     OW32353   8.321   8.335   0.043 -0.3070  0.9566 -0.5521
 8673SOL    HW132354   8.257   8.385   0.101  0.5798  1.8618 -0.3353
 8673SOL    HW232355   8.412   8.335   0.085  0.6834  2.8514 -2.5567
 8674SOL     OW32356   2.910   5.603   6.991 -0.4180  0.5102  0.2307
 8674SOL    HW132357   2.926   5.618   6.893  1.3112  1.7925  0.6725
 8674SOL    HW232358   2.909   5.505   7.010  3.4480  0.2311 -0.4836
 8675SOL     OW32359   7.687   8.771   4.589 -0.3191  0.0007  0.2547
 8675SOL    HW132360   7.654   8.802   4.501 -0.6987 -2.3321 -0.4731
 8675SOL    HW232361   7.780   8.803   4.604 -0.0393 -0.0823 -1.2693
 8676SOL     OW32362   4.154   2.936   5.537 -0.1998  0.2113 -0.1451
 8676SOL    HW132363   4.155   2.880   5.454  1.5206 -0.0493  0.0162
 8676SOL    HW232364   4.097   2.892   5.606 -1.3392  0.2362 -1.0520
 8677SOL     OW32365   7.781   8.307   6.055  0.2133 -0.1374 -0.3114
 8677SOL    HW132366   7.716   8.341   5.988 -0.7669 -1.4321 -0.0379
 8677SOL    HW232367   7.871   8.348   6.038 -0.0529 -0.3242 -2.3223
 8678SOL     OW32368   7.127   9.760   3.222 -0.2314 -0.1344 -0.2304
 8678SOL    HW132369   7.110   9.853   3.255 -0.8302 -0.4875  0.4790
 8678SOL    HW232370   7.056   9.734   3.158  0.6525  0.3644 -1.4353
 8679SOL     OW32371   7.453   8.677   3.546  0.7503  0.4798  0.1845
 8679SOL    HW132372   7.481   8.756   3.492 -1.6373  0.4113 -1.2434
 8679SOL    HW232373   7.437   8.705   3.640  0.5399  1.5667 -0.1641
 8682SOL     OW32374   4.979   8.368   7.509 -0.4393 -0.1914 -0.1522
 8682SOL    HW132375   4.898   8.340   7.561 -0.8573  1.0390 -0.1275
 8682SOL    HW232376   4.957   8.368   7.411 -0.2174 -0.6558 -0.2046
 8683SOL     OW32377   4.939   2.388   5.200 -0.4664  0.0476 -0.0173
 8683SOL    HW132378   4.933   2.462   5.133  2.4964  0.3233 -0.0410
 8683SOL    HW232379   4.950   2.426   5.291 -0.0212 -0.3638  0.1005
 8684SOL     OW32380   2.091   1.653   7.661 -0.1900  0.1309  1.1797
 8684SOL    HW132381   2.086   1.744   7.702 -0.5795  0.6191  0.0657
 8684SOL    HW232382   2.002   1.608   7.667 -0.3552  0.3599  0.5359
 8685SOL     OW32383   4.607   0.333   6.757 -0.0156 -0.2351  0.0346
 8685SOL    HW132384   4.562   0.386   6.686  1.3798  0.0777 -0.6493
 8685SOL    HW232385   4.587   0.372   6.847 -1.2184 -0.2123 -0.2445
 8686SOL     OW32386   5.598   1.515   6.707  0.0759 -0.3836 -0.6215
 8686SOL    HW132387   5.510   1.550   6.738  0.5439 -0.7339  1.1729
 8686SOL    HW232388   5.670   1.581   6.730  0.2534  0.0804 -2.4266
 8687SOL     OW32389   8.041   7.477   4.303  0.3570 -0.2424  0.0274
 8687SOL    HW132390   8.057   7.388   4.261 -0.6932  0.3648 -1.7068
 8687SOL    HW232391   7.956   7.516   4.269  0.1615  0.8938  1.7123
 8688SOL     OW32392   5.559   5.055   0.113 -0.4543  0.6701 -0.0472
 8688SOL    HW132393   5.574   5.032   0.017  0.0295 -0.9003  0.3981
 8688SOL    HW232394   5.529   5.151   0.120  1.4963  1.4320 -1.6102
 8689SOL     OW32395   0.884   7.998   5.362 -0.4484 -0.6172  0.2974
 8689SOL    HW132396   0.801   7.978   5.310 -0.3934 -1.6000  0.5770
 8689SOL    HW232397   0.867   7.980   5.459 -0.0219 -0.4512  0.4027
 8691SOL     OW32398   4.583   8.532   5.970 -0.4787  0.4485  0.4050
 8691SOL    HW132399   4.518   8.551   6.043 -0.1710 -1.2008  1.1080
 8691SOL    HW232400   4.669   8.499   6.009 -0.5124 -1.0113 -0.7244
 8692SOL     OW32401   0.883   3.535   5.515 -0.2326  0.1907 -0.7610
 8692SOL    HW132402   0.961   3.527   5.453 -0.5721  0.2811 -1.2052
 8692SOL    HW232403   0.865   3.446   5.557 -0.2684  0.0273 -1.1230
 8693SOL     OW32404   1.516   6.613   3.423  0.6106  0.2543 -0.0563
 8693SOL    HW132405   1.569   6.623   3.507 -1.5817 -0.1394  1.4153
 8693SOL    HW232406   1.447   6.685   3.418 -0.4117 -0.7408 -0.6231
 8694SOL     OW32407   6.587   6.891   5.667  0.3812  0.2644 -0.1420
 8694SOL    HW132408   6.539   6.961   5.721  0.3782 -0.8266  1.2858
 8694SOL    HW232409   6.526   6.814   5.650  1.1180 -0.4152  0.2816
 8697SOL     OW32410   2.228   3.769   4.776 -0.2679 -0.7637  0.1612
 8697SOL    HW132411   2.319   3.736   4.800 -1.0459 -1.3255  2.4423
 8697SOL    HW232412   2.194   3.829   4.849 -0.8798  1.1217 -1.6447
 8698SOL     OW32413   0.249   8.667   7.694 -0.2042 -0.8745 -0.3298
 8698SOL    HW132414   0.182   8.740   7.685  0.6512  0.4425  3.0821
 8698SOL    HW232415   0.219   8.603   7.765  1.7317 -0.6863  0.6927
 8699SOL     OW32416   3.991   6.353   0.246 -0.7255 -0.2725  0.4807
 8699SOL    HW132417   4.033   6.299   0.320  1.6780 -1.2550 -1.5118
 8699SOL    HW232418   3.918   6.409   0.284  0.4253 -0.7390  3.6109
 8700SOL     OW32419   8.485   7.537   2.373 -0.0523  0.0621 -0.1506
 8700SOL    HW132420   8.553   7.528   2.446  0.5302  1.8315 -0.4453
 8700SOL    HW232421   8.509   7.616   2.315 -0.8765 -0.9178 -1.8530
 8702SOL     OW32422   6.017   7.843   7.395 -0.2085  0.0285 -0.2662
 8702SOL    HW132423   5.993   7.857   7.299 -0.0094 -2.0245 -0.6306
 8702SOL    HW232424   6.099   7.896   7.417 -0.3792  0.6725 -1.1600
 8703SOL     OW32425   3.412   6.120   0.034 -0.3204  0.1182  0.1468
 8703SOL    HW132426   3.418   6.201  -0.025 -0.6326  0.1462  0.1528
 8703SOL    HW232427   3.478   6.128   0.108 -0.9579  0.7925  0.6551
 8704SOL     OW32428   7.864   9.734   7.611 -0.3648 -0.0953 -0.0789
 8704SOL    HW132429   7.881   9.745   7.709 -1.0728 -0.8381  0.1356
 8704SOL    HW232430   7.801   9.805   7.580  0.1856  0.3928 -0.0852
 8705SOL     OW32431   2.329   1.598   7.521  0.5623  0.2446  0.5286
 8705SOL    HW132432   2.239   1.622   7.557  0.6766  1.3065  0.1360
 8705SOL    HW232433   2.371   1.528   7.579 -0.5435 -0.3020  0.6629
 8707SOL     OW32434   9.253   7.989   6.333 -0.2333 -0.0989  0.4640
 8707SOL    HW132435   9.223   8.072   6.285  0.0937 -0.5169 -0.4737
 8707SOL    HW232436   9.321   8.013   6.402 -0.1325  0.4168  0.1886
 8708SOL     OW32437   6.484   2.486   2.192  0.5965  0.2386  0.3682
 8708SOL    HW132438   6.534   2.550   2.251  1.1358  1.1677 -1.0534
 8708SOL    HW232439   6.538   2.403   2.179 -0.1831 -0.6085  2.3668
 8710SOL     OW32440   3.192   9.251   5.576 -0.3005  0.2736  0.0595
 8710SOL    HW132441   3.111   9.240   5.519 -1.2264 -0.4486  1.4857
 8710SOL    HW232442   3.264   9.297   5.524 -1.6498  0.9952 -1.1936
 8711SOL     OW32443   0.355   6.340   5.607  0.3956  0.2688 -0.1420
 8711SOL    HW132444   0.262   6.366   5.633  0.3061 -1.0079  0.8372
 8711SOL    HW232445   0.420   6.406   5.645 -0.0845  1.0561 -0.6686
 8712SOL     OW32446   1.763   0.118   5.695  0.4318 -0.2511  0.2426
 8712SOL    HW132447   1.723   0.051   5.633 -2.0320  1.5839 -0.2505
 8712SOL    HW232448   1.805   0.192   5.642  2.9719 -1.2531  0.7762
 8713SOL     OW32449   8.871   5.738   4.651  0.4372  0.4906 -0.0842
 8713SOL    HW132450   8.778   5.704   4.637  0.5403 -0.0804  0.6352
 8713SOL    HW232451   8.935   5.679   4.603  0.6355 -0.4794  1.3389
 8714SOL     OW32452   2.840   6.773   6.087  0.1618  0.2974 -0.0964
 8714SOL    HW132453   2.923   6.811   6.046  0.6581 -1.0279 -0.3556
 8714SOL    HW232454   2.865   6.714   6.164 -0.5700  0.0868 -0.0139
 8715SOL     OW32455   4.669   8.953   6.498  0.0978 -0.0469 -0.3563
 8715SOL    HW132456   4.766   8.947   6.523  0.0998  1.7586  0.1147
 8715SOL    HW232457   4.653   9.038   6.449 -1.2478 -0.3753 -0.4900
 8716SOL     OW32458   2.690   8.859   3.005  0.0947 -0.5287 -0.3578
 8716SOL    HW132459   2.658   8.942   2.960 -1.1019 -0.6592  0.2220
 8716SOL    HW232460   2.784   8.871   3.035  0.0324  0.5056 -0.5681
 8717SOL     OW32461   8.890   0.713   6.131 -0.0075 -0.1822  0.1018
 8717SOL    HW132462   8.975   0.757   6.100 -0.1273  0.2454  0.3760
 8717SOL    HW232463   8.887   0.715   6.231 -0.5674  0.2170  0.0748
 8718SOL     OW32464   0.731   4.332   4.586  0.3630  0.0937  0.3494
 8718SOL    HW132465   0.699   4.292   4.500 -2.0292 -0.0047  1.2589
 8718SOL    HW232466   0.683   4.419   4.602  2.1566  1.0527  0.6880
 8719SOL     OW32467   4.937   3.031   4.459  0.8018 -0.3550 -0.2023
 8719SOL    HW132468   4.942   2.939   4.498  1.2071  0.0501  0.6976
 8719SOL    HW232469   4.867   3.083   4.506 -0.0867 -0.5019 -1.3502
 8720SOL     OW32470   8.090   5.191   0.092 -0.5745  0.4815 -0.2459
 8720SOL    HW132471   8.027   5.114   0.097 -0.4709  0.3003 -1.5967
 8720SOL    HW232472   8.044   5.273   0.127 -0.8591 -0.0820  0.7048
 8721SOL     OW32473   1.855   5.620   7.475  0.1715  0.0242 -0.2624
 8721SOL    HW132474   1.927   5.585   7.415 -1.3562 -0.0307 -2.1009
 8721SOL    HW232475   1.773   5.565   7.464 -0.5084  0.7756  0.9875
 8722SOL     OW32476   1.432   3.642   2.927 -0.2075  0.1322  0.1269
 8722SOL    HW132477   1.527   3.662   2.903 -0.4541 -0.8019 -1.7160
 8722SOL    HW232478   1.427   3.554   2.974 -0.1059  0.4651  0.7727
 8723SOL     OW32479   0.625   9.190   4.729  0.0696 -0.2956  0.8647
 8723SOL    HW132480   0.720   9.165   4.712 -0.6858 -2.1525 -0.8308
 8723SOL    HW232481   0.576   9.112   4.767 -1.6843 -0.6028 -1.9246
 8724SOL     OW32482   5.292   9.394   2.518  0.0504  0.2304  0.5108
 8724SOL    HW132483   5.271   9.344   2.602  0.7173  1.4990  1.4643
 8724SOL    HW232484   5.375   9.356   2.476  1.0099  1.0036  1.6522
 8725SOL     OW32485   8.997   4.635   5.967  0.2106  0.6323  0.1484
 8725SOL    HW132486   8.932   4.620   5.893 -0.4769  0.6712  0.7440
 8725SOL    HW232487   8.997   4.557   6.029 -2.7163  2.5887  2.7411
 8726SOL     OW32488   6.483   0.898   2.085 -0.4028  0.3344  0.5260
 8726SOL    HW132489   6.583   0.907   2.089 -0.2104 -0.3818 -2.2249
 8726SOL    HW232490   6.441   0.988   2.100  0.7603  1.2315 -1.5145
 8728SOL     OW32491   8.547   9.646   1.185  0.4066  0.3094  0.5596
 8728SOL    HW132492   8.482   9.590   1.133 -0.1875  0.8591  0.7143
 8728SOL    HW232493   8.639   9.633   1.147 -0.2855  2.2299 -1.9343
 8729SOL     OW32494   1.814   2.583   7.718 -0.2710  0.5651  0.0323
 8729SOL    HW132495   1.875   2.660   7.703  1.0404 -0.1516  1.6341
 8729SOL    HW232496   1.855   2.500   7.682 -0.5516  0.1735  0.6069
 8730SOL     OW32497   8.517   9.278   4.951 -0.1484 -0.2353  0.5820
 8730SOL    HW132498   8.471   9.192   4.929 -2.1740  1.4725 -2.1578
 8730SOL    HW232499   8.468   9.324   5.025 -0.1050 -0.5790  0.8266
 8731SOL     OW32500   9.708   5.854   7.321  0.0648  0.4810  0.0908
 8731SOL    HW132501   9.795   5.832   7.366 -0.5675 -0.2170  0.9793
 8731SOL    HW232502   9.676   5.774   7.271 -0.2241  0.6420  0.0203
 8732SOL     OW32503   8.119   2.021   3.585  0.0261 -0.1173  0.0026
 8732SOL    HW132504   8.107   2.084   3.508  0.8749  0.2534  0.1619
 8732SOL    HW232505   8.163   2.070   3.660  0.4761 -0.8414  0.2121
 8733SOL     OW32506   0.783   9.376   2.181  0.9524  0.4059  0.0844
 8733SOL    HW132507   0.714   9.421   2.238  2.7885 -0.5847  3.2585
 8733SOL    HW232508   0.775   9.408   2.087 -1.4065  3.0743  1.1104
 8735SOL     OW32509   8.073   4.036   2.654 -0.0797  0.1666 -0.1788
 8735SOL    HW132510   8.055   4.008   2.560  1.8467  1.5708 -1.0146
 8735SOL    HW232511   8.086   3.955   2.712 -1.1875 -0.7013 -1.1410
 8736SOL     OW32512   0.808   2.817   6.529 -0.1891  0.3578  0.6267
 8736SOL    HW132513   0.851   2.843   6.443 -0.2106 -1.7785 -0.0462
 8736SOL    HW232514   0.777   2.722   6.524  0.6489 -0.1041  3.3054
 8737SOL     OW32515   6.904   0.312   3.434 -0.0120 -0.1805  0.3428
 8737SOL    HW132516   6.859   0.313   3.345 -0.8971 -1.4280  0.7731
 8737SOL    HW232517   7.000   0.337   3.422 -0.6460  1.9130 -0.6588
 8738SOL     OW32518   8.314   1.978   2.639 -0.8410  0.4561  0.4669
 8738SOL    HW132519   8.367   2.051   2.682 -0.3330  0.3516  0.0258
 8738SOL    HW232520   8.309   1.993   2.540 -1.1393  0.1515  0.4333
 8739SOL     OW32521   8.495   4.616   7.011 -0.0113 -0.1278 -0.5629
 8739SOL    HW132522   8.540   4.528   7.025 -1.7532 -0.8327  0.8486
 8739SOL    HW232523   8.398   4.601   6.990  0.0633  1.3946 -2.1842
 8740SOL     OW32524   5.163   5.836   0.841  0.1319 -0.0270  0.6728
 8740SOL    HW132525   5.071   5.832   0.880 -0.1098 -1.7102 -0.0405
 8740SOL    HW232526   5.189   5.932   0.827 -1.1008  0.4943  1.8131
 8741SOL     OW32527   7.308   6.870   3.187 -0.0428 -0.8793  0.1728
 8741SOL    HW132528   7.365   6.934   3.238 -1.1707  0.5035 -0.2493
 8741SOL    HW232529   7.266   6.804   3.250 -1.8799  1.1621  1.1375
 8742SOL     OW32530   2.274   0.245   7.559 -0.6630 -0.2489 -0.3723
 8742SOL    HW132531   2.333   0.325   7.549  0.3550 -0.9976 -0.5300
 8742SOL    HW232532   2.214   0.257   7.637  0.6329 -0.0109  0.6113
 8743SOL     OW32533   2.337   1.365   0.475 -0.2657  0.5568 -0.0334
 8743SOL    HW132534   2.326   1.330   0.381  1.3183  0.7773 -0.3219
 8743SOL    HW232535   2.251   1.406   0.506 -0.9297  0.0964 -1.2325
 8744SOL     OW32536   0.024   8.863   2.434  0.1278  0.0166  0.9412
 8744SOL    HW132537   0.085   8.883   2.357  0.6000  1.6922  1.7139
 8744SOL    HW232538  -0.028   8.946   2.457 -3.1133 -1.5971 -0.2544
 8745SOL     OW32539   2.861   2.116   3.189 -0.5232  0.2174 -0.0098
 8745SOL    HW132540   2.949   2.080   3.160 -0.7856 -1.1914  0.8901
 8745SOL    HW232541   2.871   2.161   3.277 -0.5599  0.7533 -0.2749
 8746SOL     OW32542   7.816   2.148   0.889 -0.1030  0.2405 -0.2722
 8746SOL    HW132543   7.803   2.175   0.984 -0.5598  0.1539 -0.3091
 8746SOL    HW232544   7.730   2.158   0.839  0.5151  1.7848 -1.0649
 8748SOL     OW32545   3.241   5.621   4.685  0.4090  0.5085 -0.4466
 8748SOL    HW132546   3.228   5.553   4.758 -2.8585  2.5834  1.0330
 8748SOL    HW232547   3.294   5.698   4.720  0.9308  0.4050 -1.0066
 8749SOL     OW32548   9.248   5.252   5.369  0.7740 -0.0674  0.3285
 8749SOL    HW132549   9.194   5.205   5.299  4.0435 -1.8246 -1.1044
 8749SOL    HW232550   9.187   5.285   5.441 -2.2468 -1.5436 -1.4570
 8750SOL     OW32551   8.846   9.717   2.660 -0.8242 -0.3064 -0.2020
 8750SOL    HW132552   8.863   9.812   2.686  0.1704 -0.1186 -1.4478
 8750SOL    HW232553   8.837   9.661   2.742  0.2340  0.5897  0.5480
 8751SOL     OW32554   9.800   3.874   5.222 -0.3684 -0.2246 -0.5788
 8751SOL    HW132555   9.820   3.863   5.319  0.5354 -2.1012 -0.9626
 8751SOL    HW232556   9.701   3.886   5.210 -0.7080 -1.7828  0.4341
 8753SOL     OW32557   0.285   2.437   4.621 -0.9019  0.1093  0.0763
 8753SOL    HW132558   0.318   2.464   4.531  0.0963 -1.9074 -0.1782
 8753SOL    HW232559   0.348   2.470   4.691  0.3157 -1.5317 -0.2333
 8754SOL     OW32560   0.755   1.250   3.367  0.6417  0.1779  0.0684
 8754SOL    HW132561   0.709   1.298   3.442 -0.1957  2.3496 -1.7727
 8754SOL    HW232562   0.713   1.160   3.354 -2.8957  1.9382 -1.3222
 8755SOL     OW32563   3.111   5.037   2.453 -0.3259 -0.1585  0.4544
 8755SOL    HW132564   3.033   5.087   2.490 -0.7932 -1.2791  0.9803
 8755SOL    HW232565   3.157   4.987   2.526 -1.8369 -3.1763 -0.5901
 8756SOL     OW32566   2.536   1.064   7.547 -0.0604 -0.1123 -0.1065
 8756SOL    HW132567   2.582   0.982   7.513 -0.6167 -0.4998  0.0672
 8756SOL    HW232568   2.592   1.106   7.618 -0.4586 -1.1631  0.8436
 8757SOL     OW32569   4.103   4.340   1.089 -0.5839  0.1069  0.2405
 8757SOL    HW132570   4.156   4.417   1.051 -0.8890  0.9122  1.4348
 8757SOL    HW232571   4.119   4.259   1.033 -0.0748  0.9748 -0.9099
 8758SOL     OW32572   9.385   4.092   6.983  0.1893 -0.3530  0.0861
 8758SOL    HW132573   9.361   4.050   7.071 -0.5285  0.0495  0.0777
 8758SOL    HW232574   9.482   4.073   6.963 -0.0995 -1.9666  0.1089
 8760SOL     OW32575   7.782   5.405   2.875 -0.1413  0.8107 -0.3750
 8760SOL    HW132576   7.725   5.370   2.801 -1.0469  1.4140  0.0397
 8760SOL    HW232577   7.879   5.388   2.853 -0.5185 -1.4911 -0.4266
 8761SOL     OW32578   7.176   9.586   6.454 -0.1859  0.0324 -0.1803
 8761SOL    HW132579   7.148   9.522   6.383 -1.3504  2.0524 -1.5922
 8761SOL    HW232580   7.263   9.628   6.430  0.0765 -0.2651  0.2439
 8762SOL     OW32581   1.593   8.616   0.998  0.1162  0.3047 -0.2367
 8762SOL    HW132582   1.634   8.673   0.926 -1.7229  1.4758 -0.4086
 8762SOL    HW232583   1.644   8.628   1.083  2.8307 -1.7473 -1.5246
 8763SOL     OW32584   9.108   7.675   0.884  0.0954 -0.0438 -0.3470
 8763SOL    HW132585   9.027   7.652   0.830 -1.5172  1.7886  1.2205
 8763SOL    HW232586   9.165   7.739   0.832 -0.5237  0.2979 -0.6108
 8764SOL     OW32587   7.675   3.141   4.145 -0.2885  1.0473  0.2168
 8764SOL    HW132588   7.748   3.113   4.207 -0.5659 -0.7745 -0.2507
 8764SOL    HW232589   7.713   3.199   4.073  1.3580 -2.5177 -1.9013
 8765SOL     OW32590   5.837   5.755   0.358 -0.4534 -0.4329  0.0541
 8765SOL    HW132591   5.896   5.711   0.290  0.6452 -1.7300  1.8092
 8765SOL    HW232592   5.825   5.851   0.335  0.7640 -0.6142 -1.3924
 8766SOL     OW32593   2.870   7.132   0.624  0.7421 -0.1796 -0.3296
 8766SOL    HW132594   2.789   7.106   0.677 -0.0509 -1.3995 -2.1344
 8766SOL    HW232595   2.944   7.068   0.643  1.1289  0.5802  0.8459
 8767SOL     OW32596   7.937   4.943   1.890 -0.1125 -0.4013 -0.0089
 8767SOL    HW132597   7.981   4.966   1.803 -0.5812  0.9681  0.0936
 8767SOL    HW232598   7.855   4.889   1.873  1.6555 -3.0938 -0.1906
 8768SOL     OW32599   0.652   9.904   2.666  0.0495 -0.0035  0.1358
 8768SOL    HW132600   0.577   9.964   2.693 -0.9623 -1.7591  1.3339
 8768SOL    HW232601   0.727   9.913   2.732  0.8363  1.5726 -0.9314
 8770SOL     OW32602   2.875   8.123   3.498 -0.1039 -0.3130 -0.0055
 8770SOL    HW132603   2.891   8.190   3.570  0.1063  0.6238 -0.9043
 8770SOL    HW232604   2.789   8.144   3.451 -0.2564 -0.9265 -0.0073
 8771SOL     OW32605   8.275   0.106   5.550  0.0401  0.0106 -0.4671
 8771SOL    HW132606   8.325   0.036   5.602  1.6511  2.4062  1.3095
 8771SOL    HW232607   8.315   0.112   5.458  0.8594 -0.3919 -0.1506
 8772SOL     OW32608   1.269   9.463   3.805  0.6453 -0.0550 -0.0820
 8772SOL    HW132609   1.280   9.503   3.713  0.1115 -0.0976 -0.1673
 8772SOL    HW232610   1.225   9.373   3.797  1.3076 -0.3970  0.1572
 8774SOL     OW32611   6.273   3.314   1.776 -0.1843 -0.3461 -0.4663
 8774SOL    HW132612   6.291   3.297   1.873 -0.3919  0.8044 -0.2126
 8774SOL    HW232613   6.274   3.228   1.726 -0.2869 -0.9718  0.5953
 8775SOL     OW32614   9.301   8.763   6.419  0.3525  0.1074 -0.2270
 8775SOL    HW132615   9.369   8.795   6.485  1.2210 -0.1608 -0.9834
 8775SOL    HW232616   9.228   8.831   6.411  0.9803  0.8069 -0.0588
 8776SOL     OW32617   1.491   9.615   2.930  0.1479  0.3341  0.0191
 8776SOL    HW132618   1.446   9.526   2.944 -0.5937  1.0209  2.1644
 8776SOL    HW232619   1.519   9.652   3.018  3.3306  0.7910 -1.1265
 8777SOL     OW32620   9.935   9.174   5.253 -0.4556 -0.3261 -0.0591
 8777SOL    HW132621   9.863   9.159   5.185  1.4287  0.1504 -2.2383
 8777SOL    HW232622  10.024   9.153   5.213  0.7623  0.4197  2.1341
 8778SOL     OW32623   3.609   7.481   0.218 -0.7163  0.1175  0.4090
 8778SOL    HW132624   3.676   7.411   0.242  0.7307  1.4152  0.2750
 8778SOL    HW232625   3.657   7.562   0.185 -2.4617  0.1648 -2.1364
 8779SOL     OW32626   4.177   3.462   4.578  0.4582 -0.2602  0.7111
 8779SOL    HW132627   4.178   3.398   4.655 -0.9912 -0.9084  0.1995
 8779SOL    HW232628   4.188   3.412   4.492 -0.1957  0.2219  0.3411
 8780SOL     OW32629   7.640   0.857   5.530 -0.1445 -0.2082  0.1829
 8780SOL    HW132630   7.692   0.826   5.451  0.5350  0.4706  0.3504
 8780SOL    HW232631   7.557   0.802   5.540 -1.8459  1.6566 -2.8362
 8781SOL     OW32632   3.592   1.120   6.161 -0.3367 -0.2565  0.5678
 8781SOL    HW132633   3.540   1.203   6.141  0.7817  0.2449 -0.2583
 8781SOL    HW232634   3.616   1.074   6.076 -0.1822 -0.9539  0.9877
 8782SOL     OW32635   3.824   2.935   2.920  0.1822 -0.3783  0.3724
 8782SOL    HW132636   3.822   2.844   2.961  1.1484 -0.6444 -0.1551
 8782SOL    HW232637   3.863   2.929   2.828 -2.1963  0.1720 -0.6913
 8784SOL     OW32638   8.121   3.675   0.214 -0.6536 -0.1427 -0.1649
 8784SOL    HW132639   8.217   3.657   0.195 -1.2153 -2.0811 -1.2978
 8784SOL    HW232640   8.080   3.724   0.138 -0.7826 -0.1574 -0.1061
 8786SOL     OW32641   0.114   4.974   0.426 -0.1491 -0.4795  0.0353
 8786SOL    HW132642   0.174   5.045   0.388 -0.3919 -0.7466 -0.8678
 8786SOL    HW232643   0.101   4.902   0.358 -0.3381 -1.1282  0.7541
 8787SOL     OW32644   7.330   3.142   1.715  1.0627  0.1262  0.1908
 8787SOL    HW132645   7.316   3.126   1.812 -0.5939 -1.1194 -0.2337
 8787SOL    HW232646   7.242   3.158   1.670  1.8981  1.6839 -0.9460
 8788SOL     OW32647   6.150   0.241   2.602  0.2009  0.4029  0.3922
 8788SOL    HW132648   6.118   0.335   2.612 -0.9680  0.0020  0.4283
 8788SOL    HW232649   6.182   0.227   2.508 -0.1901  0.6675  0.2177
 8789SOL     OW32650   1.534   6.298   1.330 -0.2627 -0.1101 -0.4889
 8789SOL    HW132651   1.522   6.202   1.308 -2.4550  0.0814 -0.2521
 8789SOL    HW232652   1.600   6.307   1.405 -1.1730 -1.5459  0.5129
 8791SOL     OW32653   4.670   0.875   0.757  0.4226 -0.5520  0.0277
 8791SOL    HW132654   4.693   0.959   0.806 -0.7311 -0.0320 -0.2903
 8791SOL    HW232655   4.658   0.896   0.660 -2.7438 -0.4793  0.3695
 8792SOL     OW32656   1.593   0.716   2.622 -0.7284  0.3309  0.3882
 8792SOL    HW132657   1.563   0.734   2.716 -3.1336  0.6461 -0.4276
 8792SOL    HW232658   1.668   0.778   2.599 -0.0866  0.2237  2.0900
 8794SOL     OW32659   4.403   4.218   0.708 -0.3787 -0.0842 -0.3557
 8794SOL    HW132660   4.412   4.125   0.673 -0.2173  0.3201 -1.3971
 8794SOL    HW232661   4.492   4.252   0.737 -0.6417 -0.7233  1.2600
 8795SOL     OW32662   4.032   2.015   4.309  0.8646  0.5984 -0.1354
 8795SOL    HW132663   4.034   2.113   4.285  0.3294  0.0869 -2.3749
 8795SOL    HW232664   3.970   2.002   4.386 -0.2317  1.8573 -0.7740
 8799SOL     OW32665   4.408   0.285   7.187 -0.2983  0.4223  0.5261
 8799SOL    HW132666   4.405   0.185   7.180  1.5999  0.3826 -0.0190
 8799SOL    HW232667   4.441   0.310   7.278 -1.4469  0.5664  0.9043
 8800SOL     OW32668   2.601   6.927   3.894 -0.3872  0.8210 -0.0048
 8800SOL    HW132669   2.630   7.008   3.844  3.1253 -1.3737 -1.6798
 8800SOL    HW232670   2.619   6.940   3.992  1.2298  1.6499 -0.3914
 8801SOL     OW32671   1.474   5.783   1.834  0.2613  0.0196  0.2675
 8801SOL    HW132672   1.468   5.838   1.751 -2.5890  0.0822  0.4688
 8801SOL    HW232673   1.512   5.838   1.908  2.2831  0.1311 -0.8107
 8802SOL     OW32674   8.958   7.027   3.404 -0.1619 -0.1755  0.2843
 8802SOL    HW132675   9.024   7.038   3.330 -2.3918 -2.0271 -2.0925
 8802SOL    HW232676   8.912   7.115   3.421  0.4866  0.3037 -0.4158
 8804SOL     OW32677   0.836   5.693   0.617 -0.1502 -0.2170 -0.1988
 8804SOL    HW132678   0.756   5.753   0.626  1.3351  1.7072  0.4693
 8804SOL    HW232679   0.887   5.720   0.535  0.0096 -1.2364 -0.4378
 8806SOL     OW32680   4.795   1.912   1.526 -0.0417  0.0858  0.0594
 8806SOL    HW132681   4.715   1.851   1.531  0.1802 -0.2916 -0.8375
 8806SOL    HW232682   4.768   2.005   1.550 -0.5021 -0.2733  0.9312
 8807SOL     OW32683   9.587   0.594   1.649  0.0202 -0.3976  0.4358
 8807SOL    HW132684   9.659   0.661   1.666  0.8744 -1.0200 -0.7075
 8807SOL    HW232685   9.529   0.625   1.574  0.1719 -0.7327  0.1762
 8808SOL     OW32686   8.274   6.079   3.345 -0.2214 -0.5161 -0.0416
 8808SOL    HW132687   8.267   6.152   3.412 -1.8701 -1.8665  1.3012
 8808SOL    HW232688   8.187   6.067   3.298  0.3512 -0.9006 -1.0411
 8809SOL     OW32689   2.424   3.808   2.294  0.1128  0.0239 -0.6144
 8809SOL    HW132690   2.416   3.888   2.234 -1.4883 -0.5448 -1.1679
 8809SOL    HW232691   2.457   3.837   2.384  0.6952  1.1414 -1.1828
 8810SOL     OW32692   0.014   0.271   2.188  0.1617 -0.3240 -0.8456
 8810SOL    HW132693   0.107   0.279   2.152  0.0352 -1.5333 -1.4872
 8810SOL    HW232694   0.009   0.191   2.248 -0.5325 -0.4354 -1.0493
 8811SOL     OW32695   4.691   0.468   1.032  0.0605 -0.0038  0.0422
 8811SOL    HW132696   4.766   0.526   1.002 -2.5860  2.7427 -1.5814
 8811SOL    HW232697   4.672   0.484   1.129  0.4455  0.5700  0.0230
 8814SOL     OW32698   7.718   5.501   7.399 -0.7722 -0.5870  0.6742
 8814SOL    HW132699   7.684   5.572   7.460 -1.0085  2.0527 -2.4193
 8814SOL    HW232700   7.817   5.494   7.408 -0.8176 -0.3060  1.4236
 8815SOL     OW32701   7.330   0.403   0.705 -0.4716 -0.1311  0.0916
 8815SOL    HW132702   7.416   0.354   0.714 -1.2350 -1.5934 -0.3952
 8815SOL    HW232703   7.331   0.459   0.622 -0.5169 -1.2732 -0.6961
 8816SOL     OW32704   6.182   3.427   0.925  0.9975  0.2885 -0.2675
 8816SOL    HW132705   6.106   3.475   0.882  3.0958  2.6262 -1.4926
 8816SOL    HW232706   6.216   3.355   0.865  0.1185 -0.4064  0.0587
 8818SOL     OW32707   6.323   0.336   0.794  0.4939 -0.2125  0.5071
 8818SOL    HW132708   6.295   0.347   0.889 -0.4877 -1.1487  0.3465
 8818SOL    HW232709   6.360   0.244   0.780  0.1802 -0.2547 -0.1086
 8819SOL     OW32710   9.057   6.932   2.706 -0.9570 -0.6163  0.0761
 8819SOL    HW132711   9.019   7.021   2.730 -2.0069 -1.0563  0.0559
 8819SOL    HW232712   9.026   6.864   2.773 -2.2424 -1.4608 -1.3516
 8820SOL     OW32713   4.397   1.259   0.437 -0.1401 -0.0847  0.1064
 8820SOL    HW132714   4.448   1.188   0.389  1.1373 -0.6113  2.1760
 8820SOL    HW232715   4.358   1.323   0.371  4.5416  1.2739 -1.5215
 8823SOL     OW32716   3.246   3.980   0.782  0.4171  0.3909  0.3952
 8823SOL    HW132717   3.228   3.894   0.733 -0.1180  0.5759  0.2600
 8823SOL    HW232718   3.255   4.055   0.716  1.0571  0.4110  0.5036
 8824SOL     OW32719   9.444   1.793   1.059 -0.1024 -0.2018 -0.1956
 8824SOL    HW132720   9.400   1.705   1.045  0.1545 -0.2870 -0.4795
 8824SOL    HW232721   9.542   1.779   1.076 -0.2818 -0.0489  0.9570
 8825SOL     OW32722   5.950   3.095   2.273 -0.5942 -0.2285  0.0644
 8825SOL    HW132723   5.940   3.035   2.194 -0.1299 -0.2698  0.0344
 8825SOL    HW232724   6.008   3.173   2.248  1.5739 -1.4785  1.0402
 8827SOL     OW32725   2.320   5.284   4.996 -0.0847 -0.1659  0.2573
 8827SOL    HW132726   2.327   5.287   5.096 -0.6614  0.2859  0.2874
 8827SOL    HW232727   2.229   5.314   4.968 -0.4856 -1.8837 -0.3260
 8828SOL     OW32728   8.885   0.696   1.620 -0.0106 -0.4046  0.3380
 8828SOL    HW132729   8.911   0.717   1.526 -0.0007  0.1095  0.4547
 8828SOL    HW232730   8.821   0.619   1.621 -1.0116  0.4011 -0.1868
 8829SOL     OW32731   9.568   9.114   6.905  0.0049  0.0383 -0.1363
 8829SOL    HW132732   9.605   9.054   6.975  0.7996 -2.2653 -2.4262
 8829SOL    HW232733   9.469   9.124   6.918 -0.1767 -1.9725  0.1602
 8831SOL     OW32734   1.046   8.296   6.495  0.1876  0.3926 -0.2298
 8831SOL    HW132735   1.048   8.390   6.529  0.6282 -0.0784  1.0767
 8831SOL    HW232736   1.010   8.236   6.566 -0.7477 -0.3358 -1.2984
 8833SOL     OW32737   7.696   9.122   3.293  0.2367  0.1086 -0.2281
 8833SOL    HW132738   7.792   9.100   3.311  0.4357  1.0282 -0.1629
 8833SOL    HW232739   7.665   9.193   3.356  0.0666  1.1791 -1.4985
 8834SOL     OW32740   2.521   8.657   6.049  0.2087  0.6118 -0.3349
 8834SOL    HW132741   2.554   8.572   6.008 -2.5820 -0.8462  0.3233
 8834SOL    HW232742   2.487   8.718   5.977 -1.5126 -0.5344 -0.5360
 8835SOL     OW32743   4.896   0.033   4.157 -0.2576 -0.3983  0.2505
 8835SOL    HW132744   4.861  -0.060   4.163 -1.9615  0.2897  1.5668
 8835SOL    HW232745   4.876   0.081   4.243  1.1159  1.0077 -0.1928
 8836SOL     OW32746   0.047   7.259   0.775  0.0491 -0.1352 -0.2818
 8836SOL    HW132747   0.102   7.300   0.848 -0.3811 -0.2423  0.0982
 8836SOL    HW232748  -0.042   7.304   0.770 -0.1116 -0.4627 -0.4169
 8839SOL     OW32749   5.587   5.919   0.537 -0.0080  0.0134 -0.5323
 8839SOL    HW132750   5.658   5.966   0.590 -0.4468 -0.1064  0.1626
 8839SOL    HW232751   5.504   5.975   0.535  0.5673  0.8087 -2.5534
 8840SOL     OW32752   5.199   1.857   1.230  0.0566 -0.2842  0.0079
 8840SOL    HW132753   5.120   1.890   1.281  0.1964  0.5495 -0.3008
 8840SOL    HW232754   5.177   1.854   1.132  0.2837 -0.3957 -0.0418
 8842SOL     OW32755   3.417   3.198   1.450 -0.4191  0.0469  0.1317
 8842SOL    HW132756   3.344   3.152   1.499  0.8502 -0.0153  2.0441
 8842SOL    HW232757   3.437   3.149   1.365 -1.7980 -0.6007  0.1790
 8843SOL     OW32758   3.423   5.219   7.576 -0.1042  0.2208 -0.0929
 8843SOL    HW132759   3.494   5.245   7.642 -1.1832  0.5736  0.9548
 8843SOL    HW232760   3.400   5.298   7.519 -0.0379  0.2525 -0.0749
 8846SOL     OW32761   9.043   2.761   3.452 -0.8191  0.3701  0.6047
 8846SOL    HW132762   9.104   2.816   3.509 -1.5907  0.1090  1.6965
 8846SOL    HW232763   8.965   2.817   3.423  0.6901  1.1812 -2.1195
 8847SOL     OW32764   2.346   7.420   2.460  0.4647 -0.5887  0.2996
 8847SOL    HW132765   2.296   7.382   2.538 -0.3658 -1.3921 -0.6076
 8847SOL    HW232766   2.282   7.434   2.384  1.1660  0.6757 -0.0651
 8849SOL     OW32767   1.618   1.726   1.419 -0.2739  1.4015 -0.0483
 8849SOL    HW132768   1.582   1.794   1.483 -0.3717  1.1607  0.1531
 8849SOL    HW232769   1.714   1.745   1.401 -0.2242  1.4225  0.2368
 8850SOL     OW32770   4.453   9.065   7.879 -0.1840 -0.0116 -0.3617
 8850SOL    HW132771   4.539   9.014   7.871 -0.0054  0.2668 -0.2428
 8850SOL    HW232772   4.376   9.001   7.880  0.1629 -0.4753  2.2027
 8852SOL     OW32773   9.612   3.130   0.231  0.0135  0.3372  0.3505
 8852SOL    HW132774   9.673   3.197   0.274  0.9849 -1.5810  2.0136
 8852SOL    HW232775   9.579   3.066   0.300  0.3102 -1.8475 -1.4896
 8853SOL     OW32776   0.264   3.938   0.488  0.9053 -0.0977 -0.2493
 8853SOL    HW132777   0.326   3.860   0.483  0.7002 -0.2105 -1.0771
 8853SOL    HW232778   0.298   4.012   0.431 -1.0400 -1.0978 -2.8091
 8855SOL     OW32779   8.953   4.398   6.114  0.2551 -0.3803  0.4979
 8855SOL    HW132780   9.049   4.372   6.104  0.4417 -0.6820  2.9220
 8855SOL    HW232781   8.894   4.323   6.083  0.7823 -0.0931 -1.2383
 8856SOL     OW32782   6.569   8.059   2.523  0.4296 -0.3244  0.6718
 8856SOL    HW132783   6.554   7.963   2.549 -1.8302  0.3723  2.1536
 8856SOL    HW232784   6.664   8.085   2.542  0.7306 -1.9219  1.4050
 8857SOL     OW32785   4.540   4.843   6.935  0.5935 -0.2273 -0.6986
 8857SOL    HW132786   4.442   4.858   6.935  0.4691 -0.9721 -1.5254
 8857SOL    HW232787   4.566   4.792   7.017  0.1110 -1.1085 -1.0857
 8859SOL     OW32788   9.399   1.439   6.419  0.4329  0.3734  0.2672
 8859SOL    HW132789   9.437   1.530   6.408  0.1952  0.3777 -0.5756
 8859SOL    HW232790   9.377   1.401   6.329 -0.6187 -0.0255  0.6797
 8860SOL     OW32791   0.155   8.555   1.158 -0.8116  0.0701  0.3857
 8860SOL    HW132792   0.055   8.569   1.160 -0.8308  0.1453 -0.7875
 8860SOL    HW232793   0.176   8.467   1.115 -0.3490  0.3996 -0.0734
 8861SOL     OW32794   6.738   6.702   4.706  0.2859  0.3678 -0.5562
 8861SOL    HW132795   6.796   6.644   4.763 -0.5237 -1.1036 -1.2154
 8861SOL    HW232796   6.655   6.727   4.756  0.4777  0.7017 -0.3975
 8862SOL     OW32797   0.139   9.347   7.542 -0.4991  0.0640  0.1876
 8862SOL    HW132798   0.146   9.445   7.557  1.1046  0.2251 -1.2885
 8862SOL    HW232799   0.121   9.329   7.445 -0.1367 -1.0897  0.3164
 8864SOL     OW32800   2.897   5.701   1.305  0.2776  0.7114  0.5052
 8864SOL    HW132801   2.874   5.782   1.252 -0.4380  1.4887  2.0015
 8864SOL    HW232802   2.969   5.650   1.258  0.6438  2.1394 -0.4920
 8865SOL     OW32803   8.617   9.439   0.293 -0.0543 -0.3616 -0.1178
 8865SOL    HW132804   8.699   9.408   0.244 -1.1590 -1.0248 -1.5919
 8865SOL    HW232805   8.576   9.362   0.342  0.6634  0.1542  1.3230
 8867SOL     OW32806   7.179   4.764   1.972 -0.2858 -0.1924  0.2547
 8867SOL    HW132807   7.157   4.824   1.895 -0.5061 -1.0592 -0.3692
 8867SOL    HW232808   7.152   4.671   1.950 -0.6975 -0.3857  1.5454
 8868SOL     OW32809   9.443   8.134   3.497 -0.3028  0.9216 -0.1468
 8868SOL    HW132810   9.423   8.064   3.565  0.5815 -1.0564 -1.8612
 8868SOL    HW232811   9.540   8.156   3.498 -0.1175  0.2222 -1.3539
 8869SOL     OW32812   7.431   7.005   1.716  0.8739  0.1911  0.0383
 8869SOL    HW132813   7.389   6.920   1.684 -0.7892  1.0669 -0.1144
 8869SOL    HW232814   7.426   7.009   1.815 -0.7222  0.9719 -0.0690
 8870SOL     OW32815   2.058   2.826   1.198 -0.1002 -0.6124  0.2969
 8870SOL    HW132816   2.098   2.917   1.188 -0.1736 -0.2049  3.1137
 8870SOL    HW232817   1.959   2.832   1.195 -0.1717 -0.2770  2.3470
 8871SOL     OW32818   7.202   2.210   2.353  0.6793 -0.6397 -0.4267
 8871SOL    HW132819   7.249   2.196   2.441  0.9706 -0.2152 -0.5081
 8871SOL    HW232820   7.198   2.308   2.334 -1.5618 -0.5664  0.2828
 8872SOL     OW32821   7.710   1.216   7.117  0.5165  0.6065 -0.1488
 8872SOL    HW132822   7.653   1.267   7.182  2.0379  1.4769  0.5294
 8872SOL    HW232823   7.685   1.120   7.120 -0.0624  0.7833  1.0614
 8873SOL     OW32824   1.800   0.305   4.837 -0.2538  1.2106 -0.0835
 8873SOL    HW132825   1.727   0.349   4.888 -1.3814  0.3687 -0.9497
 8873SOL    HW232826   1.862   0.374   4.800 -0.0234  1.8757  1.5200
 8875SOL     OW32827   0.638   2.084   6.430  0.0868 -0.4493 -0.6024
 8875SOL    HW132828   0.624   2.065   6.527 -0.6846  2.2235 -0.1617
 8875SOL    HW232829   0.553   2.072   6.380 -0.0425  0.3101 -0.5724
 8876SOL     OW32830   7.579   7.832   5.144 -0.4191 -0.1255 -0.1474
 8876SOL    HW132831   7.616   7.916   5.183 -2.2702 -0.1441  1.8011
 8876SOL    HW232832   7.599   7.755   5.204 -2.9114 -0.2420  0.6166
 8877SOL     OW32833   7.365   4.049   2.121 -0.1370 -0.3250  0.3947
 8877SOL    HW132834   7.339   4.000   2.204 -0.4870  0.1441  0.5569
 8877SOL    HW232835   7.425   3.990   2.066 -1.7189 -1.5125 -0.1143
 8878SOL     OW32836   9.449   2.964   6.034 -0.5255 -0.3434 -0.5608
 8878SOL    HW132837   9.428   2.883   6.089 -2.2137  0.6487  0.3014
 8878SOL    HW232838   9.367   3.020   6.026  0.7507  1.5259 -0.7440
 8879SOL     OW32839   9.224   7.846   0.097  0.1380 -0.2576  0.0540
 8879SOL    HW132840   9.163   7.921   0.074  0.3399 -0.2702 -0.5285
 8879SOL    HW232841   9.188   7.760   0.062  1.3161 -0.0313 -1.7706
 8880SOL     OW32842   9.224   5.173   7.895 -0.1781  0.0602 -0.2986
 8880SOL    HW132843   9.133   5.132   7.883  0.7480 -1.9635 -0.5668
 8880SOL    HW232844   9.267   5.184   7.806 -0.0736  0.8398 -0.1522
 8881SOL     OW32845   3.299   1.558   2.394 -0.0132  0.2390 -0.2792
 8881SOL    HW132846   3.306   1.464   2.360 -0.6164  0.0707  0.0487
 8881SOL    HW232847   3.324   1.561   2.491 -0.9643  0.2348 -0.0266
 8882SOL     OW32848   6.089   0.895   5.204 -0.0530  0.0399  0.1873
 8882SOL    HW132849   6.130   0.805   5.223 -0.4887 -0.1900  0.0513
 8882SOL    HW232850   6.020   0.885   5.132  0.5605  0.6431 -0.5004
 8883SOL     OW32851   7.682   2.985   2.879 -0.2242  0.1082 -0.1331
 8883SOL    HW132852   7.607   2.987   2.812  0.7777  0.7305 -1.2546
 8883SOL    HW232853   7.685   3.072   2.928 -0.0754  0.1839 -0.2752
 8885SOL     OW32854   8.058   7.367   3.970  0.1845 -0.0489 -0.0532
 8885SOL    HW132855   8.116   7.321   4.037 -0.6707  0.3621  0.9973
 8885SOL    HW232856   8.078   7.465   3.970 -0.1769  0.0287 -0.0104
 8886SOL     OW32857   5.118   8.950   3.839 -0.1706 -0.1955  0.0977
 8886SOL    HW132858   5.123   8.888   3.761  1.0071  0.1602 -0.1133
 8886SOL    HW232859   5.143   9.042   3.810 -1.6032  0.3328  0.4826
 8887SOL     OW32860   3.249   4.546   7.638 -0.0993  0.2302 -0.1753
 8887SOL    HW132861   3.301   4.461   7.647 -1.5641 -0.8441 -1.4481
 8887SOL    HW232862   3.302   4.613   7.587  0.0008 -0.9068 -1.5957
 8888SOL     OW32863   6.243   8.870   4.327 -0.0601 -0.1325  0.6551
 8888SOL    HW132864   6.282   8.786   4.366 -0.5149  0.1937  1.8239
 8888SOL    HW232865   6.275   8.949   4.379 -0.6664  0.3108  0.3605
 8889SOL     OW32866   4.866   3.808   1.721 -0.1730 -0.7515 -0.2747
 8889SOL    HW132867   4.908   3.719   1.705  0.7538 -0.6452  1.4598
 8889SOL    HW232868   4.892   3.842   1.811 -0.4469  1.3207 -0.9391
 8890SOL     OW32869   2.924   3.465   0.637  0.1897  0.2404  0.3417
 8890SOL    HW132870   2.936   3.480   0.539 -0.1098 -3.2311 -0.3077
 8890SOL    HW232871   2.832   3.493   0.665 -1.2372 -2.5346 -1.3018
 8891SOL     OW32872   1.398   6.235   2.064  0.0360 -0.1400 -0.2784
 8891SOL    HW132873   1.338   6.185   2.001 -0.7992  0.1249  0.2928
 8891SOL    HW232874   1.346   6.260   2.146  0.4851  1.5110 -0.4738
 8892SOL     OW32875   3.505   1.576   5.902  0.4087  0.3281 -0.6871
 8892SOL    HW132876   3.466   1.649   5.845  0.7460  1.9579  1.1235
 8892SOL    HW232877   3.469   1.583   5.995  0.0020 -2.2086 -0.6144
 8893SOL     OW32878   9.927   2.662   4.740 -0.4235 -0.1393  0.5514
 8893SOL    HW132879   9.934   2.565   4.763 -2.5180 -0.9724 -2.1214
 8893SOL    HW232880   9.831   2.686   4.728  0.0497  2.3758  1.5427
 8894SOL     OW32881   4.843   4.240   5.574  0.2928  0.1695 -0.4380
 8894SOL    HW132882   4.877   4.267   5.664  1.7009  0.2627 -0.9872
 8894SOL    HW232883   4.896   4.162   5.540  1.0148  1.2907 -1.9738
 8895SOL     OW32884   1.584   4.356   7.094  0.2317 -0.0975 -0.0880
 8895SOL    HW132885   1.571   4.342   7.192  0.4919  0.8464  0.0827
 8895SOL    HW232886   1.682   4.355   7.072  0.2357  0.9939 -0.1383
 8897SOL     OW32887   3.641   9.671   5.160  0.4467 -0.1109  0.3442
 8897SOL    HW132888   3.681   9.754   5.122 -0.0112  0.0007  0.0997
 8897SOL    HW232889   3.669   9.662   5.256  0.5744  0.2767  0.3458
 8898SOL     OW32890   8.345   0.122   4.273 -0.3984  0.0956  0.1598
 8898SOL    HW132891   8.425   0.160   4.320 -0.9914  2.0888 -0.3718
 8898SOL    HW232892   8.344   0.153   4.178 -1.8569  0.1879  0.1852
 8899SOL     OW32893   5.255   6.288   0.382  0.1258  0.4299  0.0233
 8899SOL    HW132894   5.220   6.380   0.399 -0.4112 -0.1080  1.9784
 8899SOL    HW232895   5.182   6.221   0.397  1.6253 -0.6241  3.0650
 8900SOL     OW32896   9.575   4.915   6.097 -0.2614  0.9257 -0.5941
 8900SOL    HW132897   9.581   4.815   6.087  0.5528  1.0675 -1.6559
 8900SOL    HW232898   9.506   4.937   6.166 -0.0682 -0.3839  0.0477
 8901SOL     OW32899   9.779   7.843   5.945 -0.0189 -0.7310  0.7373
 8901SOL    HW132900   9.838   7.924   5.936  0.7354 -1.4248 -0.8990
 8901SOL    HW232901   9.826   7.774   6.000 -0.1708 -0.4993  1.1561
 8903SOL     OW32902   2.993   8.751   1.827 -0.2005 -0.6113  0.2231
 8903SOL    HW132903   2.983   8.690   1.748 -1.0572  0.4262 -0.4795
 8903SOL    HW232904   3.076   8.806   1.816 -1.1536  0.6479 -0.7272
 8904SOL     OW32905   2.444   7.607   1.890 -0.8606 -0.2898  0.0784
 8904SOL    HW132906   2.479   7.513   1.894  0.9777  0.3624 -0.4958
 8904SOL    HW232907   2.405   7.631   1.978  0.6750 -0.8314  0.9204
 8905SOL     OW32908   2.581   3.388   3.088 -0.1049 -0.5384 -0.7661
 8905SOL    HW132909   2.639   3.310   3.115 -0.1651 -1.9981 -4.6196
 8905SOL    HW232910   2.639   3.465   3.064  0.0518 -0.4627 -0.1743
 8907SOL     OW32911   9.902   8.442   7.360 -0.3468 -0.1720  0.2573
 8907SOL    HW132912   9.877   8.538   7.347  0.2209 -0.2154 -1.2547
 8907SOL    HW232913  10.002   8.434   7.363 -0.4143 -0.5182  2.0348
 8908SOL     OW32914   9.465   7.425   6.557  0.4449  0.1035 -0.1466
 8908SOL    HW132915   9.414   7.415   6.642  1.1337  0.2998  0.2834
 8908SOL    HW232916   9.400   7.429   6.480 -0.2757  2.0697  0.5370
 8909SOL     OW32917   6.425   9.263   7.050 -0.2679  0.2383 -0.0978
 8909SOL    HW132918   6.441   9.303   6.959 -2.4943 -0.4519 -0.8118
 8909SOL    HW232919   6.352   9.313   7.096  0.0133 -0.1968  0.8344
 8910SOL     OW32920   7.916   0.706   3.581  0.2042  0.3692 -0.3934
 8910SOL    HW132921   7.845   0.775   3.564 -0.6193 -0.2037  0.6959
 8910SOL    HW232922   7.926   0.692   3.679  0.9017 -0.5197 -0.5877
 8911SOL     OW32923   5.426   9.805   5.993  0.1874  0.0070 -0.3097
 8911SOL    HW132924   5.397   9.881   6.052  1.0473 -0.2181  0.4152
 8911SOL    HW232925   5.357   9.789   5.923 -1.5155 -0.6488  1.4933
 8912SOL     OW32926   8.383   7.153   6.620  0.2338 -0.0093 -0.4091
 8912SOL    HW132927   8.402   7.128   6.715  0.6851  1.3648 -0.1298
 8912SOL    HW232928   8.284   7.157   6.605  0.1658 -0.1945  0.0015
 8913SOL     OW32929   7.073   5.646   7.745 -0.7123  0.3549  0.4253
 8913SOL    HW132930   7.118   5.593   7.673 -0.2138 -0.2090  1.1333
 8913SOL    HW232931   7.044   5.734   7.709  2.4649  1.4318  0.3482
 8914SOL     OW32932   7.518   4.200   7.623 -0.0260 -0.3506 -0.0191
 8914SOL    HW132933   7.520   4.162   7.531 -0.9223  1.8864 -1.0062
 8914SOL    HW232934   7.551   4.295   7.620 -2.0717  0.4397  1.6082
 8915SOL     OW32935   2.164   6.363   5.874 -0.9334  0.8641 -0.5401
 8915SOL    HW132936   2.163   6.280   5.930 -1.6249  1.9569  1.1091
 8915SOL    HW232937   2.243   6.362   5.814  0.6749  0.3465  1.5201
 8916SOL     OW32938   8.777   2.959   5.345 -0.2334 -0.2962  0.0538
 8916SOL    HW132939   8.696   2.918   5.303  0.1843 -0.2506 -0.8187
 8916SOL    HW232940   8.860   2.918   5.306  0.1839  1.0274 -0.4899
 8918SOL     OW32941   3.913   1.863   6.758 -0.4163 -0.6316 -0.0280
 8918SOL    HW132942   3.845   1.789   6.756 -2.2134  1.0095 -0.6939
 8918SOL    HW232943   3.903   1.915   6.842  0.0099 -0.3386 -0.1567
 8919SOL     OW32944   7.397   8.574   4.839  0.5889  1.5151 -0.2821
 8919SOL    HW132945   7.371   8.583   4.743 -1.8127  1.2203  0.3091
 8919SOL    HW232946   7.466   8.503   4.849 -0.7250  0.0262 -1.5457
 8920SOL     OW32947   1.779   1.300   6.254  0.5374  0.4195 -0.0894
 8920SOL    HW132948   1.777   1.243   6.172  0.2644  1.3556 -0.7434
 8920SOL    HW232949   1.715   1.376   6.244  1.1109  1.0151  0.6462
 8921SOL     OW32950   0.865   9.525   0.138 -0.3376  0.0418 -0.3778
 8921SOL    HW132951   0.960   9.531   0.107 -0.3013 -0.7215 -0.4182
 8921SOL    HW232952   0.804   9.561   0.068 -0.0804  0.5340 -0.3501
 8922SOL     OW32953   0.479   2.208   5.211  0.0488 -0.2221  0.5988
 8922SOL    HW132954   0.529   2.285   5.170  0.0658 -0.6534 -0.1863
 8922SOL    HW232955   0.542   2.153   5.266  0.7563 -1.5504 -1.4893
 8923SOL     OW32956   9.918   9.706   6.708  0.1375  0.9600  0.7311
 8923SOL    HW132957   9.917   9.614   6.670 -1.8550  0.6427  1.5260
 8923SOL    HW232958  10.012   9.742   6.706  0.9158 -1.0577  0.4064
 8924SOL     OW32959   9.191   3.213   7.021 -0.0189  0.0606 -0.2140
 8924SOL    HW132960   9.255   3.150   7.065 -0.2336  0.0493  0.0928
 8924SOL    HW232961   9.100   3.199   7.061 -0.7308 -1.6072 -2.3138
 8925SOL     OW32962   6.061   5.750   1.598 -0.3323 -0.5413  0.3030
 8925SOL    HW132963   6.146   5.744   1.650 -0.4175  0.8922  0.6287
 8925SOL    HW232964   5.986   5.779   1.658 -0.8536 -0.8773 -0.1762
 8926SOL     OW32965   7.891   4.920   7.725 -0.3780 -0.3714  0.5368
 8926SOL    HW132966   7.963   4.851   7.724  0.8723  0.9217 -0.9501
 8926SOL    HW232967   7.806   4.879   7.758  0.3708 -2.5617 -0.1967
 8929SOL     OW32968   5.520   4.306   2.553 -0.2486 -0.2306  0.0541
 8929SOL    HW132969   5.544   4.396   2.515 -0.1460 -0.2871 -0.0189
 8929SOL    HW232970   5.578   4.288   2.632 -0.1423 -0.3107 -0.0416
 8930SOL     OW32971   7.550   6.872   4.070  0.6026  0.1468 -0.1246
 8930SOL    HW132972   7.588   6.839   3.984 -0.5720 -0.6823 -0.3440
 8930SOL    HW232973   7.533   6.971   4.064 -0.4725 -0.0922 -1.2395
 8931SOL     OW32974   9.207   8.145   1.851 -0.5356 -0.6536 -0.1094
 8931SOL    HW132975   9.116   8.103   1.857 -1.6358  1.9372  2.5215
 8931SOL    HW232976   9.260   8.120   1.932 -0.6887  1.7343  0.7704
 8932SOL     OW32977   4.916   0.835   6.734  0.1428 -0.2934 -0.0088
 8932SOL    HW132978   5.010   0.805   6.722 -0.0503 -0.7040 -0.5047
 8932SOL    HW232979   4.908   0.885   6.820  0.7258 -0.6034  0.2277
 8933SOL     OW32980   9.969   1.363   0.238  0.1798  0.7278 -0.5934
 8933SOL    HW132981  10.065   1.338   0.227 -0.1385 -0.1257 -1.4686
 8933SOL    HW232982   9.914   1.317   0.169 -1.0842 -0.1369  0.9419
 8934SOL     OW32983   0.997   6.276   6.535 -0.0825 -0.1305  0.3727
 8934SOL    HW132984   1.061   6.205   6.508  0.1205  1.0002 -2.2539
 8934SOL    HW232985   0.915   6.271   6.478  0.0476  1.9040 -0.0413
 8935SOL     OW32986   0.506   3.598   6.755  0.2798  0.0355  0.6528
 8935SOL    HW132987   0.504   3.528   6.684 -1.8042  0.7967 -0.0813
 8935SOL    HW232988   0.531   3.686   6.715  0.4703  0.1901  1.1110
 8936SOL     OW32989   6.371   9.325   2.079  0.2673  0.5992  0.2455
 8936SOL    HW132990   6.332   9.268   2.006 -0.1681  0.3285  0.6881
 8936SOL    HW232991   6.348   9.286   2.168 -0.2170  1.5910  0.5584
 8938SOL     OW32992   6.862   0.628   0.836 -0.3265 -0.5605  0.0389
 8938SOL    HW132993   6.786   0.595   0.779 -0.1393 -0.7221 -0.1208
 8938SOL    HW232994   6.947   0.589   0.802 -0.2618 -1.0124  0.7076
 8939SOL     OW32995   3.798   7.489   1.254 -0.2768  0.3048 -0.1521
 8939SOL    HW132996   3.801   7.587   1.271 -0.7414  0.4690 -0.9935
 8939SOL    HW232997   3.731   7.446   1.316 -1.6472  0.8322 -1.2522
 8940SOL     OW32998   9.350   0.903   6.868  0.0596  0.3242 -0.1956
 8940SOL    HW132999   9.273   0.888   6.930 -0.8696  2.5148 -0.7760
 8940SOL    HW233000   9.349   0.833   6.797 -0.7561 -0.2858  0.3955
 8943SOL     OW33001   8.349   8.834   6.150 -0.1842  0.3244  0.5374
 8943SOL    HW133002   8.422   8.880   6.099  0.1257 -0.8282 -0.0928
 8943SOL    HW233003   8.344   8.872   6.242  0.8044  0.8424  0.3908
 8944SOL     OW33004   8.358   8.117   7.354 -0.3817 -0.1017 -0.5987
 8944SOL    HW133005   8.385   8.022   7.369 -1.4156 -0.7379 -2.5772
 8944SOL    HW233006   8.439   8.172   7.337  0.1629 -0.7716 -0.2081
 8945SOL     OW33007   3.326   9.900   6.230 -0.0567 -0.0717  0.8686
 8945SOL    HW133008   3.360   9.849   6.151 -1.0080  1.6351 -0.6907
 8945SOL    HW233009   3.403   9.923   6.290  0.5349 -2.2565  0.9931
 8947SOL     OW33010   2.270   8.243   5.737  0.2109  0.1922 -0.2686
 8947SOL    HW133011   2.327   8.312   5.692  1.6242  1.0013  2.6663
 8947SOL    HW233012   2.322   8.158   5.746 -0.2076 -0.0903 -0.5084
 8948SOL     OW33013   9.517   0.124   2.992 -0.3149  0.5901  0.5890
 8948SOL    HW133014   9.570   0.096   3.073 -1.7902  0.4677  1.5203
 8948SOL    HW233015   9.510   0.047   2.928  0.1281  0.4303  0.7305
 8949SOL     OW33016   9.594   2.202   5.955 -0.5762 -0.2760 -0.8163
 8949SOL    HW133017   9.564   2.116   5.913 -0.3564 -0.2364 -1.0612
 8949SOL    HW233018   9.665   2.183   6.023  0.1771 -0.2052 -1.5696
 8950SOL     OW33019   0.040   6.376   3.598 -0.1709 -0.6292 -0.0606
 8950SOL    HW133020   0.107   6.446   3.572 -2.1064  0.7203 -1.6174
 8950SOL    HW233021   0.086   6.288   3.607  1.8670  0.3229 -0.7636
 8951SOL     OW33022   4.836   5.796   7.486  0.1159 -0.3419 -0.7775
 8951SOL    HW133023   4.787   5.708   7.489 -0.3146 -0.2299 -3.1594
 8951SOL    HW233024   4.769   5.871   7.485  0.4223 -0.0696 -0.7975
 8952SOL     OW33025   8.188   1.297   3.985 -0.0989 -0.4020 -0.2259
 8952SOL    HW133026   8.167   1.245   3.902 -2.5622 -2.0920  1.4035
 8952SOL    HW233027   8.156   1.391   3.973  0.7934 -0.2664 -1.6939
 8953SOL     OW33028   0.011   5.530   4.491 -0.0744  0.2859  0.3457
 8953SOL    HW133029  -0.048   5.478   4.428  0.6855  0.9637 -0.9565
 8953SOL    HW233030  -0.037   5.612   4.521 -0.9816 -0.7596  1.7909
 8954SOL     OW33031   2.219   2.329   2.848  0.0461 -0.1805 -0.9463
 8954SOL    HW133032   2.228   2.232   2.870 -1.4608 -0.1117  0.1021
 8954SOL    HW233033   2.294   2.380   2.891 -1.6917 -0.3280  2.4495
 8955SOL     OW33034   3.455   5.268   1.184 -0.0256 -0.4287 -0.2504
 8955SOL    HW133035   3.363   5.275   1.146 -0.1668  0.5918  0.2508
 8955SOL    HW233036   3.496   5.181   1.157 -0.9500 -0.6761 -0.8828
 8957SOL     OW33037   7.629   5.878   7.352 -0.7691 -0.0939 -0.1246
 8957SOL    HW133038   7.643   5.844   7.259  0.4155  0.8118 -0.2869
 8957SOL    HW233039   7.706   5.853   7.409 -1.0982  0.0857  0.4043
 8958SOL     OW33040   9.772   5.255   1.800 -0.7154  0.7167  0.0525
 8958SOL    HW133041   9.869   5.267   1.824 -0.6962  1.3349 -0.3168
 8958SOL    HW233042   9.716   5.300   1.870 -0.7497  0.0243  0.4738
 8959SOL     OW33043   8.161   2.395   1.100 -0.0552 -0.1929  0.3544
 8959SOL    HW133044   8.226   2.356   1.165  0.1173  1.7715  1.3984
 8959SOL    HW233045   8.211   2.447   1.031 -0.4587  0.7314  0.7522
 8961SOL     OW33046   3.553   8.691   5.083  0.5917  0.2663  0.0181
 8961SOL    HW133047   3.530   8.604   5.039 -1.6692  0.5319  0.6068
 8961SOL    HW233048   3.552   8.764   5.015 -0.0468  0.2227 -0.0230
 8962SOL     OW33049   4.061   3.089   7.880 -0.5996  0.3334 -0.1752
 8962SOL    HW133050   3.995   3.048   7.943 -1.8479  1.8722 -0.4336
 8962SOL    HW233051   4.095   3.175   7.920  1.1291 -0.3555 -0.1256
 8963SOL     OW33052   1.954   3.604   1.441  0.0427  0.4298  0.0088
 8963SOL    HW133053   1.962   3.689   1.495  0.2539 -1.4269  3.0432
 8963SOL    HW233054   2.044   3.577   1.407  0.4024  0.1269  1.1705
 8964SOL     OW33055   1.918   8.605   2.254 -0.6602  0.0005 -0.0423
 8964SOL    HW133056   1.980   8.640   2.325 -0.7939  0.3678 -0.1072
 8964SOL    HW233057   1.965   8.535   2.201 -0.9278 -1.0902  1.1335
 8965SOL     OW33058   8.188   5.040   7.194 -0.6114  0.6437 -0.3164
 8965SOL    HW133059   8.245   5.012   7.272 -1.8763 -1.7683 -0.1880
 8965SOL    HW233060   8.242   5.093   7.130  1.4256 -0.4142  0.4816
 8966SOL     OW33061   0.714   2.485   1.891 -0.5380  0.0327 -0.0566
 8966SOL    HW133062   0.772   2.456   1.967  0.6734 -0.9199 -1.3241
 8966SOL    HW233063   0.670   2.405   1.850 -0.4821  0.4458 -0.9266
 8968SOL     OW33064   6.104   1.379   0.666  0.0518  0.0973  0.0041
 8968SOL    HW133065   6.073   1.473   0.682  0.5365  0.5991 -1.8809
 8968SOL    HW233066   6.200   1.371   0.690 -0.1844 -0.1247  0.8960
 8969SOL     OW33067   7.545   6.775   5.400 -0.6550 -0.1408 -0.3651
 8969SOL    HW133068   7.494   6.747   5.481 -0.1591 -0.2385 -0.0837
 8969SOL    HW233069   7.616   6.708   5.380  0.9802  1.2236  0.7066
 8971SOL     OW33070   1.486   4.237   1.817  0.2214  0.0004 -0.2623
 8971SOL    HW133071   1.460   4.324   1.860  1.2630 -0.0069  0.3923
 8971SOL    HW233072   1.474   4.163   1.883  0.9557 -0.1287 -0.2764
 8973SOL     OW33073   3.710   4.223   4.983  0.6121 -0.3972 -0.1662
 8973SOL    HW133074   3.751   4.299   5.034 -1.7085  0.6727  0.1962
 8973SOL    HW233075   3.723   4.237   4.885 -2.4418  2.1429 -0.2777
 8976SOL     OW33076   2.851   3.657   4.566 -0.1915  0.8457 -0.6892
 8976SOL    HW133077   2.833   3.727   4.497  0.9667  0.7356 -1.1130
 8976SOL    HW233078   2.765   3.612   4.591 -0.8882  2.1346 -0.7083
 8978SOL     OW33079   9.319   2.254   5.633  0.4988 -0.1831 -0.3915
 8978SOL    HW133080   9.313   2.267   5.534 -3.0915 -2.2883 -0.5281
 8978SOL    HW233081   9.300   2.340   5.680  0.7138  0.4731 -1.4977
 8980SOL     OW33082   0.312   6.288   6.247  0.1227  0.4933  0.0856
 8980SOL    HW133083   0.233   6.292   6.308  1.8393  0.9979  2.3989
 8980SOL    HW233084   0.359   6.377   6.248  0.7085  0.2112 -1.2703
 8981SOL     OW33085   8.601   8.829   7.575 -0.0553  0.2636 -0.2020
 8981SOL    HW133086   8.693   8.792   7.585  0.6631  1.5937 -1.5551
 8981SOL    HW233087   8.536   8.771   7.622  0.9397 -2.9637 -2.6207
 8982SOL     OW33088   3.276   8.782   1.291  0.0158  0.0612  0.5798
 8982SOL    HW133089   3.310   8.709   1.232 -1.1041  0.4180 -0.5258
 8982SOL    HW233090   3.349   8.849   1.307  0.5832 -0.4889  0.3287
 8983SOL     OW33091   8.268   4.935   7.436  0.0776 -0.5295 -0.1505
 8983SOL    HW133092   8.202   4.862   7.452  0.6949 -0.8179  1.1979
 8983SOL    HW233093   8.332   4.940   7.513  0.3029  1.1565 -0.4164
 8984SOL     OW33094   8.845   7.313   4.639  0.1427  0.3256 -0.0816
 8984SOL    HW133095   8.746   7.315   4.627  0.1595 -0.3071 -0.3915
 8984SOL    HW233096   8.889   7.355   4.560  0.1412 -0.1089 -0.3143
 8985SOL     OW33097   4.016   5.567   2.573  0.6496  0.2602  0.2522
 8985SOL    HW133098   3.958   5.533   2.500  0.2155  1.0178  0.2420
 8985SOL    HW233099   3.992   5.523   2.659  1.0272 -0.4839 -0.0209
 8986SOL     OW33100   3.048   9.408   7.098  0.1437 -0.5664 -0.3834
 8986SOL    HW133101   2.989   9.362   7.031 -1.3063  0.7935 -0.0698
 8986SOL    HW233102   3.130   9.442   7.051  0.0520 -1.2888 -1.0916
 8989SOL     OW33103   9.806   5.648   6.930  0.3774 -0.2470 -0.1104
 8989SOL    HW133104   9.729   5.637   6.868 -0.9691  0.4958  1.3672
 8989SOL    HW233105   9.890   5.661   6.878 -0.6762  0.0877 -1.7644
 8990SOL     OW33106   2.437   9.734   1.497 -0.1792  0.2402 -0.4882
 8990SOL    HW133107   2.351   9.769   1.460 -0.6950  0.6966  1.1054
 8990SOL    HW233108   2.502   9.810   1.508  0.5245 -0.1382 -1.9094
 8992SOL     OW33109   7.269   8.462   5.796  0.3022  0.3604 -0.4556
 8992SOL    HW133110   7.312   8.511   5.720  1.9928 -0.5476 -0.0976
 8992SOL    HW233111   7.320   8.479   5.880  1.4144 -2.6316 -0.4680
 8993SOL     OW33112   9.902   6.813   3.825  0.0229 -0.1802  0.1895
 8993SOL    HW133113   9.958   6.784   3.747 -1.2447 -0.5583 -0.5965
 8993SOL    HW233114   9.863   6.732   3.868  0.6719  0.0368  1.1921
 8995SOL     OW33115   8.131   6.728   5.228 -0.3981  0.1013 -0.0357
 8995SOL    HW133116   8.082   6.745   5.143 -0.3200  0.5847  0.0175
 8995SOL    HW233117   8.077   6.761   5.305 -0.2132  0.1791  0.0615
 8997SOL     OW33118   5.374   9.664   6.570 -0.5334  0.2365  0.0197
 8997SOL    HW133119   5.440   9.592   6.546 -0.1421  0.1136  1.4417
 8997SOL    HW233120   5.405   9.711   6.653 -1.3535  1.3257 -0.2880
 8998SOL     OW33121   7.550   3.165   3.093 -0.4260 -0.1216  0.4785
 8998SOL    HW133122   7.572   3.100   3.166 -0.2982 -1.4570 -0.7260
 8998SOL    HW233123   7.553   3.258   3.129 -0.7406 -0.7869  2.2592
 8999SOL     OW33124   0.917   4.383   6.845  0.0718  0.4769  0.0759
 8999SOL    HW133125   1.008   4.343   6.836 -0.3942 -0.5499 -0.2605
 8999SOL    HW233126   0.898   4.402   6.941 -0.0242 -0.9423  0.3593
 9000SOL     OW33127   9.885   8.219   0.265  0.2556  0.7370  0.1197
 9000SOL    HW133128   9.856   8.229   0.361  1.1546  0.6477  0.4105
 9000SOL    HW233129   9.815   8.257   0.205 -1.5935 -1.6892  0.6687
 9001SOL     OW33130   7.934   2.386   4.342 -0.1222 -0.3900  0.2100
 9001SOL    HW133131   7.920   2.479   4.375  0.6109 -0.6502  1.2732
 9001SOL    HW233132   7.867   2.366   4.270 -1.4061  0.3495  1.1722
 9002SOL     OW33133   6.154   1.153   6.945  0.4792 -0.7025 -0.0651
 9002SOL    HW133134   6.240   1.190   6.982  0.1199  1.0528 -0.9323
 9002SOL    HW233135   6.137   1.193   6.855 -0.5788 -2.0692 -0.4830
 9003SOL     OW33136   7.622   5.257   1.271  0.0572  0.2160 -0.1985
 9003SOL    HW133137   7.543   5.202   1.244 -0.0833  0.4735 -0.3151
 9003SOL    HW233138   7.592   5.332   1.329  0.0942  0.8374 -0.9738
 9006SOL     OW33139   1.025   0.851   7.044 -0.5065 -0.0987 -0.4465
 9006SOL    HW133140   1.007   0.917   6.971 -3.7003 -0.3557  0.0333
 9006SOL    HW233141   1.097   0.886   7.104  0.0953  1.4629 -2.0403
 9007SOL     OW33142   7.992   7.931   2.027 -0.0639  0.1179 -0.5136
 9007SOL    HW133143   7.959   7.843   1.994  0.9198 -0.4602  0.0199
 9007SOL    HW233144   8.062   7.917   2.097 -1.2306  1.3087  0.9466
 9008SOL     OW33145   9.127   5.488   4.257 -0.1483 -0.4243  0.0101
 9008SOL    HW133146   9.078   5.402   4.246 -2.0859  0.6845 -0.3369
 9008SOL    HW233147   9.090   5.556   4.193  0.5061  1.0109  1.1191
 9010SOL     OW33148   9.086   3.826   2.862  0.1369  0.4948  0.3434
 9010SOL    HW133149   9.159   3.758   2.873  0.0885  0.7244  2.0749
 9010SOL    HW233150   9.027   3.826   2.942 -1.4301  0.7529 -0.7845
 9013SOL     OW33151   3.538   0.364   4.581  0.1192 -0.7306  0.0846
 9013SOL    HW133152   3.514   0.339   4.675 -2.8544  1.4354 -0.0486
 9013SOL    HW233153   3.595   0.446   4.582  0.7408 -1.1523 -0.0040
 9014SOL     OW33154   1.559   1.161   0.852  0.2230 -0.0185 -0.5951
 9014SOL    HW133155   1.645   1.198   0.888  0.6995 -3.8940  2.6301
 9014SOL    HW233156   1.578   1.105   0.772  0.2863  1.4469 -1.6276
 9015SOL     OW33157   1.666   1.169   3.119  0.1841 -0.0860  0.5735
 9015SOL    HW133158   1.666   1.230   3.198 -0.5726 -0.5404  0.9277
 9015SOL    HW233159   1.617   1.213   3.043  0.1597 -0.0035  0.6376
 9017SOL     OW33160   1.991   3.274   2.501 -0.0563 -0.3423  0.1278
 9017SOL    HW133161   1.917   3.275   2.568 -0.5246  1.0237 -0.4098
 9017SOL    HW233162   2.073   3.316   2.541 -0.2528  0.2199 -0.0597
 9018SOL     OW33163   2.449   7.392   7.526  0.8006 -0.5469 -0.7232
 9018SOL    HW133164   2.437   7.377   7.625 -0.8985  0.1429 -0.7996
 9018SOL    HW233165   2.455   7.491   7.508  0.8445 -0.6596 -1.3314
 9020SOL     OW33166   7.344   8.497   6.424  0.0523 -0.0386 -0.0193
 9020SOL    HW133167   7.339   8.429   6.351 -0.9089  1.6211 -1.5384
 9020SOL    HW233168   7.264   8.557   6.420 -0.5537 -0.5211  3.0457
 9021SOL     OW33169   9.066   4.572   2.008 -0.6179  0.5471  0.2292
 9021SOL    HW133170   9.016   4.599   2.090 -0.3395  0.5528  0.4002
 9021SOL    HW233171   9.156   4.536   2.035 -0.5677  0.4540 -0.0666
 9023SOL     OW33172   2.962   4.289   0.655 -0.1331  0.1438  0.5745
 9023SOL    HW133173   2.936   4.305   0.750 -0.5873  0.2142  0.4395
 9023SOL    HW233174   2.960   4.376   0.605  0.0945  0.1051  0.5005
 9024SOL     OW33175   9.082   3.463   1.109 -0.1610  0.3672 -0.3004
 9024SOL    HW133176   9.000   3.511   1.139 -0.3445 -0.4007  0.4299
 9024SOL    HW233177   9.162   3.520   1.126 -0.3149  0.1693  1.1536
 9025SOL     OW33178   0.550   1.513   5.699  0.8847 -0.7309  0.4773
 9025SOL    HW133179   0.535   1.600   5.652  1.0408 -1.6107 -1.2364
 9025SOL    HW233180   0.488   1.444   5.662  0.7853 -1.3772  1.8048
 9026SOL     OW33181   3.256   1.601   6.762  0.1906  0.2882  0.0260
 9026SOL    HW133182   3.163   1.597   6.798  0.5736 -0.2972  0.9797
 9026SOL    HW233183   3.262   1.671   6.690 -0.9101  0.5140  0.1512
 9027SOL     OW33184   9.176   4.158   2.675 -0.2076  0.5467 -0.4249
 9027SOL    HW133185   9.086   4.132   2.640 -0.5354  0.7514  0.2580
 9027SOL    HW233186   9.247   4.120   2.616 -0.6911 -1.2979  0.1262
 9028SOL     OW33187   2.174   8.671   3.343  0.9585  0.0166 -0.4737
 9028SOL    HW133188   2.243   8.742   3.331  1.0316  0.0709  0.2721
 9028SOL    HW233189   2.215   8.581   3.328  1.0132  0.0932 -0.7870
 9029SOL     OW33190   0.962   8.184   2.463  0.2431  0.1905 -0.7177
 9029SOL    HW133191   1.017   8.157   2.542  1.0800  0.1712 -1.3001
 9029SOL    HW233192   0.941   8.103   2.408 -0.3309  0.2048 -0.5235
 9030SOL     OW33193   4.022   6.956   2.292  0.7311 -0.3506  0.1908
 9030SOL    HW133194   4.111   6.981   2.331  0.2963  3.2155 -0.9080
 9030SOL    HW233195   4.034   6.933   2.195  0.3912  0.5601 -0.0665
 9031SOL     OW33196   2.295   1.362   2.617 -0.4450  0.6150  0.5575
 9031SOL    HW133197   2.221   1.297   2.633  0.0331 -0.1601 -0.3559
 9031SOL    HW233198   2.360   1.324   2.551 -0.7700  2.4715 -0.8822
 9032SOL     OW33199   3.296   9.405   5.228 -0.1504  0.6964  0.0485
 9032SOL    HW133200   3.201   9.430   5.249 -0.5475  0.2538 -1.1563
 9032SOL    HW233201   3.350   9.407   5.312 -1.4227  0.1036  0.9125
 9033SOL     OW33202   7.697   6.184   6.497 -0.4846 -0.2416  0.3423
 9033SOL    HW133203   7.649   6.162   6.582 -1.6963  0.0649 -0.2493
 9033SOL    HW233204   7.650   6.140   6.421  0.0274  0.2883 -0.2769
 9034SOL     OW33205   0.207   7.558   5.380 -0.1406 -0.2411  0.5757
 9034SOL    HW133206   0.304   7.556   5.404  0.3440 -0.8958 -1.3925
 9034SOL    HW233207   0.179   7.653   5.363  0.1589 -0.0567  1.0838
 9035SOL     OW33208   2.537   1.222   0.916 -0.2115  0.3837 -0.8755
 9035SOL    HW133209   2.516   1.197   0.821  2.1859 -1.1048 -1.0422
 9035SOL    HW233210   2.509   1.148   0.977 -1.3344  1.1490 -0.4495
 9036SOL     OW33211   0.632   8.878   1.826 -0.3180  0.2113 -0.5376
 9036SOL    HW133212   0.657   8.915   1.915 -0.1820 -2.1221  0.4335
 9036SOL    HW233213   0.675   8.789   1.813 -2.3516 -0.6316 -1.8573
 9037SOL     OW33214   0.687   3.755   1.914 -0.4535  0.2590  0.0929
 9037SOL    HW133215   0.709   3.678   1.975 -0.7700 -0.1844 -0.3478
 9037SOL    HW233216   0.643   3.720   1.832  0.3820  0.8112 -0.6014
 9038SOL     OW33217   4.536   4.929   2.049 -0.0672  0.3833  0.0558
 9038SOL    HW133218   4.565   4.837   2.077  0.9840  0.1973 -1.6291
 9038SOL    HW233219   4.482   4.923   1.965  0.9014  1.4138 -0.6427
 9039SOL     OW33220   0.453   8.682   0.762 -0.8597  0.1311 -0.0526
 9039SOL    HW133221   0.362   8.648   0.785 -1.2775  1.9433  1.0638
 9039SOL    HW233222   0.492   8.728   0.842  1.6874 -1.9772 -0.0133
 9040SOL     OW33223   4.103   3.472   5.348  0.3796 -0.6178  0.1730
 9040SOL    HW133224   4.102   3.568   5.321 -0.2729 -0.4582  0.7300
 9040SOL    HW233225   4.115   3.415   5.267  2.6076 -0.0131  0.0449
 9041SOL     OW33226   2.283   0.271   7.028  0.3800  0.0946 -0.2510
 9041SOL    HW133227   2.261   0.309   7.117  0.0171 -3.2525  1.1613
 9041SOL    HW233228   2.376   0.235   7.029  0.1813 -0.4650 -1.0433
 9042SOL     OW33229   9.504   1.196   6.551  0.0603 -0.0276  0.1973
 9042SOL    HW133230   9.467   1.283   6.520 -0.0043  0.1688  0.8135
 9042SOL    HW233231   9.434   1.147   6.604 -0.1923 -0.8415 -0.8842
 9043SOL     OW33232   4.299   1.021   3.401  0.0862 -0.1110  0.9686
 9043SOL    HW133233   4.336   1.037   3.310 -2.0666 -0.6567 -0.0251
 9043SOL    HW233234   4.315   1.102   3.458  1.7885  0.0754  0.2342
 9045SOL     OW33235   1.091   4.016   7.095  0.3161  0.3846  0.1619
 9045SOL    HW133236   1.030   4.009   7.174  1.0320  0.3994  0.7176
 9045SOL    HW233237   1.166   3.951   7.104  0.9779  1.1163  0.0024
 9046SOL     OW33238   7.835   5.576   1.778  0.1795  0.6633  0.0139
 9046SOL    HW133239   7.908   5.514   1.749 -1.2788 -0.9706 -0.2686
 9046SOL    HW233240   7.852   5.606   1.872  0.7878 -0.3602  0.2413
 9048SOL     OW33241   4.463   8.262   6.315 -0.3209  0.6597  0.4088
 9048SOL    HW133242   4.388   8.207   6.351 -0.5042  1.1121  0.7305
 9048SOL    HW233243   4.539   8.203   6.287 -2.1524 -0.1381 -3.2726
 9049SOL     OW33244   2.045   4.712   3.664 -0.7097 -0.4348 -0.1159
 9049SOL    HW133245   2.100   4.747   3.588 -1.1563  2.2201  0.7376
 9049SOL    HW233246   1.948   4.723   3.643 -0.8593 -0.8043  0.3526
 9053SOL     OW33247   6.889   3.388   3.407  0.2819  0.2240  0.2498
 9053SOL    HW133248   6.912   3.302   3.452 -0.0302 -0.3490 -0.6530
 9053SOL    HW233249   6.906   3.464   3.469  0.5331 -0.4916  1.0729
 9054SOL     OW33250   9.189   8.759   6.137  0.6384  0.1203 -0.6274
 9054SOL    HW133251   9.205   8.850   6.175  0.4680 -0.6708  1.3605
 9054SOL    HW233252   9.236   8.752   6.049  0.0276  2.3691 -1.1686
 9055SOL     OW33253   7.829   6.477   0.270  0.2940  0.1074 -0.1570
 9055SOL    HW133254   7.873   6.398   0.312 -0.1884 -0.9693 -1.6503
 9055SOL    HW233255   7.878   6.503   0.187 -0.7194  0.1472 -0.7433
 9056SOL     OW33256   0.544   2.683   6.775  0.2118 -0.1019 -0.2133
 9056SOL    HW133257   0.491   2.631   6.842 -0.6044  1.2460  0.1841
 9056SOL    HW233258   0.484   2.742   6.723  1.0614 -0.0255 -1.1135
 9057SOL     OW33259   0.887   1.416   4.149 -0.1406 -0.1037  0.0146
 9057SOL    HW133260   0.894   1.495   4.088 -0.5580  0.4349  0.6630
 9057SOL    HW233261   0.968   1.411   4.208  0.4635 -0.8684 -0.8677
 9058SOL     OW33262   3.320   1.254   5.614  0.4266 -0.2958  0.1986
 9058SOL    HW133263   3.390   1.183   5.612  0.2114 -0.4647 -1.9700
 9058SOL    HW233264   3.235   1.219   5.576 -0.5393  0.2562  1.8011
 9059SOL     OW33265   2.812   3.598   7.554 -1.0674  0.1159  0.2877
 9059SOL    HW133266   2.855   3.650   7.627 -0.8366 -0.9477  0.9160
 9059SOL    HW233267   2.722   3.566   7.583 -0.9311 -0.4020  0.1558
 9060SOL     OW33268   8.299   2.011   5.996  0.0707 -0.5759 -0.4211
 9060SOL    HW133269   8.390   2.002   6.037  0.3814  3.1128 -0.1263
 9060SOL    HW233270   8.232   2.030   6.067 -0.0799  1.6498 -1.1142
 9062SOL     OW33271   9.197   5.871   7.664  0.1489  0.1339 -0.2850
 9062SOL    HW133272   9.285   5.916   7.673  0.9058 -1.9859  4.2016
 9062SOL    HW233273   9.198   5.809   7.585  2.5182  0.4439 -0.5098
 9064SOL     OW33274   3.291   2.238   2.028 -0.1375  0.8152 -0.1334
 9064SOL    HW133275   3.231   2.310   2.064 -1.6031 -0.5043  0.1172
 9064SOL    HW233276   3.282   2.156   2.084  0.7548  0.1106 -1.0080
 9065SOL     OW33277   0.254   7.631   3.945  0.5634  0.0816  0.0993
 9065SOL    HW133278   0.332   7.569   3.941  1.5379  1.3639 -1.5209
 9065SOL    HW233279   0.179   7.593   3.891  0.7002 -0.2696  0.1512
 9066SOL     OW33280   7.368   4.610   0.725 -0.0294  0.9072  0.4829
 9066SOL    HW133281   7.282   4.635   0.770 -0.6938 -0.6956  0.1471
 9066SOL    HW233282   7.396   4.518   0.756  1.0158  0.9978 -0.1933
 9067SOL     OW33283   2.569   2.174   1.849  0.6046 -0.3804 -0.0566
 9067SOL    HW133284   2.536   2.091   1.805 -0.7980 -0.3358  0.8505
 9067SOL    HW233285   2.501   2.205   1.916  0.6804  2.0077 -1.0196
 9069SOL     OW33286   6.730   5.672   1.982 -0.3451  0.0844 -0.0238
 9069SOL    HW133287   6.827   5.648   1.970 -0.3574  0.6667 -1.3316
 9069SOL    HW233288   6.721   5.771   1.986 -0.9383  0.0356 -0.2473
 9070SOL     OW33289   9.629   3.610   2.272 -0.3636 -0.2684 -0.4647
 9070SOL    HW133290   9.705   3.673   2.287 -0.4094 -0.0515 -1.1201
 9070SOL    HW233291   9.637   3.533   2.335  0.5262 -0.3676 -0.6854
 9072SOL     OW33292   7.370   3.652   1.626 -0.0235 -0.1541 -0.2472
 9072SOL    HW133293   7.372   3.716   1.550  2.1228  0.7097  0.4732
 9072SOL    HW233294   7.464   3.634   1.656 -0.7693 -1.4305  1.3894
 9073SOL     OW33295   6.654   5.692   6.818  0.1799 -0.4053 -0.3531
 9073SOL    HW133296   6.733   5.632   6.804 -0.1333 -1.3959  2.0222
 9073SOL    HW233297   6.684   5.787   6.811  1.1059 -0.7764 -1.8418
 9074SOL     OW33298   2.395   4.046   4.512  0.0113  0.2797  0.3816
 9074SOL    HW133299   2.343   3.983   4.454 -1.2468  1.3432  0.3292
 9074SOL    HW233300   2.423   3.998   4.595 -1.0822 -0.3160  0.4236
 9075SOL     OW33301   8.380   9.987   2.653 -1.0293  0.0124  0.0553
 9075SOL    HW133302   8.478   9.998   2.638 -1.1683  4.0004  1.2679
 9075SOL    HW233303   8.330  10.016   2.571 -1.2401 -0.3078  0.0685
 9077SOL     OW33304   4.792   9.242   3.027  0.3002  0.2024  0.0797
 9077SOL    HW133305   4.714   9.302   3.046 -0.1794 -0.9874  1.9626
 9077SOL    HW233306   4.837   9.272   2.943 -1.6054  1.4938 -0.5201
 9078SOL     OW33307   4.629   8.235   7.181 -0.1828 -0.2221  0.5614
 9078SOL    HW133308   4.543   8.206   7.139 -0.5174  1.6728 -0.1249
 9078SOL    HW233309   4.698   8.246   7.110 -0.1131  0.7859  0.7796
 9079SOL     OW33310   4.431   7.126   0.777  0.0504 -0.0991 -0.3032
 9079SOL    HW133311   4.452   7.223   0.792 -1.0538 -0.3338  3.3528
 9079SOL    HW233312   4.364   7.117   0.704 -1.4514  2.1029  0.7376
 9084SOL     OW33313   3.684   4.727   3.058 -0.5469  0.3852 -0.2605
 9084SOL    HW133314   3.738   4.644   3.049  0.9914  1.2993  0.2103
 9084SOL    HW233315   3.600   4.719   3.005 -0.7715 -1.7462  0.3888
 9085SOL     OW33316   3.213   8.632   5.230  0.4085 -0.0507  0.9369
 9085SOL    HW133317   3.298   8.683   5.244  0.0295  0.8586 -0.0513
 9085SOL    HW233318   3.184   8.641   5.135 -1.1369  0.1591  1.4161
 9087SOL     OW33319   5.198   2.460   7.635 -0.1431 -0.2464 -0.1291
 9087SOL    HW133320   5.236   2.552   7.644 -2.3554  0.6893 -0.2401
 9087SOL    HW233321   5.183   2.422   7.727  2.7845 -1.3920 -0.0584
 9089SOL     OW33322   4.014   3.384   6.790  0.8042  0.4900 -0.5536
 9089SOL    HW133323   3.925   3.387   6.745  0.2094 -2.0005  0.3654
 9089SOL    HW233324   4.069   3.311   6.750  0.4262 -1.4933  2.4076
 9090SOL     OW33325   3.692   4.069   0.376  0.4730 -0.2333  0.2421
 9090SOL    HW133326   3.687   4.163   0.410  0.4953 -0.0600 -0.2272
 9090SOL    HW233327   3.600   4.033   0.364  0.4437  0.1781 -0.8037
 9091SOL     OW33328   1.277   7.560   1.325  0.1920 -0.5165  0.2698
 9091SOL    HW133329   1.355   7.599   1.276 -0.4959  1.2776  0.5669
 9091SOL    HW233330   1.283   7.460   1.323  1.4793 -0.4345 -1.3573
 9092SOL     OW33331   1.134   7.993   6.903 -0.3907 -0.1100  0.6475
 9092SOL    HW133332   1.128   8.062   6.831  0.5977  0.5773  1.2075
 9092SOL    HW233333   1.206   8.019   6.968  0.1399 -1.7839  0.7488
 9093SOL     OW33334   7.439   9.623   3.666 -0.3934 -0.0875  0.0840
 9093SOL    HW133335   7.465   9.544   3.610  0.7221 -1.5780  2.5901
 9093SOL    HW233336   7.522   9.669   3.697 -1.0285  1.3170 -0.2873
 9098SOL     OW33337   3.808   8.744   7.213  0.0254 -0.2240  0.3581
 9098SOL    HW133338   3.839   8.821   7.157 -0.6099  0.6492  1.1964
 9098SOL    HW233339   3.888   8.695   7.248  0.4593  0.7449  0.7623
 9099SOL     OW33340   8.071   6.316   4.190 -0.2903 -0.1743  0.3127
 9099SOL    HW133341   8.019   6.295   4.108  1.6448  1.6296 -1.4486
 9099SOL    HW233342   8.062   6.413   4.211 -0.0103 -0.4356  1.6830
 9100SOL     OW33343   0.362   0.596   1.236  0.4015 -0.2881  0.2729
 9100SOL    HW133344   0.361   0.516   1.176  2.4460 -0.6414  0.6664
 9100SOL    HW233345   0.457   0.623   1.253 -0.2092  0.8828  1.9152
 9101SOL     OW33346   7.984   6.687   5.020  0.3469 -0.1878 -0.3442
 9101SOL    HW133347   8.020   6.596   5.001 -0.7662 -0.2679 -2.1626
 9101SOL    HW233348   8.041   6.756   4.975 -0.5963 -0.1895 -1.5585
 9103SOL     OW33349   0.621   4.625   0.374 -0.4307 -0.6457  0.1160
 9103SOL    HW133350   0.677   4.674   0.307  0.7051 -0.8588  0.8908
 9103SOL    HW233351   0.535   4.597   0.332 -0.4545  0.7252 -0.7528
 9104SOL     OW33352   1.101   9.282   0.950  0.3349 -0.1267  0.3897
 9104SOL    HW133353   1.112   9.323   1.041  2.4523  0.1062  0.0508
 9104SOL    HW233354   1.056   9.347   0.889  0.7841  0.4940  0.7174
 9105SOL     OW33355   2.774   5.833   2.402  0.6583 -0.4968  0.0235
 9105SOL    HW133356   2.694   5.782   2.434  0.4411 -0.4697 -0.4666
 9105SOL    HW233357   2.795   5.906   2.467  1.1713 -1.4061  0.8988
 9106SOL     OW33358   4.447   1.305   3.287  0.3990  0.6611  0.3655
 9106SOL    HW133359   4.356   1.335   3.258  0.1630 -0.6968 -0.3747
 9106SOL    HW233360   4.457   1.207   3.266  2.3559  1.0131 -0.3620
 9108SOL     OW33361   4.601   3.137   7.167 -0.4321 -0.2424  0.2972
 9108SOL    HW133362   4.661   3.067   7.126  1.5995  0.3528  2.1887
 9108SOL    HW233363   4.644   3.226   7.160  0.3633 -0.2122  4.3695
 9109SOL     OW33364   7.940   2.174   5.668 -0.3944 -0.7335  0.2557
 9109SOL    HW133365   7.982   2.108   5.730 -1.4824 -2.3494 -0.7074
 9109SOL    HW233366   8.009   2.210   5.605  0.2504 -0.7523  0.9479
 9110SOL     OW33367   1.534   9.700   1.275  0.1682 -0.1228 -0.4831
 9110SOL    HW133368   1.458   9.678   1.214  0.8913 -1.5378 -0.9192
 9110SOL    HW233369   1.587   9.775   1.236 -0.2478 -0.0077 -0.8400
 9111SOL     OW33370   9.947   2.996   6.504 -0.1482  0.1938 -0.3378
 9111SOL    HW133371   9.909   3.005   6.412 -0.2086 -0.3345 -0.3689
 9111SOL    HW233372  10.023   2.930   6.502  0.4728  0.8987 -0.1925
 9112SOL     OW33373   4.200   7.386   2.878  0.0135 -0.0613 -0.2902
 9112SOL    HW133374   4.249   7.305   2.846  2.4003  2.1902 -2.5287
 9112SOL    HW233375   4.201   7.388   2.978 -0.8906 -3.2225 -0.1549
 9113SOL     OW33376   0.914   2.493   5.586 -0.1767  0.0828 -0.3924
 9113SOL    HW133377   0.863   2.575   5.610 -1.2755 -0.6346 -0.2440
 9113SOL    HW233378   1.012   2.511   5.596 -0.5090  0.3579  2.9865
 9114SOL     OW33379   1.048   3.385   1.199  0.3366  0.3677 -0.5895
 9114SOL    HW133380   1.040   3.394   1.298  0.0425 -1.3444 -0.4356
 9114SOL    HW233381   0.963   3.413   1.156  0.0030 -0.1205 -0.2548
 9116SOL     OW33382   6.339   9.680   7.654 -0.6878 -0.6227 -0.3128
 9116SOL    HW133383   6.281   9.734   7.714 -1.1101 -1.7339  0.2995
 9116SOL    HW233384   6.428   9.666   7.697  0.2123  1.4325 -1.4277
 9117SOL     OW33385   6.849   6.871   1.911  0.0710 -0.0342  0.2193
 9117SOL    HW133386   6.917   6.944   1.905 -1.3945  1.3720  0.1978
 9117SOL    HW233387   6.865   6.804   1.838  1.7263 -0.0137  0.5385
 9118SOL     OW33388   7.184   5.573   0.909  0.8559 -0.6416 -0.0939
 9118SOL    HW133389   7.282   5.568   0.930  0.7263 -0.6587  0.5092
 9118SOL    HW233390   7.134   5.515   0.973  0.7510 -3.2709 -2.4273
 9120SOL     OW33391   0.835   6.901   3.084  0.1546 -0.3031 -0.5573
 9120SOL    HW133392   0.893   6.981   3.100  0.8398 -0.8490 -0.3028
 9120SOL    HW233393   0.739   6.929   3.084  0.1898  0.0110  2.8425
 9121SOL     OW33394   2.800   7.919   1.564 -0.7360 -0.6327 -0.1934
 9121SOL    HW133395   2.786   7.932   1.662  0.5731  1.0139 -0.2070
 9121SOL    HW233396   2.763   7.831   1.536 -1.8907 -0.7285  1.6217
 9122SOL     OW33397   6.240   4.939   7.698  0.0151 -0.2648  0.7983
 9122SOL    HW133398   6.227   4.878   7.776  1.6023 -1.0371  0.4893
 9122SOL    HW233399   6.290   5.020   7.727  1.1356 -0.8317  0.4792
 9124SOL     OW33400   1.933   3.557   1.116  0.0678  0.3220  0.2783
 9124SOL    HW133401   1.894   3.643   1.149 -1.5909 -0.0326 -0.6991
 9124SOL    HW233402   1.869   3.483   1.133 -0.5868  0.0309 -3.1328
 9125SOL     OW33403   1.310   8.225   2.528  0.2072  0.2020 -0.0731
 9125SOL    HW133404   1.325   8.252   2.623  0.7895  1.4231 -0.5104
 9125SOL    HW233405   1.262   8.298   2.479 -0.2868 -0.5115 -0.6689
 9126SOL     OW33406   3.676   8.194   1.615  0.1589  0.3101  0.2769
 9126SOL    HW133407   3.737   8.117   1.594 -0.3486  0.4063 -1.6679
 9126SOL    HW233408   3.585   8.175   1.578  0.4198  2.4777 -1.6224
 9127SOL     OW33409   2.857   3.738   2.804 -0.4010  0.4420 -0.2487
 9127SOL    HW133410   2.946   3.754   2.846 -0.9392  1.7366  0.4444
 9127SOL    HW233411   2.807   3.824   2.799 -2.6680 -0.6904  1.8496
 9130SOL     OW33412   3.620   7.771   4.079 -0.2136 -0.6126  0.1335
 9130SOL    HW133413   3.626   7.812   4.170 -0.4594  0.2760 -0.2415
 9130SOL    HW233414   3.697   7.801   4.024 -0.1253 -1.0625  0.0106
 9131SOL     OW33415   0.236   1.126   6.543 -0.0660 -0.0240 -0.2940
 9131SOL    HW133416   0.308   1.060   6.565  1.3200  1.2966 -0.8636
 9131SOL    HW233417   0.226   1.133   6.444  1.0546  1.9672 -0.2800
 9132SOL     OW33418   9.551   9.321   2.406 -0.1309 -0.7485 -0.0374
 9132SOL    HW133419   9.615   9.245   2.393  2.2076  1.0782  0.6395
 9132SOL    HW233420   9.544   9.374   2.322 -0.9836 -1.0867 -0.1903
 9133SOL     OW33421   1.437   9.585   3.313 -0.3718  0.5655  0.0635
 9133SOL    HW133422   1.372   9.655   3.283 -0.1706  0.4206 -0.7162
 9133SOL    HW233423   1.526   9.603   3.272 -0.3817 -0.2842 -0.3327
 9134SOL     OW33424   0.637   2.167   0.712  0.1556  0.3633 -0.1908
 9134SOL    HW133425   0.560   2.230   0.706 -0.4450 -0.2780  0.6072
 9134SOL    HW233426   0.669   2.144   0.621 -0.6548  0.5628 -0.5256
 9136SOL     OW33427   2.093   7.178   2.900  0.0140  0.3866  0.3416
 9136SOL    HW133428   2.125   7.217   2.986  1.5316 -2.1203  0.9831
 9136SOL    HW233429   2.133   7.229   2.823  2.6425 -0.3785  1.1420
 9139SOL     OW33430   1.418   5.885   2.488  0.1557 -0.0875  0.4011
 9139SOL    HW133431   1.443   5.975   2.525 -1.4521 -0.0818  1.5298
 9139SOL    HW233432   1.492   5.851   2.431  0.3695  2.4275 -0.9098
 9143SOL     OW33433   0.604   2.134   4.605 -0.4903  0.0638  0.0560
 9143SOL    HW133434   0.532   2.166   4.666 -0.5677  0.5403 -0.2813
 9143SOL    HW233435   0.573   2.053   4.556 -0.5285 -0.1587  0.4532
 9144SOL     OW33436   7.321   0.992   1.753  0.2505 -0.1755  0.0314
 9144SOL    HW133437   7.376   1.064   1.795  0.8325  0.0076 -1.0127
 9144SOL    HW233438   7.306   1.014   1.656 -0.6261 -0.8352  0.0084
 9145SOL     OW33439   8.997   5.146   7.015 -0.0668  0.4430 -0.2424
 9145SOL    HW133440   8.931   5.160   7.090  1.7067  1.3768  1.1853
 9145SOL    HW233441   8.998   5.226   6.956  0.8293  1.0516  0.5823
 9146SOL     OW33442   9.887   6.131   4.450 -0.8087  0.5125  0.3836
 9146SOL    HW133443   9.872   6.084   4.538 -0.1064  0.7441  0.6352
 9146SOL    HW233444   9.886   6.064   4.376  0.0444  0.1021  0.7302
 9147SOL     OW33445   7.569   2.450   2.849  0.0890 -0.2597 -0.4975
 9147SOL    HW133446   7.472   2.469   2.837 -0.4695 -2.1568  0.8204
 9147SOL    HW233447   7.614   2.453   2.759 -1.2715  0.0657 -1.1925
 9148SOL     OW33448   1.118   1.541   3.799  0.7758 -0.1030  0.0691
 9148SOL    HW133449   1.127   1.558   3.897 -0.3977  0.6963  0.0550
 9148SOL    HW233450   1.021   1.544   3.774  0.9143 -2.2389 -0.7809
 9149SOL     OW33451   7.422   9.063   6.530  0.0793  0.2973 -0.8293
 9149SOL    HW133452   7.398   9.106   6.617  2.1866  1.5248 -0.8317
 9149SOL    HW233453   7.487   8.990   6.547 -0.6242 -0.4341 -1.2421
 9150SOL     OW33454   3.796   5.149   6.672 -0.0258  0.2774 -0.2419
 9150SOL    HW133455   3.733   5.210   6.720  1.4391  0.7249  1.1399
 9150SOL    HW233456   3.745   5.072   6.633 -1.4036  0.5534  0.9853
 9151SOL     OW33457   8.136   4.569   2.541  0.2834  0.2052  0.1163
 9151SOL    HW133458   8.151   4.629   2.462  0.2784  0.0642  0.0067
 9151SOL    HW233459   8.062   4.505   2.520 -0.1386  0.5736  0.4693
 9152SOL     OW33460   8.674   8.538   0.152  0.0784 -0.0416 -0.2070
 9152SOL    HW133461   8.743   8.607   0.172  0.6014 -1.2929  2.5622
 9152SOL    HW233462   8.706   8.479   0.079  1.1770  0.4778 -0.1611
 9153SOL     OW33463   0.586   5.531   2.909  0.3850  0.0219 -0.0967
 9153SOL    HW133464   0.517   5.517   2.838  0.6495  0.0598 -0.3633
 9153SOL    HW233465   0.543   5.572   2.989  0.2166  0.6363 -0.4957
 9155SOL     OW33466   2.633   9.787   0.605 -0.0652  0.0708 -0.1062
 9155SOL    HW133467   2.612   9.720   0.677 -0.4164  0.6165  0.2977
 9155SOL    HW233468   2.732   9.804   0.603 -0.2534  1.4231  1.4595
 9156SOL     OW33469   2.997   7.550   5.863  0.0106 -0.8505  1.1474
 9156SOL    HW133470   2.986   7.453   5.841 -0.0580 -0.1650 -2.2039
 9156SOL    HW233471   2.910   7.597   5.848  0.7586  0.1815 -0.0670
 9159SOL     OW33472   1.007   0.323   1.149 -0.0935  0.3250 -0.1709
 9159SOL    HW133473   1.012   0.371   1.062 -0.1595  0.7355  0.0523
 9159SOL    HW233474   1.099   0.296   1.178 -0.2991 -2.1274 -1.6558
 9160SOL     OW33475   9.290   8.378   6.561 -0.2323  0.1346  0.7542
 9160SOL    HW133476   9.238   8.409   6.482 -1.2905 -0.8604  1.0426
 9160SOL    HW233477   9.244   8.406   6.645 -0.1511 -0.4870  1.0122
 9161SOL     OW33478   6.042   3.971   0.371 -0.2154  0.5711 -0.2332
 9161SOL    HW133479   6.047   3.922   0.284 -0.2920 -1.0031  0.6347
 9161SOL    HW233480   6.134   3.984   0.407 -0.2612  0.0578  0.0789
 9164SOL     OW33481   1.465   1.310   2.010 -0.0386  0.3068  0.3899
 9164SOL    HW133482   1.367   1.320   2.024  0.0735  2.6422 -0.3046
 9164SOL    HW233483   1.513   1.327   2.096 -0.2486 -1.7042  0.9451
 9165SOL     OW33484   3.601   0.323   3.494  0.1033  0.3094 -0.0857
 9165SOL    HW133485   3.624   0.290   3.585  1.2219  0.8821 -0.1478
 9165SOL    HW233486   3.504   0.345   3.489 -0.1908 -0.8127  0.6233
 9167SOL     OW33487   0.422   7.840   2.138 -0.0269 -0.0898  0.2197
 9167SOL    HW133488   0.401   7.822   2.234  0.3798  1.7941  0.6931
 9167SOL    HW233489   0.521   7.837   2.125  0.3562  4.5788  1.0124
 9170SOL     OW33490   3.682   2.849   0.470 -0.7493 -0.5082  0.1294
 9170SOL    HW133491   3.712   2.940   0.496 -1.4342  0.0360 -0.9438
 9170SOL    HW233492   3.761   2.787   0.470 -0.3736 -0.0468  1.3601
 9172SOL     OW33493   8.267   2.572   2.031 -0.3520  0.3456  0.1486
 9172SOL    HW133494   8.262   2.659   2.080 -0.5015  0.2457  0.3112
 9172SOL    HW233495   8.359   2.561   1.992  0.7662 -0.9619  2.9826
 9174SOL     OW33496   9.443   3.865   3.102 -0.2823 -0.0240 -0.9075
 9174SOL    HW133497   9.521   3.927   3.111  0.1134 -0.7687  1.0252
 9174SOL    HW233498   9.360   3.911   3.131 -0.1375 -0.0886 -0.3876
 9175SOL     OW33499   0.046   8.003   0.352 -0.3488 -0.2530 -0.6181
 9175SOL    HW133500   0.011   8.090   0.315 -1.2286  0.0201  0.8080
 9175SOL    HW233501  -0.003   7.927   0.309 -0.2929 -0.0064 -1.1289
 9176SOL     OW33502   2.862   8.979   7.204 -0.0305 -0.7735 -0.0727
 9176SOL    HW133503   2.769   8.955   7.177  0.5238  0.4269 -3.2326
 9176SOL    HW233504   2.922   8.901   7.187 -0.1421 -0.9121  0.1699
 9177SOL     OW33505   0.441   0.777   4.565  0.1134 -0.1365 -0.4717
 9177SOL    HW133506   0.444   0.840   4.487 -0.4471 -1.1598 -1.3382
 9177SOL    HW233507   0.383   0.816   4.636 -0.4212  0.2365 -1.0999
 9178SOL     OW33508   0.921   5.630   2.335  0.0392 -0.3757  0.2746
 9178SOL    HW133509   0.967   5.709   2.294 -0.7168 -0.4504 -0.7224
 9178SOL    HW233510   0.851   5.596   2.273 -1.3430 -0.2995  1.7639
 9180SOL     OW33511   9.270   8.305   4.911  0.0919  0.1496  0.2211
 9180SOL    HW133512   9.365   8.329   4.892 -0.5639  2.8197  0.0934
 9180SOL    HW233513   9.247   8.334   5.004 -1.5570  2.7701 -0.9406
 9182SOL     OW33514   3.708   2.356   6.164 -0.6123  0.1956  0.6109
 9182SOL    HW133515   3.674   2.376   6.257 -1.7001 -0.3845  0.3493
 9182SOL    HW233516   3.769   2.277   6.167  1.8433  2.0356  1.2908
 9183SOL     OW33517   2.757   5.107   0.803  0.1300 -0.5054  0.1121
 9183SOL    HW133518   2.749   5.162   0.886  0.9660  0.7618 -0.6184
 9183SOL    HW233519   2.676   5.123   0.746  0.1624 -0.3669  0.1032
 9184SOL     OW33520   8.492   3.583   5.160 -0.2199 -0.2225  0.2208
 9184SOL    HW133521   8.475   3.600   5.257  1.3137 -0.2562  0.5099
 9184SOL    HW233522   8.564   3.645   5.128 -1.6102  0.6615 -1.2117
 9185SOL     OW33523   3.670   1.098   1.501  0.0820  0.0656  0.3165
 9185SOL    HW133524   3.716   1.187   1.499  0.5478 -0.1047  2.2713
 9185SOL    HW233525   3.592   1.099   1.438 -0.4963  2.1641  1.0228
 9186SOL     OW33526   2.881   4.033   0.613  0.0142  0.4634  1.2056
 9186SOL    HW133527   2.935   3.986   0.543 -2.4618  1.7973 -1.7106
 9186SOL    HW233528   2.906   4.130   0.614 -0.8081  0.6779  1.3287
 9187SOL     OW33529   2.621   9.025   4.479 -0.3763 -0.0082  0.3045
 9187SOL    HW133530   2.567   8.941   4.475  1.2023 -1.0675  0.6644
 9187SOL    HW233531   2.695   9.014   4.546 -0.8952  2.1266  1.2771
 9189SOL     OW33532   3.018   5.883   5.744 -0.4345 -0.0238  0.1261
 9189SOL    HW133533   3.108   5.926   5.746 -0.8784  0.9298  3.0422
 9189SOL    HW233534   2.985   5.877   5.650  1.6175  1.8647 -0.7497
 9190SOL     OW33535   9.828   3.966   0.348 -0.1584 -0.1339 -0.1563
 9190SOL    HW133536   9.841   4.035   0.277  1.5211 -0.4169 -0.1501
 9190SOL    HW233537   9.745   3.986   0.399 -0.3750  1.1496 -0.9876
 9193SOL     OW33538   1.786   4.063   0.417  0.5714  0.1399  0.1077
 9193SOL    HW133539   1.740   4.145   0.383  0.7899  0.8276  1.4182
 9193SOL    HW233540   1.859   4.037   0.354 -1.0900 -0.5219 -1.6051
 9194SOL     OW33541   8.194   9.282   2.725  0.1048 -0.2983  0.7616
 9194SOL    HW133542   8.123   9.226   2.682 -0.2449  2.0628 -1.8249
 9194SOL    HW233543   8.255   9.319   2.655  2.2417 -0.0005  2.7124
 9195SOL     OW33544   6.564   1.779   3.257  0.0874  0.0249  0.0944
 9195SOL    HW133545   6.563   1.679   3.261 -0.1597  0.0535  0.7630
 9195SOL    HW233546   6.643   1.809   3.204 -0.7047 -0.5738 -1.4904
 9196SOL     OW33547   6.119   3.404   0.522  0.0074 -0.3360 -0.1562
 9196SOL    HW133548   6.081   3.495   0.511 -0.7941 -0.5144  0.9710
 9196SOL    HW233549   6.175   3.401   0.605  0.4705 -0.7140 -0.4833
 9197SOL     OW33550   0.437   2.328   5.642  0.2162  0.2856  0.3271
 9197SOL    HW133551   0.478   2.241   5.672 -0.0134  0.3190  0.7391
 9197SOL    HW233552   0.388   2.370   5.719 -1.6568 -0.3704 -0.4793
 9198SOL     OW33553   7.682   4.421   7.210 -0.1599  0.0746 -0.0447
 9198SOL    HW133554   7.752   4.352   7.192  0.2761  0.0421  1.7417
 9198SOL    HW233555   7.672   4.434   7.309  0.5738  3.3867 -0.3446
 9199SOL     OW33556   1.454   8.054   5.232 -0.3562 -0.0033  0.3745
 9199SOL    HW133557   1.431   8.103   5.148 -1.3823  0.9058  1.1710
 9199SOL    HW233558   1.549   8.072   5.256  0.3825 -1.4295 -1.3630
 9200SOL     OW33559   6.732   0.309   7.088 -0.4218  0.0275  0.1034
 9200SOL    HW133560   6.762   0.214   7.072  0.4623  0.3390 -0.1537
 9200SOL    HW233561   6.808   0.371   7.068 -0.7588  0.7436  1.0130
 9201SOL     OW33562   9.560   8.446   6.437  0.4240 -0.1038 -0.9589
 9201SOL    HW133563   9.646   8.428   6.390  2.4703  2.5359  1.6278
 9201SOL    HW233564   9.518   8.359   6.465  1.9157 -1.4380 -2.7354
 9202SOL     OW33565   2.075   1.232   2.267 -0.7867  0.7953 -0.7869
 9202SOL    HW133566   1.988   1.261   2.307 -0.3320  1.0442  0.0573
 9202SOL    HW233567   2.130   1.313   2.247 -0.2869  0.5988 -0.2306
 9203SOL     OW33568   1.907   0.290   1.284  0.0272  0.0492  0.5167
 9203SOL    HW133569   1.952   0.201   1.296  0.0641 -0.0002  0.0199
 9203SOL    HW233570   1.808   0.279   1.293 -0.1081 -0.3443 -1.1695
 9204SOL     OW33571   8.145   1.516   7.664  0.3008 -0.4745  0.0801
 9204SOL    HW133572   8.184   1.573   7.591 -0.4903 -0.9971 -0.7703
 9204SOL    HW233573   8.215   1.496   7.731  0.5376  1.6988  0.5232
 9205SOL     OW33574   3.823   6.746   4.528  0.0431  0.2850  0.6848
 9205SOL    HW133575   3.776   6.834   4.536 -0.3929  0.2889 -1.4866
 9205SOL    HW233576   3.770   6.685   4.470  2.4391  0.1119 -1.4393
 9206SOL     OW33577   9.031   9.085   4.111  0.3084  0.4789 -0.1601
 9206SOL    HW133578   8.982   9.164   4.149 -0.4784  0.5441 -1.2774
 9206SOL    HW233579   9.071   9.110   4.023  0.9311 -0.0759 -0.0345
 9207SOL     OW33580   0.239   3.537   2.829 -0.1433  0.2301  0.2275
 9207SOL    HW133581   0.245   3.634   2.807 -0.7148  0.3003  0.3782
 9207SOL    HW233582   0.143   3.511   2.841  0.0793 -0.0986  1.3512
 9208SOL     OW33583   8.716   0.578   3.645  0.0472  0.1869 -0.9946
 9208SOL    HW133584   8.760   0.609   3.562  0.8454 -0.3948 -0.7935
 9208SOL    HW233585   8.769   0.503   3.686 -1.0144 -0.4029 -0.6554
 9209SOL     OW33586   8.751   1.441   2.255  0.3809  0.1332  0.7663
 9209SOL    HW133587   8.782   1.368   2.317  0.9588  0.0712  0.4041
 9209SOL    HW233588   8.651   1.441   2.252  0.3802 -0.7598  0.6387
 9210SOL     OW33589   2.302   0.767   5.081  0.2089 -0.0014  0.1248
 9210SOL    HW133590   2.345   0.777   5.171  0.3627  1.7364 -0.1320
 9210SOL    HW233591   2.203   0.773   5.091  0.2020 -0.2421  0.2219
 9212SOL     OW33592   1.929   4.355   4.649 -0.2733 -0.3441  0.3103
 9212SOL    HW133593   1.962   4.297   4.575 -3.3585 -0.2199 -1.2421
 9212SOL    HW233594   1.922   4.449   4.617 -0.5741 -0.0978  1.0896
 9213SOL     OW33595   4.192   0.048   2.447 -0.3079 -0.8046  0.0128
 9213SOL    HW133596   4.127   0.057   2.523  1.4363  0.0595  1.4569
 9213SOL    HW233597   4.186   0.129   2.388  0.2110 -0.2066  0.7688
 9215SOL     OW33598   3.205   2.057   3.853  0.7955 -0.5526  0.1777
 9215SOL    HW133599   3.257   1.991   3.907  0.0210 -1.2709  0.0598
 9215SOL    HW233600   3.164   2.125   3.913  2.6337  0.5585  0.1837
 9216SOL     OW33601   5.509   9.286   2.404 -0.1374  0.0663  0.4837
 9216SOL    HW133602   5.602   9.312   2.428  0.2943  0.4580 -1.5727
 9216SOL    HW233603   5.504   9.186   2.394 -0.3309 -0.1072  2.1683
 9217SOL     OW33604   8.927   2.382   6.775 -0.7885  0.4562 -0.2613
 9217SOL    HW133605   8.959   2.368   6.681 -3.9974 -0.6901 -1.2855
 9217SOL    HW233606   8.849   2.444   6.775 -2.4786 -1.5554  1.2623
 9218SOL     OW33607   4.208   6.667   0.712 -0.0699  0.1578 -0.1214
 9218SOL    HW133608   4.280   6.678   0.781 -0.5455 -0.5287  0.4991
 9218SOL    HW233609   4.241   6.700   0.624  1.5507 -1.5085 -0.1811
 9219SOL     OW33610   3.134   3.710   2.416 -0.7638 -0.1298  0.3799
 9219SOL    HW133611   3.206   3.665   2.362  0.7839  1.3326  1.1594
 9219SOL    HW233612   3.147   3.688   2.513  0.1504  2.1158  0.7976
 9221SOL     OW33613   1.428   0.957   6.691  0.2895  0.2290 -0.5316
 9221SOL    HW133614   1.503   0.938   6.755 -0.9218 -1.1891  0.5113
 9221SOL    HW233615   1.431   1.053   6.664  0.6076  0.9764  1.9721
 9222SOL     OW33616   1.180   3.750   2.938  0.4601  0.1925 -0.2086
 9222SOL    HW133617   1.264   3.695   2.944  0.9488  0.9358 -0.2062
 9222SOL    HW233618   1.101   3.690   2.943  0.9922 -0.7005 -1.8844
 9223SOL     OW33619   0.740   5.119   4.066  0.6787  0.4296 -0.3662
 9223SOL    HW133620   0.738   5.020   4.056 -1.4476  0.3081  1.0227
 9223SOL    HW233621   0.830   5.148   4.100  1.3814 -0.9733 -1.0119
 9224SOL     OW33622   9.562   0.853   1.008  0.4179  0.0832 -0.2721
 9224SOL    HW133623   9.637   0.800   1.046  1.4438  0.1687 -2.1350
 9224SOL    HW233624   9.596   0.942   0.978 -0.8818  1.0140  0.9321
 9225SOL     OW33625   2.677   1.076   6.000  0.1202 -0.0025  0.3055
 9225SOL    HW133626   2.686   1.161   5.948 -1.8652  0.1094  0.1130
 9225SOL    HW233627   2.761   1.059   6.051  1.0207  1.3898 -0.6827
 9226SOL     OW33628   8.260   6.920   0.712  0.3066  0.3776 -0.3880
 9226SOL    HW133629   8.162   6.900   0.720  0.4907 -0.8848 -1.1111
 9226SOL    HW233630   8.279   6.961   0.623  0.3385  1.2803  0.0294
 9227SOL     OW33631   0.761   0.973   4.727 -0.1598 -0.0545 -1.0951
 9227SOL    HW133632   0.703   0.931   4.798  0.7328  1.1624  0.3816
 9227SOL    HW233633   0.855   0.944   4.741 -0.2647 -1.4327 -3.0518
 9228SOL     OW33634   8.310   0.559   7.463  0.0516 -0.2107 -0.2247
 9228SOL    HW133635   8.286   0.462   7.464 -1.4085  0.1252 -1.0080
 9228SOL    HW233636   8.229   0.613   7.441  0.8914  1.1809  0.0368
 9230SOL     OW33637   3.250   9.458   7.781  0.0457  0.2301 -0.7422
 9230SOL    HW133638   3.329   9.400   7.760  1.0413  1.7923 -1.3414
 9230SOL    HW233639   3.237   9.524   7.708  0.1712  2.1078  0.8996
 9231SOL     OW33640   1.974   9.021   0.780 -0.1578 -0.4759  0.0952
 9231SOL    HW133641   2.060   9.070   0.769  0.5903 -1.4530  1.3917
 9231SOL    HW233642   1.919   9.066   0.850 -0.4833 -0.1486 -0.3689
 9232SOL     OW33643   1.423   9.957   6.680 -0.2973  0.0917 -0.5315
 9232SOL    HW133644   1.481   9.953   6.599  0.0967  2.4345 -0.3942
 9232SOL    HW233645   1.328   9.972   6.652 -0.1158  1.2154 -0.5517
 9233SOL     OW33646   0.146   8.201   4.920  0.0593 -0.1860 -0.4013
 9233SOL    HW133647   0.172   8.144   4.843 -0.4107 -0.9332 -0.0156
 9233SOL    HW233648   0.227   8.224   4.974  0.1544 -1.1415 -0.1195
 9234SOL     OW33649   2.210   2.591   1.273 -0.3686 -0.0292  0.3501
 9234SOL    HW133650   2.147   2.659   1.235 -2.7319 -1.0206  2.3720
 9234SOL    HW233651   2.201   2.506   1.222 -0.2292 -0.0183  0.3051
 9237SOL     OW33652   9.879   2.106   4.709  0.7708 -0.3434  0.7267
 9237SOL    HW133653   9.904   2.025   4.657 -0.1949 -0.8118  0.9770
 9237SOL    HW233654   9.956   2.171   4.710  0.1764  0.5417 -2.9428
 9238SOL     OW33655   3.782   4.976   2.090  0.1848  0.0068 -1.0059
 9238SOL    HW133656   3.767   5.058   2.035  1.5516  0.7331 -0.3122
 9238SOL    HW233657   3.856   4.922   2.050  0.1483 -0.2403 -0.7440
 9239SOL     OW33658   0.851   1.836   5.055  0.0743  0.2552 -0.2516
 9239SOL    HW133659   0.941   1.812   5.019 -0.4536  1.1636 -2.2623
 9239SOL    HW233660   0.812   1.910   5.000 -1.3828  0.7144  1.3587
 9240SOL     OW33661   1.290   3.078   4.867 -0.6057 -0.0165  0.0499
 9240SOL    HW133662   1.322   3.113   4.780  0.0238 -1.8019 -0.4616
 9240SOL    HW233663   1.265   3.154   4.927 -1.2118  1.2215 -1.7412
 9241SOL     OW33664   0.912   8.342   2.223 -0.1046  0.1041 -0.2831
 9241SOL    HW133665   0.834   8.352   2.161 -0.2359  0.1000 -0.1191
 9241SOL    HW233666   0.884   8.290   2.304 -0.3844  1.5972  0.5799
 9242SOL     OW33667   1.228   9.159   4.274  0.2469 -0.6796 -0.2090
 9242SOL    HW133668   1.249   9.068   4.310  1.4906 -0.1058  0.5625
 9242SOL    HW233669   1.202   9.151   4.178  1.2783 -1.7575 -0.4144
 9246SOL     OW33670   9.133   8.383   5.133  0.2590 -0.3649  0.2961
 9246SOL    HW133671   9.194   8.429   5.198  0.1199 -0.8345  0.7576
 9246SOL    HW233672   9.085   8.452   5.079  0.3237  0.0298  0.7362
 9247SOL     OW33673   8.464   1.788   5.754  0.3690 -0.0694 -0.2843
 9247SOL    HW133674   8.415   1.705   5.727  1.9842 -0.5330 -1.8840
 9247SOL    HW233675   8.447   1.860   5.687 -0.5030  0.7012  0.7531
 9248SOL     OW33676   0.672   1.596   0.367  0.4554  0.4870 -0.4660
 9248SOL    HW133677   0.673   1.588   0.466  1.5596 -0.3909 -0.5381
 9248SOL    HW233678   0.642   1.688   0.341 -2.1691 -0.0077  0.6152
 9249SOL     OW33679   1.633   3.369   5.693 -0.5464  0.3705 -0.1532
 9249SOL    HW133680   1.628   3.458   5.738  0.1724 -0.5168  1.7329
 9249SOL    HW233681   1.541   3.341   5.665 -0.9620  1.0780  0.4671
 9252SOL     OW33682   0.726   6.112   6.043 -0.0553 -0.1652  1.0250
 9252SOL    HW133683   0.807   6.056   6.060  0.5001 -0.4275 -2.1410
 9252SOL    HW233684   0.754   6.207   6.030 -0.5248  0.1336  2.1632
 9255SOL     OW33685   2.943   4.445   7.528 -0.6254 -0.1700 -0.1076
 9255SOL    HW133686   3.038   4.471   7.547 -0.9555  0.4523  0.6925
 9255SOL    HW233687   2.909   4.385   7.600 -1.2192  0.5674  0.2399
 9256SOL     OW33688   4.480   2.730   0.535  0.4562  0.2974 -0.1683
 9256SOL    HW133689   4.456   2.651   0.479 -1.6275 -0.3772  1.5933
 9256SOL    HW233690   4.469   2.706   0.632  0.9644  2.3798  0.4238
 9257SOL     OW33691   0.108   7.380   2.605 -0.0761 -0.5404  0.9174
 9257SOL    HW133692   0.058   7.295   2.587  0.5421 -0.9760  1.2218
 9257SOL    HW233693   0.053   7.438   2.665 -0.5116 -0.7135  0.6940
 9258SOL     OW33694   7.557   2.164   5.011  0.1602  0.0851 -0.4591
 9258SOL    HW133695   7.460   2.150   5.034  0.3839  0.2364  0.6099
 9258SOL    HW233696   7.581   2.109   4.931 -0.3302 -1.4474  0.4387
 9260SOL     OW33697   6.964   7.061   2.290  0.6283 -0.1067 -0.3350
 9260SOL    HW133698   6.994   6.965   2.286 -1.4910 -0.7710 -0.7728
 9260SOL    HW233699   6.993   7.108   2.206  1.3258 -0.4710 -0.3020
 9261SOL     OW33700   6.583   8.835   7.870 -0.0510  0.8013  0.0118
 9261SOL    HW133701   6.659   8.782   7.906 -0.1138 -1.7356 -3.3243
 9261SOL    HW233702   6.518   8.773   7.825 -2.3694  3.2750 -0.1350
 9262SOL     OW33703   9.175   5.471   7.836  0.1694 -0.1435 -0.1950
 9262SOL    HW133704   9.135   5.421   7.913 -0.5846 -1.1115 -1.2095
 9262SOL    HW233705   9.269   5.497   7.858 -0.4071  0.5553  1.4922
 9263SOL     OW33706   3.646   5.182   2.579 -0.0303 -0.1330  0.2672
 9263SOL    HW133707   3.683   5.140   2.496  0.6098 -0.6879  0.8232
 9263SOL    HW233708   3.685   5.273   2.590  1.5385 -0.8944  1.0940
 9265SOL     OW33709   3.700   3.983   2.232  0.1438  0.6316 -0.5660
 9265SOL    HW133710   3.640   3.916   2.277  1.9671 -1.0552 -0.5626
 9265SOL    HW233711   3.647   4.036   2.166 -1.2516 -1.2307 -0.9882
 9267SOL     OW33712   0.476   5.996   6.351  0.4112 -0.5200  0.4955
 9267SOL    HW133713   0.566   5.995   6.394  0.3369 -0.5573  0.6540
 9267SOL    HW233714   0.441   6.090   6.347  0.8253 -0.4013 -0.3532
 9268SOL     OW33715   1.821   6.039   1.316 -0.1597  0.0121  0.6348
 9268SOL    HW133716   1.726   6.014   1.329 -0.4619 -0.8728 -2.6801
 9268SOL    HW233717   1.879   5.959   1.327 -0.1608 -0.1603 -0.4888
 9271SOL     OW33718   2.566   3.788   1.057  0.3232  0.3882 -0.7093
 9271SOL    HW133719   2.495   3.775   1.126 -0.0463  0.5292 -1.0651
 9271SOL    HW233720   2.644   3.730   1.079 -0.3611 -0.6345 -0.9577
 9272SOL     OW33721   3.105   3.429   1.274 -0.0734 -0.4529 -0.1972
 9272SOL    HW133722   3.093   3.524   1.302  1.7501 -0.0835 -0.6132
 9272SOL    HW233723   3.054   3.369   1.336 -2.2417  0.8691 -0.6935
 9274SOL     OW33724   2.593   1.900   6.184 -1.0436 -0.0663  0.8415
 9274SOL    HW133725   2.544   1.889   6.270 -3.0426  1.2549 -0.1061
 9274SOL    HW233726   2.551   1.841   6.114  1.1184 -1.8204  0.9432
 9275SOL     OW33727   1.826   3.009   6.619 -0.6056  0.0824  0.6000
 9275SOL    HW133728   1.854   3.020   6.715 -1.9933  0.5256  0.9677
 9275SOL    HW233729   1.857   3.088   6.566  0.1560 -0.1588  0.6814
 9276SOL     OW33730   3.549   6.377   0.919  0.1589 -0.0112 -0.5311
 9276SOL    HW133731   3.540   6.456   0.981 -1.4283  0.4535 -1.3465
 9276SOL    HW233732   3.517   6.295   0.965 -0.5031  0.2406 -0.5412
 9278SOL     OW33733   1.426   3.126   0.919  0.3146  0.0618  0.3852
 9278SOL    HW133734   1.459   3.168   0.834  1.0012 -0.2834  0.4832
 9278SOL    HW233735   1.339   3.168   0.944  0.3801  0.5583 -0.1922
 9279SOL     OW33736   1.456   5.233   7.654 -0.5968  0.0818 -0.2393
 9279SOL    HW133737   1.526   5.177   7.609  0.2340 -0.0157  1.1395
 9279SOL    HW233738   1.442   5.317   7.601  1.3721  0.6223  0.0227
 9280SOL     OW33739   7.324   7.881   4.772 -0.2112 -0.6444  0.1547
 9280SOL    HW133740   7.308   7.894   4.674  2.1305 -3.8011 -0.7224
 9280SOL    HW233741   7.241   7.846   4.815 -0.9291 -0.2619 -0.8989
 9281SOL     OW33742   8.492   9.775   7.172 -0.0431  0.2230 -0.2841
 9281SOL    HW133743   8.561   9.769   7.245  0.7150  0.3381 -0.9893
 9281SOL    HW233744   8.524   9.839   7.102 -1.5696  1.4755  0.1470
 9282SOL     OW33745   1.269   9.646   4.709 -0.5578 -0.6006 -0.5844
 9282SOL    HW133746   1.275   9.546   4.713 -0.2987 -0.5362  0.7600
 9282SOL    HW233747   1.306   9.685   4.793  0.4105  0.6794 -1.5912
 9283SOL     OW33748   7.092   7.643   3.190  0.3357 -0.4114 -0.1353
 9283SOL    HW133749   7.139   7.602   3.269 -0.9460  0.1033  0.9239
 9283SOL    HW233750   7.134   7.610   3.106 -0.1014 -3.2187  0.6882
 9284SOL     OW33751   9.640   2.579   3.902 -0.2834 -0.2665 -0.1994
 9284SOL    HW133752   9.693   2.505   3.944 -0.8700 -1.0297 -0.7879
 9284SOL    HW233753   9.546   2.577   3.936 -0.4432 -0.1285 -0.6254
 9286SOL     OW33754   8.968   6.408   6.622  0.4657 -0.0492 -0.3023
 9286SOL    HW133755   8.957   6.309   6.613 -0.1312 -0.0234  0.1371
 9286SOL    HW233756   9.053   6.428   6.671 -0.3494 -0.3949  1.2676
 9287SOL     OW33757   9.739   5.754   0.700  0.2765  0.3386 -0.4910
 9287SOL    HW133758   9.673   5.732   0.772 -0.0022  0.1327 -0.8064
 9287SOL    HW233759   9.710   5.711   0.614 -0.0834  1.6321 -1.0330
 9288SOL     OW33760   8.307   0.872   4.763  0.2139 -0.2827  0.4430
 9288SOL    HW133761   8.258   0.785   4.765  2.1498 -1.5038 -2.3358
 9288SOL    HW233762   8.281   0.924   4.682  1.8533  0.0568  0.1145
 9289SOL     OW33763   6.972   8.856   4.524  0.6799 -0.3493 -0.0635
 9289SOL    HW133764   7.000   8.761   4.520 -0.1903 -0.6062 -0.2280
 9289SOL    HW233765   6.931   8.876   4.613  0.8780 -0.1290 -0.0215
 9292SOL     OW33766   6.574   8.100   4.647 -0.3304  0.6333 -0.1067
 9292SOL    HW133767   6.503   8.062   4.588 -0.6401 -2.4772  2.1461
 9292SOL    HW233768   6.664   8.068   4.616 -0.2366  1.3540 -0.5928
 9293SOL     OW33769   0.858   2.683   3.163  0.1560 -0.4150 -0.3546
 9293SOL    HW133770   0.781   2.620   3.152  0.8205 -1.3754  0.5351
 9293SOL    HW233771   0.867   2.738   3.079 -0.0797 -1.8611 -1.3522
 9294SOL     OW33772   9.191   3.370   2.645 -0.1996  0.1378  0.1122
 9294SOL    HW133773   9.254   3.438   2.682 -0.2705 -0.1978  0.8695
 9294SOL    HW233774   9.097   3.396   2.668 -0.6114  2.2285 -3.5843
 9295SOL     OW33775   3.125   0.603   2.179 -0.3392 -0.0529  0.4177
 9295SOL    HW133776   3.201   0.609   2.243  0.7614  1.2318 -0.9824
 9295SOL    HW233777   3.039   0.612   2.229  0.3658 -2.3120  2.1210
 9297SOL     OW33778   4.198   1.663   5.432  0.2740  0.4494 -0.8254
 9297SOL    HW133779   4.263   1.605   5.382 -1.2688 -1.0440 -1.1538
 9297SOL    HW233780   4.109   1.618   5.435 -0.7655  2.4840 -0.3959
 9298SOL     OW33781   7.638   2.059   3.618 -0.0308 -0.1937 -0.0754
 9298SOL    HW133782   7.650   1.963   3.592  0.3845  0.0021 -0.5988
 9298SOL    HW233783   7.705   2.115   3.570  2.0039 -0.0475  2.7979
 9299SOL     OW33784   0.936   8.986   3.836 -0.0763  0.4759 -0.2417
 9299SOL    HW133785   0.971   9.067   3.788  0.0873  0.7325  0.3033
 9299SOL    HW233786   0.938   8.907   3.774  0.9319  0.6124 -0.3982
 9300SOL     OW33787   2.644   8.691   2.070 -0.7220 -0.1656  0.1901
 9300SOL    HW133788   2.703   8.702   2.150  2.1068  1.7312 -2.0252
 9300SOL    HW233789   2.609   8.781   2.043 -0.2233 -0.5190 -1.6771
 9301SOL     OW33790   9.024   7.795   7.803 -0.4531  0.3345  0.4222
 9301SOL    HW133791   9.028   7.695   7.794  1.1768  0.2940  1.3056
 9301SOL    HW233792   8.930   7.826   7.788 -0.6821 -1.1611 -1.4663
 9303SOL     OW33793   7.664   0.097   2.000  0.9395  0.0910  0.9250
 9303SOL    HW133794   7.564   0.104   1.998  0.9342 -0.1456 -0.1819
 9303SOL    HW233795   7.692   0.008   1.964  1.5711  0.3689  0.7139
 9305SOL     OW33796   8.840   5.862   5.046  0.3167  0.4384 -0.2102
 9305SOL    HW133797   8.777   5.865   4.969  0.5990  0.9478 -0.4292
 9305SOL    HW233798   8.793   5.890   5.129 -0.0866 -0.4685 -0.1222
 9306SOL     OW33799   5.595   5.293   1.338  0.4178 -0.6115  0.1832
 9306SOL    HW133800   5.631   5.256   1.424 -1.5583 -3.4621 -0.1334
 9306SOL    HW233801   5.507   5.337   1.356 -0.5633 -2.2319 -0.5083
 9308SOL     OW33802   5.251   2.149   1.124  0.1251  1.0761 -0.3493
 9308SOL    HW133803   5.231   2.084   1.198 -1.3730  0.2774 -1.4200
 9308SOL    HW233804   5.343   2.131   1.088  0.3125  0.5511  0.3728
 9309SOL     OW33805   4.818   9.442   3.801  0.0584 -0.8439 -0.6655
 9309SOL    HW133806   4.876   9.404   3.729  1.3934 -0.0241 -0.0643
 9309SOL    HW233807   4.797   9.371   3.868  0.6539 -1.0842 -0.7292
 9311SOL     OW33808   9.153   6.703   7.239  0.1860 -0.3545 -0.8607
 9311SOL    HW133809   9.063   6.692   7.281  0.0076 -2.0266 -1.6446
 9311SOL    HW233810   9.147   6.771   7.165  0.1318  1.3227  0.6565
 9312SOL     OW33811   1.539   5.599   4.516 -0.0995 -0.3736  0.6169
 9312SOL    HW133812   1.537   5.681   4.574 -0.8552  0.9816 -1.2443
 9312SOL    HW233813   1.470   5.608   4.444 -0.9202 -3.1597  1.0149
 9313SOL     OW33814   1.062   1.772   4.895 -0.3146 -0.1256 -0.3811
 9313SOL    HW133815   1.069   1.857   4.843  1.3886  1.1882  1.8661
 9313SOL    HW233816   1.132   1.708   4.864  1.0078  0.8334  0.5824
 9314SOL     OW33817   2.593   2.794   5.525  0.5309  0.1653 -0.3118
 9314SOL    HW133818   2.688   2.761   5.521  0.4364 -0.4819  2.2707
 9314SOL    HW233819   2.589   2.880   5.575 -0.2946  0.0183 -0.1185
 9316SOL     OW33820   1.810   3.137   5.602  0.1868 -0.7386 -0.3859
 9316SOL    HW133821   1.769   3.228   5.602 -2.2393 -1.7590 -2.8308
 9316SOL    HW233822   1.899   3.140   5.647 -0.2936  2.6188  0.4354
 9317SOL     OW33823   3.290   8.768   2.214 -0.4012  0.1711 -0.0375
 9317SOL    HW133824   3.343   8.723   2.142 -1.0364 -3.3640  1.6033
 9317SOL    HW233825   3.192   8.762   2.193 -0.5925 -0.8938  1.0613
 9318SOL     OW33826   0.689   8.579   3.571  0.1482 -0.4950  0.4221
 9318SOL    HW133827   0.748   8.597   3.650 -0.9180  1.5865  0.7725
 9318SOL    HW233828   0.737   8.605   3.487  0.6956 -1.2424  0.5028
 9319SOL     OW33829   0.960   7.988   0.589 -0.1174 -0.0658  0.1232
 9319SOL    HW133830   0.910   8.008   0.505  3.2690  2.3509 -1.4538
 9319SOL    HW233831   0.980   8.073   0.638  1.4191 -1.0377  1.2524
 9320SOL     OW33832   8.348   4.734   1.765 -0.2268 -0.0831  0.5584
 9320SOL    HW133833   8.413   4.808   1.786  1.3538 -1.3753  0.3199
 9320SOL    HW233834   8.345   4.721   1.666  0.1598 -0.9270  0.6591
 9322SOL     OW33835   8.029   1.709   5.047 -0.2247  0.0062 -0.2621
 9322SOL    HW133836   8.109   1.649   5.049  0.5407  0.9981 -0.6548
 9322SOL    HW233837   7.969   1.681   4.972  1.5838  1.5337 -2.3729
 9323SOL     OW33838   4.939   2.871   1.548  0.3506 -0.1268 -0.1282
 9323SOL    HW133839   4.920   2.936   1.474 -1.6678  0.6468  1.0015
 9323SOL    HW233840   4.866   2.802   1.550  0.2187  0.0387  1.2968
 9325SOL     OW33841   1.549   4.066   7.152 -0.8749  0.0415 -0.0580
 9325SOL    HW133842   1.523   4.159   7.126  0.2127 -0.0928 -1.7187
 9325SOL    HW233843   1.622   4.070   7.221  0.6351  0.4424 -1.6551
 9326SOL     OW33844   9.320   0.790   6.209 -0.1419  0.2356  0.1976
 9326SOL    HW133845   9.399   0.850   6.206  1.1085 -1.4009 -0.3423
 9326SOL    HW233846   9.255   0.823   6.277  0.7536  1.8976  0.2549
 9328SOL     OW33847   0.141   3.095   4.234 -0.2931 -0.2547  0.4950
 9328SOL    HW133848   0.045   3.124   4.240 -0.8190 -1.8259  0.1061
 9328SOL    HW233849   0.170   3.060   4.323 -0.5409 -1.1227  0.2391
 9330SOL     OW33850   5.197   9.351   6.672  0.0832  0.2979  0.1890
 9330SOL    HW133851   5.270   9.293   6.637 -0.6423 -0.7468  0.3687
 9330SOL    HW233852   5.200   9.351   6.772  1.0140  1.7950  0.1703
 9331SOL     OW33853   4.710   8.404   6.991  0.0390 -0.2773 -0.1106
 9331SOL    HW133854   4.712   8.503   7.004 -0.5648 -0.2650 -0.0759
 9331SOL    HW233855   4.768   8.379   6.914 -0.6152  0.2189 -0.7793
 9332SOL     OW33856   7.763   6.813   1.861 -0.5029  0.3052  0.0046
 9332SOL    HW133857   7.709   6.865   1.928 -0.5885 -0.0643  0.2239
 9332SOL    HW233858   7.709   6.802   1.777 -0.5979  0.3185  0.0631
 9333SOL     OW33859   5.940   0.207   4.647  0.1164  0.3726  0.6128
 9333SOL    HW133860   5.862   0.173   4.594  0.6548 -0.1777  0.1712
 9333SOL    HW233861   5.978   0.288   4.602  0.3548  0.1122  0.3433
 9335SOL     OW33862   3.259   6.769   2.272 -0.2949  0.9441 -0.4190
 9335SOL    HW133863   3.338   6.752   2.214 -0.9605 -2.3750 -0.4460
 9335SOL    HW233864   3.179   6.721   2.236 -0.7661 -1.0963  3.0683
 9337SOL     OW33865   3.809   6.503   7.496  0.5811 -0.4686  0.3844
 9337SOL    HW133866   3.746   6.443   7.546 -0.6492  1.6985  1.5179
 9337SOL    HW233867   3.893   6.514   7.549  0.2602 -0.1161  0.8221
 9338SOL     OW33868   8.027   9.387   6.915 -1.1534  0.6345 -0.1729
 9338SOL    HW133869   7.952   9.395   6.980 -1.1833  0.5756 -0.1997
 9338SOL    HW233870   7.992   9.394   6.822 -0.9564  1.9116 -0.1590
 9340SOL     OW33871   2.990   9.284   4.663  0.3134 -0.4945  0.1946
 9340SOL    HW133872   3.003   9.299   4.761 -0.8010  0.3184  0.2222
 9340SOL    HW233873   3.033   9.198   4.637 -0.6708 -1.4647  1.6778
 9341SOL     OW33874   1.314   7.851   3.832  0.5240  0.1742 -0.5316
 9341SOL    HW133875   1.391   7.788   3.829  0.9315  0.4706  1.9372
 9341SOL    HW233876   1.342   7.941   3.799  0.6845 -0.2479 -1.5324
 9342SOL     OW33877   6.558   3.981   2.616 -0.1740  0.3206  0.3000
 9342SOL    HW133878   6.532   3.929   2.697 -0.7942  0.9821  0.5307
 9342SOL    HW233879   6.656   3.971   2.600 -0.1844 -0.4283  0.6893
 9343SOL     OW33880   2.754   5.851   3.193  0.3682 -0.1076  0.3240
 9343SOL    HW133881   2.670   5.857   3.140  0.1245 -1.0953  0.5972
 9343SOL    HW233882   2.761   5.931   3.253  0.5432  0.9000 -1.0176
 9344SOL     OW33883   2.789   8.976   6.009  0.6261  0.6576 -0.4290
 9344SOL    HW133884   2.829   8.988   6.100 -2.4855 -0.9466  1.2301
 9344SOL    HW233885   2.844   8.911   5.957  2.4523  1.6053  0.2372
 9348SOL     OW33886   2.411   3.252   7.808  0.3219 -0.3692  0.5077
 9348SOL    HW133887   2.378   3.332   7.858  0.3275  1.3662 -2.1762
 9348SOL    HW233888   2.491   3.277   7.753  0.1535 -2.1514 -0.5876
 9349SOL     OW33889   8.841   9.287   1.093  0.4133 -0.4381  0.1484
 9349SOL    HW133890   8.855   9.282   1.192  0.5937  1.5582  0.2398
 9349SOL    HW233891   8.877   9.204   1.050  2.0198 -0.4997  1.5746
 9351SOL     OW33892   7.723   6.928   3.085 -0.4367 -0.2476  0.3120
 9351SOL    HW133893   7.796   6.879   3.037 -0.4144 -0.4038  0.5056
 9351SOL    HW233894   7.639   6.873   3.083 -0.9649  0.5738 -1.1940
 9352SOL     OW33895   2.977   4.064   0.916 -0.2605 -0.2662  0.3592
 9352SOL    HW133896   3.052   4.064   0.849  0.4814 -1.6996  1.1843
 9352SOL    HW233897   2.899   4.013   0.879 -1.0565  1.6522 -0.7095
 9353SOL     OW33898   7.260   6.211   6.868  0.1148 -0.2397  0.4153
 9353SOL    HW133899   7.301   6.270   6.798 -1.3146 -1.1789 -1.2508
 9353SOL    HW233900   7.177   6.254   6.903 -0.7309 -1.0806 -0.5390
 9354SOL     OW33901   8.683   8.729   6.030 -0.2562 -0.1508  0.0149
 9354SOL    HW133902   8.615   8.666   6.068  0.6720 -1.7931 -0.9838
 9354SOL    HW233903   8.665   8.742   5.933 -0.1487  0.7616  0.1150
 9355SOL     OW33904   1.914   8.970   2.659 -0.5516  0.2154  0.0652
 9355SOL    HW133905   1.960   8.948   2.573 -1.6802  0.6458 -0.6501
 9355SOL    HW233906   1.909   9.069   2.670  0.3979  0.1723  1.0807
 9356SOL     OW33907   3.800   7.869   2.081 -0.2280  0.0154 -0.7012
 9356SOL    HW133908   3.767   7.960   2.108  1.0452  0.5050 -0.7770
 9356SOL    HW233909   3.879   7.844   2.137 -0.5643 -1.0545 -0.6870
 9357SOL     OW33910   7.397   8.559   4.577  0.5502  0.2687  0.4101
 9357SOL    HW133911   7.490   8.547   4.540  0.2409  0.0778 -0.3191
 9357SOL    HW233912   7.336   8.591   4.504 -0.8314 -3.4058 -0.1568
 9358SOL     OW33913   5.331   9.760   3.119 -0.0783  0.3357  0.3622
 9358SOL    HW133914   5.332   9.747   3.218 -1.7441  0.2552  0.3790
 9358SOL    HW233915   5.236   9.765   3.086  0.4343 -1.3507 -1.4568
 9359SOL     OW33916   0.373   5.858   5.756  0.0500  0.8468 -0.3001
 9359SOL    HW133917   0.426   5.942   5.761  1.9659 -0.2244 -1.9608
 9359SOL    HW233918   0.425   5.784   5.799 -1.6342  0.4966  1.1823
 9360SOL     OW33919   7.338   2.125   4.491  0.1058 -0.2676 -0.1836
 9360SOL    HW133920   7.407   2.154   4.425 -0.4127 -0.2966 -0.7413
 9360SOL    HW233921   7.247   2.133   4.450 -0.2294 -0.1711  0.5669
 9362SOL     OW33922   5.773   4.973   1.510  0.2929 -0.4813  0.4716
 9362SOL    HW133923   5.841   5.046   1.521 -0.1770  0.4974 -2.5737
 9362SOL    HW233924   5.805   4.891   1.557  2.0536  0.8946  1.7880
 9363SOL     OW33925   9.866   1.623   2.796  0.5738  0.7510  0.1474
 9363SOL    HW133926   9.796   1.556   2.818  0.5733  0.5183 -0.5885
 9363SOL    HW233927   9.946   1.608   2.855  0.0306  0.9846  0.9461
 9365SOL     OW33928   7.976   6.927   0.754 -0.3967  0.4135 -0.1627
 9365SOL    HW133929   7.924   6.849   0.791 -2.7261  0.5175 -2.9849
 9365SOL    HW233930   7.985   6.997   0.825 -2.0016 -0.6536  1.1535
 9366SOL     OW33931   2.014   2.894   0.549  0.7114 -0.1950  0.4345
 9366SOL    HW133932   2.032   2.900   0.647  1.1872 -1.3945  0.4340
 9366SOL    HW233933   2.100   2.898   0.499  0.5498 -0.4943  0.1267
 9367SOL     OW33934   3.842   1.946   5.641 -0.4107  0.1115 -0.1377
 9367SOL    HW133935   3.917   1.882   5.657  0.8395  1.0130 -2.2316
 9367SOL    HW233936   3.808   1.979   5.729  1.1933 -0.8240  0.8580
 9368SOL     OW33937   8.757   2.096   0.451 -0.2275  0.2568 -0.0216
 9368SOL    HW133938   8.786   2.010   0.410  0.7996  0.8144 -0.5191
 9368SOL    HW233939   8.658   2.107   0.442 -0.1591 -0.1469 -1.3942
 9369SOL     OW33940   7.236   0.495   3.139 -0.0869  0.2478  0.6003
 9369SOL    HW133941   7.269   0.529   3.227 -0.1429  1.3477  0.2045
 9369SOL    HW233942   7.153   0.544   3.114 -0.2502 -0.2915  0.0840
 9370SOL     OW33943   7.160   3.026   3.144  0.3050  0.5887 -0.0906
 9370SOL    HW133944   7.150   3.109   3.198  0.2377  0.6394 -0.1807
 9370SOL    HW233945   7.216   3.045   3.063  1.5868  0.1833  0.6742
 9371SOL     OW33946   2.721   8.148   6.983 -0.2658 -0.7369  0.6014
 9371SOL    HW133947   2.703   8.236   6.940  0.0007 -0.7785  0.4024
 9371SOL    HW233948   2.819   8.128   6.978 -0.4180 -1.3400  0.0834
 9372SOL     OW33949   3.647   3.425   5.128  0.1368 -0.1123  0.5043
 9372SOL    HW133950   3.548   3.415   5.137 -0.2611  1.4900 -1.6886
 9372SOL    HW233951   3.679   3.493   5.195 -0.8780  2.3526 -1.4427
 9373SOL     OW33952   6.011   9.884   6.165  0.0292 -0.4540 -0.0013
 9373SOL    HW133953   6.017   9.882   6.265  0.4394  0.7000  0.0022
 9373SOL    HW233954   5.916   9.901   6.138  0.0447 -0.0374  0.2028
 9374SOL     OW33955   8.569   2.887   4.330 -0.3956 -0.3731 -0.3658
 9374SOL    HW133956   8.520   2.804   4.304 -1.0441  0.3923 -1.5886
 9374SOL    HW233957   8.511   2.967   4.316  0.8940  0.4691 -1.0386
 9375SOL     OW33958   8.832   1.302   7.161  0.2065  0.0048  0.4800
 9375SOL    HW133959   8.733   1.317   7.161  0.1820 -0.0910 -0.9213
 9375SOL    HW233960   8.855   1.236   7.232 -0.6077  0.8398  1.5356
 9376SOL     OW33961   4.194   0.546   1.744 -0.3934 -0.1834 -0.0856
 9376SOL    HW133962   4.187   0.513   1.838  1.8873 -0.5567 -0.0127
 9376SOL    HW233963   4.158   0.477   1.681  2.6571 -2.1035  0.1959
 9377SOL     OW33964   5.442   0.557   7.007 -0.2501 -0.7630  0.6657
 9377SOL    HW133965   5.359   0.500   7.008 -0.8419  0.0984  1.1664
 9377SOL    HW233966   5.416   0.653   7.011  0.7271 -0.4329 -0.5855
 9378SOL     OW33967   6.877   0.078   1.617  0.2512  0.4452  0.0508
 9378SOL    HW133968   6.791   0.027   1.616  0.5758 -0.0895 -0.7220
 9378SOL    HW233969   6.879   0.144   1.542  1.8994 -1.8906 -2.0567
 9379SOL     OW33970   7.126   9.543   5.002 -0.2052  0.6253 -0.3528
 9379SOL    HW133971   7.168   9.599   4.931  1.5142 -0.5832 -0.3200
 9379SOL    HW233972   7.115   9.449   4.968  2.1718 -0.3843  1.4715
 9380SOL     OW33973   4.611   0.857   3.348 -0.5150 -0.9251 -0.2926
 9380SOL    HW133974   4.623   0.943   3.397 -0.1267  0.4172 -2.6663
 9380SOL    HW233975   4.690   0.798   3.365  1.1428  0.8037 -1.8022
 9381SOL     OW33976   4.719   4.181   6.665 -0.1373  0.3495  0.1081
 9381SOL    HW133977   4.719   4.276   6.637  0.2698  1.3900  3.4439
 9381SOL    HW233978   4.625   4.153   6.688 -0.0672  0.3886  0.4555
 9382SOL     OW33979   8.119   4.135   3.016 -0.2703 -0.7397  0.1931
 9382SOL    HW133980   8.067   4.090   2.944  2.2818  1.0590 -2.8825
 9382SOL    HW233981   8.077   4.222   3.039 -0.1139 -0.5231 -0.3522
 9383SOL     OW33982   7.565   2.168   0.792  0.2001  0.1633  0.2195
 9383SOL    HW133983   7.528   2.152   0.700 -0.0769 -0.8730  0.5032
 9383SOL    HW233984   7.547   2.263   0.819 -1.2627 -0.0081 -0.1060
 9385SOL     OW33985   0.296   4.303   1.947 -0.4097 -0.1958 -0.1515
 9385SOL    HW133986   0.351   4.377   1.908 -1.1944 -0.9774 -2.7778
 9385SOL    HW233987   0.201   4.333   1.956 -0.6609 -0.7595 -0.8959
 9386SOL     OW33988   5.442   2.879   5.224  0.0005  0.1327  0.0595
 9386SOL    HW133989   5.378   2.806   5.201  0.3945  0.2762 -1.5724
 9386SOL    HW233990   5.392   2.961   5.250 -0.4434 -0.8223  2.2866
 9387SOL     OW33991   4.209   9.838   2.952  0.0292  0.1823  0.3700
 9387SOL    HW133992   4.207   9.849   3.051 -0.5395  1.1037  0.2554
 9387SOL    HW233993   4.149   9.762   2.926  1.0343 -0.7789  0.8188
 9388SOL     OW33994   6.429   5.133   1.359 -0.0485  0.1590  0.3991
 9388SOL    HW133995   6.387   5.210   1.311 -0.0487  1.7789  2.9393
 9388SOL    HW233996   6.357   5.078   1.402 -0.1964 -2.3032 -2.7868
 9390SOL     OW33997   8.267   1.250   6.824  0.2666 -0.0993 -0.3705
 9390SOL    HW133998   8.341   1.312   6.796  1.5823 -1.5737 -0.2549
 9390SOL    HW233999   8.264   1.245   6.924 -1.0172  1.1492 -0.3375
 9391SOL     OW34000   4.007   8.567   7.246 -0.0289 -0.3757 -0.2101
 9391SOL    HW134001   4.003   8.585   7.344 -2.2107 -1.5008 -0.0604
 9391SOL    HW234002   4.094   8.522   7.224 -0.4012 -2.0434  1.5574
 9392SOL     OW34003   0.931   6.377   1.573  0.0676 -0.0515 -0.2460
 9392SOL    HW134004   0.967   6.287   1.596 -0.3478 -0.1625 -0.0342
 9392SOL    HW234005   1.007   6.438   1.549  0.1657 -1.1599 -2.8908
 9393SOL     OW34006   9.080   3.651   6.521 -0.1054 -0.6818  0.5178
 9393SOL    HW134007   9.089   3.743   6.483 -0.4789 -1.0299 -0.4383
 9393SOL    HW234008   9.125   3.586   6.460 -1.8289 -1.4025 -0.0130
 9395SOL     OW34009   7.574   0.288   0.712  0.4136  0.1413  0.3299
 9395SOL    HW134010   7.588   0.292   0.811 -0.5686  1.1757  0.4259
 9395SOL    HW234011   7.663   0.295   0.666  0.8371  0.0246  1.1205
 9396SOL     OW34012   6.885   7.581   5.815  0.0152  0.2767 -0.5145
 9396SOL    HW134013   6.866   7.494   5.860  0.3368  0.9986  1.0427
 9396SOL    HW234014   6.982   7.585   5.788  0.2042  0.5005  0.1932
 9397SOL     OW34015   5.769   4.081   1.429 -0.0452 -0.6483 -0.5284
 9397SOL    HW134016   5.751   3.988   1.397 -0.4918 -0.4857 -0.7607
 9397SOL    HW234017   5.686   4.136   1.419  0.2757 -0.1714 -0.5785
 9399SOL     OW34018   9.318   9.210   2.224  0.0949  0.2847 -0.6150
 9399SOL    HW134019   9.219   9.216   2.211 -0.0927 -0.1422  0.6191
 9399SOL    HW234020   9.345   9.262   2.305  0.6343 -1.2183  0.1745
 9400SOL     OW34021   2.300   1.554   3.082 -0.1455 -0.0053  0.3443
 9400SOL    HW134022   2.247   1.471   3.096 -2.1549  1.2439  0.3359
 9400SOL    HW234023   2.368   1.539   3.011 -0.3466 -1.7069  0.5086
 9402SOL     OW34024   0.024   0.931   3.107  0.1688  0.1393  0.2068
 9402SOL    HW134025   0.018   1.004   3.175  0.7766 -0.1086  0.5241
 9402SOL    HW234026   0.003   0.843   3.150  1.2610 -0.1117  0.2326
 9403SOL     OW34027   9.829   9.843   4.308  0.0732 -0.0682  0.1026
 9403SOL    HW134028   9.896   9.867   4.238 -0.4660 -0.7415 -0.6612
 9403SOL    HW234029   9.812   9.922   4.367 -0.3075  0.8535 -1.2274
 9405SOL     OW34030   1.843   8.212   4.031  0.0899  0.7191  0.3042
 9405SOL    HW134031   1.790   8.132   4.058 -0.2039  0.7845 -0.0732
 9405SOL    HW234032   1.780   8.282   3.995  0.4985  0.5499 -0.7599
 9406SOL     OW34033   0.092   3.440   3.387 -0.4853  0.2145 -0.4304
 9406SOL    HW134034   0.134   3.352   3.409 -0.7880  0.0047 -0.6727
 9406SOL    HW234035   0.042   3.432   3.300  0.0709  0.8190 -0.8152
 9409SOL     OW34036   6.851   5.461   7.609 -0.0818 -0.2275 -0.5561
 9409SOL    HW134037   6.854   5.544   7.664  1.3983 -0.2056 -0.6364
 9409SOL    HW234038   6.935   5.454   7.555  1.6784 -3.7385  2.3920
 9411SOL     OW34039   0.565   4.257   1.951  0.0073  0.0693  0.0036
 9411SOL    HW134040   0.472   4.253   1.988 -0.3882  1.3004 -0.8234
 9411SOL    HW234041   0.592   4.166   1.919 -1.9714  0.2464 -2.3050
 9412SOL     OW34042   9.708   8.376   5.142 -0.0200 -0.3465  0.3151
 9412SOL    HW134043   9.618   8.392   5.101  0.8897  1.0254 -1.2249
 9412SOL    HW234044   9.716   8.430   5.225 -0.3233  0.1659  0.0170
 9413SOL     OW34045   4.509   0.920   6.372  0.3655  0.4401  0.0907
 9413SOL    HW134046   4.590   0.903   6.428  0.5147  0.9892  0.0530
 9413SOL    HW234047   4.536   0.924   6.276  0.6482  2.6877  0.2401
 9414SOL     OW34048   4.132   5.280   7.063 -0.0073  0.2597  0.3328
 9414SOL    HW134049   4.189   5.313   6.987 -0.0622 -0.2545  0.0674
 9414SOL    HW234050   4.165   5.320   7.148  0.8686 -0.1544  0.2017
 9415SOL     OW34051   0.755   7.191   0.114  0.5358  0.0666  0.4532
 9415SOL    HW134052   0.787   7.163   0.024  0.1469  0.1219  0.2938
 9415SOL    HW234053   0.722   7.285   0.110 -2.1815 -0.8648 -0.0482
 9416SOL     OW34054   3.771   3.728   0.329 -0.1829 -0.5077 -1.0467
 9416SOL    HW134055   3.700   3.714   0.399  1.4773 -0.7015  0.6309
 9416SOL    HW234056   3.817   3.641   0.311  0.8753  0.0005 -0.7763
 9418SOL     OW34057   7.940   6.765   2.991  0.3205 -0.2377 -0.4116
 9418SOL    HW134058   7.922   6.704   3.068  1.6770  0.4632  0.4887
 9418SOL    HW234059   7.921   6.717   2.906 -0.7607 -1.1797  0.3455
 9419SOL     OW34060   3.420   9.607   4.553  0.0149 -0.5701  0.5515
 9419SOL    HW134061   3.506   9.649   4.527 -0.2257  0.0688  0.7687
 9419SOL    HW234062   3.404   9.621   4.651  0.0098 -1.3109  0.6599
 9420SOL     OW34063   9.287   7.646   4.670  0.0554 -0.0481  0.1462
 9420SOL    HW134064   9.264   7.741   4.650  2.6081  0.6206  0.2824
 9420SOL    HW234065   9.355   7.613   4.605  0.8945 -1.0559  1.5045
 9421SOL     OW34066   8.245   4.205   1.723  0.6167 -0.7487  0.1160
 9421SOL    HW134067   8.274   4.249   1.638  0.5439 -0.8732  0.0270
 9421SOL    HW234068   8.321   4.151   1.761  0.5748 -0.8829  0.0075
 9422SOL     OW34069   1.872   8.615   7.157  0.1262  0.2999 -0.2481
 9422SOL    HW134070   1.840   8.540   7.098  1.1002 -1.0283  0.8897
 9422SOL    HW234071   1.889   8.580   7.249  2.2750  1.5530 -0.1522
 9423SOL     OW34072   9.875   2.579   2.327 -0.2324  0.0375 -0.0162
 9423SOL    HW134073   9.852   2.591   2.423 -1.3418  0.4189 -0.3212
 9423SOL    HW234074   9.876   2.669   2.282 -1.5834 -0.3102 -0.7690
 9424SOL     OW34075   8.275   1.539   7.277  0.1552 -0.5441 -0.7058
 9424SOL    HW134076   8.358   1.578   7.316  0.7419 -0.2014 -2.2791
 9424SOL    HW234077   8.196   1.593   7.307  0.5987 -0.2383 -0.0655
 9425SOL     OW34078   8.447   0.134   6.741 -0.0431 -0.4057  0.2207
 9425SOL    HW134079   8.408   0.043   6.757  0.1667 -0.6314 -0.5533
 9425SOL    HW234080   8.374   0.196   6.713  0.1294 -0.8021 -1.1185
 9426SOL     OW34081   3.532   3.292   4.788 -0.0741  0.5605 -0.3258
 9426SOL    HW134082   3.623   3.331   4.777  0.2647 -0.6297 -1.9354
 9426SOL    HW234083   3.464   3.364   4.779  0.7193  1.7556  2.5232
 9427SOL     OW34084   1.756   5.328   3.017 -0.4398  0.3142  0.0349
 9427SOL    HW134085   1.850   5.360   3.009 -0.1448 -0.6041 -0.2416
 9427SOL    HW234086   1.717   5.360   3.103  0.7725 -0.9397  1.0670
 9433SOL     OW34087   9.720   8.161   3.440 -0.0100 -0.2790 -0.0455
 9433SOL    HW134088   9.776   8.080   3.423  0.2099  0.3332 -2.5352
 9433SOL    HW234089   9.736   8.229   3.368 -1.0537  1.5143  1.3481
 9434SOL     OW34090   0.172   1.838   1.037 -0.0606 -0.4896  0.5737
 9434SOL    HW134091   0.222   1.890   0.967 -0.7555  0.0314  0.4536
 9434SOL    HW234092   0.078   1.823   1.006 -0.4947  0.1032  1.5755
 9436SOL     OW34093   5.991   2.910   2.013 -0.1006 -0.0650 -0.3514
 9436SOL    HW134094   6.079   2.951   2.036 -0.2365  0.0272  0.0089
 9436SOL    HW234095   5.994   2.812   2.034 -0.9613  0.4224  2.2004
 9437SOL     OW34096   2.853   8.355   4.669 -0.5773  0.6553 -0.3075
 9437SOL    HW134097   2.848   8.450   4.636  1.2966  0.7177 -0.4392
 9437SOL    HW234098   2.936   8.343   4.724 -0.2909 -1.1660 -1.1128
 9438SOL     OW34099   8.050   0.950   0.078 -0.0672 -0.0857  0.0396
 9438SOL    HW134100   8.074   0.926   0.172 -0.3723 -0.1532  0.1004
 9438SOL    HW234101   8.013   0.870   0.031  1.8085 -0.5335 -0.7075
 9439SOL     OW34102   1.383   1.273   0.377 -0.1139 -0.2444 -0.2403
 9439SOL    HW134103   1.382   1.174   0.362 -0.6291 -0.4055  0.8566
 9439SOL    HW234104   1.293   1.311   0.354  0.3915  0.1360 -1.6806
 9440SOL     OW34105   0.614   9.532   1.591  0.5400 -0.4293 -0.0111
 9440SOL    HW134106   0.704   9.546   1.632  0.5504 -0.6885  0.0514
 9440SOL    HW234107   0.552   9.494   1.659  0.3069  0.0125  0.0224
 9442SOL     OW34108   7.811   4.624   2.023  0.0613 -0.2604  0.0362
 9442SOL    HW134109   7.746   4.696   2.046  0.6189  0.0213  0.7917
 9442SOL    HW234110   7.792   4.543   2.079 -0.0754 -0.4168 -0.2402
 9443SOL     OW34111   3.944   8.129   5.874  0.5556 -0.3705 -0.3214
 9443SOL    HW134112   3.859   8.182   5.865  0.2133 -1.1252 -1.5592
 9443SOL    HW234113   4.021   8.185   5.843  0.2165 -0.5055 -1.4351
 9446SOL     OW34114   5.188   4.472   0.322 -0.0448 -0.2778 -0.6895
 9446SOL    HW134115   5.285   4.483   0.301  0.2361  0.1729  0.7477
 9446SOL    HW234116   5.177   4.468   0.422 -1.7649  2.2349 -0.7588
 9449SOL     OW34117   0.275   4.265   2.733  0.3412  0.5898 -0.1979
 9449SOL    HW134118   0.210   4.196   2.700  3.9403 -2.1748 -1.8589
 9449SOL    HW234119   0.236   4.312   2.812 -3.7802 -0.6940 -1.3265
 9450SOL     OW34120   1.356   2.396   1.176 -0.0191  0.1438  0.1311
 9450SOL    HW134121   1.288   2.324   1.191  0.2556 -0.0940  0.2261
 9450SOL    HW234122   1.447   2.361   1.198  0.3740 -0.1526 -1.8345
 9451SOL     OW34123   5.508   7.655   4.304 -0.8497 -0.4506 -0.4418
 9451SOL    HW134124   5.427   7.659   4.246 -2.0077  0.5821  1.2137
 9451SOL    HW234125   5.522   7.561   4.336 -0.7684 -0.8328 -1.5613
 9452SOL     OW34126   3.907   4.535   7.607  0.0102 -0.1744  0.0682
 9452SOL    HW134127   3.903   4.584   7.694 -0.0785  0.5380 -0.3269
 9452SOL    HW234128   3.984   4.472   7.607 -0.8770 -1.2662  1.2197
 9453SOL     OW34129   0.273   0.560   6.277 -0.1522  0.0892 -0.4261
 9453SOL    HW134130   0.174   0.555   6.280 -0.1218 -1.7361 -1.2613
 9453SOL    HW234131   0.311   0.521   6.361 -0.1275  0.0433 -0.4586
 9454SOL     OW34132   1.476   1.929   7.149 -0.3791  0.2468 -0.4016
 9454SOL    HW134133   1.457   1.937   7.246 -2.4634 -0.2026 -0.7518
 9454SOL    HW234134   1.573   1.911   7.135 -0.2663 -0.7608  1.6394
 9455SOL     OW34135   8.481   5.525   2.939  0.2641  0.3965 -0.5831
 9455SOL    HW134136   8.452   5.618   2.963 -0.7681 -0.1861  0.4359
 9455SOL    HW234137   8.415   5.485   2.875 -0.8362 -0.6822  1.2082
 9456SOL     OW34138   6.765   5.359   0.282 -0.0903 -0.7214 -0.3967
 9456SOL    HW134139   6.780   5.362   0.183  0.4437 -0.6549 -0.3113
 9456SOL    HW234140   6.666   5.364   0.301 -0.1059  1.2320 -0.8490
 9457SOL     OW34141   8.821   7.355   6.717 -0.1847 -0.1658 -0.1303
 9457SOL    HW134142   8.844   7.293   6.792 -1.0242 -0.9072 -0.4754
 9457SOL    HW234143   8.904   7.379   6.667  0.3709  0.2695  0.9827
 9458SOL     OW34144   6.601   5.757   1.241  0.1882 -0.1867 -0.0949
 9458SOL    HW134145   6.529   5.749   1.173 -1.0565  0.8080  1.0891
 9458SOL    HW234146   6.676   5.813   1.204  0.3456 -1.1713 -1.3005
 9459SOL     OW34147   3.267   9.153   1.833  0.4133 -0.0472  0.5750
 9459SOL    HW134148   3.252   9.152   1.932 -0.3406 -1.7873  0.4703
 9459SOL    HW234149   3.266   9.247   1.799  0.7879  0.5629  2.2347
 9460SOL     OW34150   0.196   6.681   5.448 -0.0741  0.0397 -0.1962
 9460SOL    HW134151   0.132   6.751   5.416 -1.0110 -1.1192 -0.8974
 9460SOL    HW234152   0.146   6.611   5.500  0.7821 -0.3401  0.1299
 9462SOL     OW34153   9.546   7.640   2.228 -0.6081  0.1929 -0.2420
 9462SOL    HW134154   9.462   7.651   2.281 -1.4732  0.9815 -1.7511
 9462SOL    HW234155   9.566   7.543   2.215 -1.2560  0.0087  0.1303
 9463SOL     OW34156   1.780   0.896   4.484  0.1292  0.3462  0.0539
 9463SOL    HW134157   1.831   0.936   4.407 -0.3385  1.0906  0.1242
 9463SOL    HW234158   1.774   0.797   4.472  0.7664  0.3666 -0.4481
 9466SOL     OW34159   6.631   8.000   3.211  0.1266  0.4169 -0.3950
 9466SOL    HW134160   6.693   7.928   3.243 -0.3305  0.3120  0.2858
 9466SOL    HW234161   6.536   7.969   3.224 -0.0634  0.4785 -1.6337
 9467SOL     OW34162   1.455   7.443   7.278 -0.5069 -0.3838 -0.2744
 9467SOL    HW134163   1.408   7.524   7.313 -1.0615 -0.9047  0.1711
 9467SOL    HW234164   1.541   7.472   7.235 -0.1569  0.3317  0.8747
 9468SOL     OW34165   6.897   9.798   4.461  0.2279 -0.0937  0.6113
 9468SOL    HW134166   6.856   9.807   4.370  1.4738 -2.1083 -0.1859
 9468SOL    HW234167   6.825   9.797   4.530 -0.9374 -1.2872 -0.5769
 9469SOL     OW34168   4.046   5.913   2.297 -0.2631 -0.2329  0.6845
 9469SOL    HW134169   4.142   5.902   2.325  0.5474  1.1569 -1.4794
 9469SOL    HW234170   4.037   5.888   2.201 -1.6652  1.6644  0.3073
 9471SOL     OW34171   7.720   0.382   7.750 -0.3012  0.1402  0.1636
 9471SOL    HW134172   7.637   0.415   7.795 -0.5232 -0.8877  0.5270
 9471SOL    HW234173   7.801   0.420   7.796 -0.5670  2.5410 -1.2757
 9474SOL     OW34174   2.029   0.960   5.212 -0.4226 -0.4565 -0.4273
 9474SOL    HW134175   2.078   1.025   5.153  1.8612 -0.2540  1.6249
 9474SOL    HW234176   2.029   0.870   5.169  1.8125 -0.4638 -0.4811
 9475SOL     OW34177   2.383   4.339   2.696 -0.0760 -0.5234 -0.4418
 9475SOL    HW134178   2.345   4.247   2.707  1.0661 -1.2244 -2.0586
 9475SOL    HW234179   2.318   4.396   2.646 -2.5282  0.8041  3.9968
 9476SOL     OW34180   4.081   8.171   0.578 -0.2775  0.2821 -0.6411
 9476SOL    HW134181   4.059   8.083   0.621 -1.3073  0.5243 -0.6606
 9476SOL    HW234182   4.176   8.170   0.547 -0.0929 -0.5940 -0.0727
 9479SOL     OW34183   1.247   3.268   4.026 -0.1959 -0.2715 -0.0706
 9479SOL    HW134184   1.338   3.227   4.024  0.1134  0.4512 -1.3361
 9479SOL    HW234185   1.235   3.317   4.112  0.6440 -0.3227  0.0817
 9480SOL     OW34186   5.784   7.869   6.601  0.1951  0.1593  0.0960
 9480SOL    HW134187   5.868   7.921   6.583  0.7415 -0.6584  0.2209
 9480SOL    HW234188   5.767   7.866   6.700 -0.1521  0.5894  0.0485
 9481SOL     OW34189   0.800   5.666   2.778 -0.3226 -0.2540 -0.1042
 9481SOL    HW134190   0.722   5.647   2.838  1.3838 -0.3431  2.1484
 9481SOL    HW234191   0.872   5.599   2.796 -0.3052 -1.1410 -3.2750
 9484SOL     OW34192   2.784   4.703   5.070  0.3583  0.1075 -0.2496
 9484SOL    HW134193   2.823   4.732   5.157  1.9426 -0.6746 -0.6911
 9484SOL    HW234194   2.843   4.635   5.027 -1.5378 -1.1888 -0.8846
 9485SOL     OW34195   5.196   6.054   1.342 -0.3135 -0.7025  0.4732
 9485SOL    HW134196   5.128   5.997   1.389 -0.5922  0.3151  1.3115
 9485SOL    HW234197   5.236   6.002   1.267 -1.4586 -1.5914  0.4592
 9486SOL     OW34198   2.799   6.162   7.625  0.3803 -0.4709 -0.0415
 9486SOL    HW134199   2.876   6.149   7.689  0.3213  1.4724  0.4607
 9486SOL    HW234200   2.808   6.097   7.549  1.3085 -1.7621  1.1298
 9487SOL     OW34201   1.538   7.017   6.910 -0.3139  0.3377 -1.0949
 9487SOL    HW134202   1.524   6.926   6.872  0.1322 -0.1296 -0.1559
 9487SOL    HW234203   1.453   7.049   6.952  0.1877 -0.6567  0.7033
 9488SOL     OW34204   3.315   4.512   2.319 -0.2374  0.0282  0.9524
 9488SOL    HW134205   3.307   4.596   2.373 -0.9065 -0.3121  1.3876
 9488SOL    HW234206   3.224   4.485   2.286  0.0908 -0.0768  0.1322
 9489SOL     OW34207   2.191   9.429   7.146 -0.2203 -0.0969  0.1624
 9489SOL    HW134208   2.120   9.388   7.203  0.7429 -1.3392  0.5055
 9489SOL    HW234209   2.223   9.362   7.079  0.6125  0.4498  0.0075
 9491SOL     OW34210   9.625   0.994   7.867  0.1731  0.6983  0.4196
 9491SOL    HW134211   9.705   0.981   7.809  1.2481  0.6550  1.8784
 9491SOL    HW234212   9.563   1.060   7.825  0.8084  0.4627 -0.8905
 9492SOL     OW34213   5.693   2.756   4.922 -0.0528  0.0405 -0.1752
 9492SOL    HW134214   5.680   2.724   4.828  1.6932 -1.0313 -0.0803
 9492SOL    HW234215   5.643   2.696   4.985 -0.7861  0.4404 -0.3730
 9493SOL     OW34216   0.163   0.330   0.848  0.3107 -0.6671 -0.1834
 9493SOL    HW134217   0.141   0.327   0.750  0.0184 -0.2260 -0.1296
 9493SOL    HW234218   0.262   0.328   0.859  0.3377 -1.2007 -0.4716
 9494SOL     OW34219   8.305   9.378   6.333 -0.1944  0.0478  0.0390
 9494SOL    HW134220   8.308   9.368   6.433 -0.3936  1.6145  0.2037
 9494SOL    HW234221   8.310   9.474   6.309  0.3142 -0.3537 -1.4959
 9495SOL     OW34222   1.842   7.479   0.459  0.3793 -0.4022 -0.5349
 9495SOL    HW134223   1.923   7.535   0.474  0.6327 -0.5161 -1.4183
 9495SOL    HW234224   1.869   7.391   0.420 -0.2351 -0.1017 -1.6720
 9496SOL     OW34225   5.849   2.518   1.060 -0.6340  0.1704 -0.0076
 9496SOL    HW134226   5.812   2.610   1.057 -3.3489 -0.8876 -0.0694
 9496SOL    HW234227   5.857   2.482   0.967 -1.3185 -0.3297  0.1268
 9497SOL     OW34228   4.169   2.836   1.023  0.5951 -0.0967 -0.2062
 9497SOL    HW134229   4.245   2.860   0.962  0.9148 -0.7625 -0.0722
 9497SOL    HW234230   4.083   2.836   0.972  0.2456  3.5216  0.2275
 9498SOL     OW34231   5.466   9.432   5.914 -0.1824  0.4254  0.2483
 9498SOL    HW134232   5.465   9.510   5.976 -0.5068  0.5741  0.0593
 9498SOL    HW234233   5.551   9.380   5.926 -0.4473  0.1870  1.1496
 9499SOL     OW34234   5.711   2.983   0.897  0.0124 -0.3767  0.0552
 9499SOL    HW134235   5.666   3.071   0.880  0.3960 -0.4278 -1.2951
 9499SOL    HW234236   5.706   2.926   0.815  1.3167 -0.9292  0.3362
 9500SOL     OW34237   6.208   1.378   4.812  0.1705  0.4211 -0.2609
 9500SOL    HW134238   6.119   1.394   4.768  1.3697  3.6709 -1.6764
 9500SOL    HW234239   6.276   1.355   4.742  0.7509 -0.5884  0.6363
 9501SOL     OW34240   3.750   3.677   3.123  0.0865 -0.1572  0.3167
 9501SOL    HW134241   3.843   3.676   3.088  0.1347  0.5754  0.4074
 9501SOL    HW234242   3.732   3.766   3.167 -0.9662  0.0836 -0.5838
 9502SOL     OW34243   2.262   7.012   4.363 -0.1324 -0.0517 -0.3575
 9502SOL    HW134244   2.278   6.916   4.337 -0.7760  0.1975 -1.7209
 9502SOL    HW234245   2.264   7.020   4.462  3.1949 -0.9154 -0.2810
 9503SOL     OW34246   2.654   1.143   6.351  0.2386 -0.1007  0.5182
 9503SOL    HW134247   2.638   1.136   6.449  0.4549  1.2367  0.6544
 9503SOL    HW234248   2.669   1.239   6.326  1.7776 -0.5935 -0.5638
 9504SOL     OW34249   1.699   5.167   7.902  0.1019 -0.6114  0.6844
 9504SOL    HW134250   1.718   5.146   7.998 -1.0988 -1.8576  0.6624
 9504SOL    HW234251   1.676   5.264   7.894  1.3254 -0.2397  1.4753
 9505SOL     OW34252   5.523   0.217   2.973  0.3299 -0.0908 -0.3583
 9505SOL    HW134253   5.448   0.255   2.919 -2.1819 -4.0848  0.0833
 9505SOL    HW234254   5.521   0.254   3.065 -2.2733 -1.4366  0.1724
 9506SOL     OW34255   3.133   8.363   1.505 -0.4072 -0.0445  0.4094
 9506SOL    HW134256   3.192   8.322   1.435  0.6037 -0.8824  1.7419
 9506SOL    HW234257   3.096   8.450   1.471 -1.5734 -1.4171 -1.9571
 9507SOL     OW34258   3.555   1.892   6.038  0.6589 -0.5292 -0.0435
 9507SOL    HW134259   3.485   1.963   6.036  1.1953  0.0305  0.7339
 9507SOL    HW234260   3.519   1.809   6.079  0.0772 -0.6558 -0.8056
 9509SOL     OW34261   3.985   9.860   6.066  0.0580  1.1068 -0.5710
 9509SOL    HW134262   3.948   9.769   6.079  0.0565  1.2091  0.1550
 9509SOL    HW234263   4.012   9.872   5.970 -1.3421  0.8769 -0.9934
 9510SOL     OW34264   3.503   6.582   2.672 -0.5704 -0.3950  0.2758
 9510SOL    HW134265   3.405   6.560   2.676 -0.9438  1.1548  0.0722
 9510SOL    HW234266   3.535   6.575   2.578 -0.8895  0.7325  0.0770
 9511SOL     OW34267   1.427   4.009   1.131  0.0260  0.8936  0.0938
 9511SOL    HW134268   1.456   4.103   1.111  0.6709  0.4259 -1.2478
 9511SOL    HW234269   1.493   3.946   1.092 -1.4716 -0.1657 -0.7540
 9512SOL     OW34270   1.133   1.404   7.901  0.4814  0.0874 -0.0398
 9512SOL    HW134271   1.052   1.383   7.956 -0.4266 -0.9152 -1.7042
 9512SOL    HW234272   1.212   1.354   7.937  0.1076  0.1611  0.8954
 9513SOL     OW34273   0.744   1.761   6.697  0.2977  0.7754 -0.1867
 9513SOL    HW134274   0.841   1.740   6.684  0.4077  1.1006  0.1103
 9513SOL    HW234275   0.695   1.677   6.724  0.9622  1.1362  2.2520
 9514SOL     OW34276   9.466   6.745   4.716  0.1688  0.4388 -0.5295
 9514SOL    HW134277   9.528   6.807   4.668  0.7827 -0.0450 -0.3682
 9514SOL    HW234278   9.395   6.798   4.763  0.9424  1.0493 -0.0395
 9515SOL     OW34279   3.920   0.486   3.538  0.0107 -0.4290  0.5091
 9515SOL    HW134280   3.936   0.560   3.473 -2.8737 -0.7152 -0.6096
 9515SOL    HW234281   3.879   0.524   3.621  0.1358 -0.5428  0.6216
 9516SOL     OW34282   0.490   8.035   4.675  0.3724  0.1378  0.0699
 9516SOL    HW134283   0.571   8.094   4.666  0.5613  0.0694  1.2610
 9516SOL    HW234284   0.414   8.075   4.625  0.9671  0.5408 -0.5194
 9517SOL     OW34285   6.891   8.143   2.324  0.4393  0.0232  0.0957
 9517SOL    HW134286   6.864   8.227   2.370 -0.0429  0.0099 -0.1654
 9517SOL    HW234287   6.813   8.104   2.276  1.1774  0.6444 -1.6735
 9518SOL     OW34288   2.598   5.273   7.759  0.4438 -0.1080 -0.3483
 9518SOL    HW134289   2.587   5.194   7.698  0.2948  0.1081 -0.6011
 9518SOL    HW234290   2.646   5.346   7.710  1.5835 -0.4462  0.2317
 9519SOL     OW34291   9.878   3.232   2.926  0.1825  0.4391 -0.2189
 9519SOL    HW134292   9.842   3.149   2.969 -0.0018  0.8384  0.4055
 9519SOL    HW234293   9.940   3.207   2.851  1.1909 -0.2733  0.8310
 9520SOL     OW34294   9.965   9.772   6.303 -0.2580  0.3748  0.0484
 9520SOL    HW134295  10.015   9.697   6.345  1.5505 -0.1482 -2.8248
 9520SOL    HW234296   9.881   9.738   6.261 -1.1872  0.6032  1.6802
 9523SOL     OW34297   4.324   2.501   1.203  0.4139 -0.3125  0.2288
 9523SOL    HW134298   4.273   2.561   1.265 -0.7119 -0.7203 -0.2698
 9523SOL    HW234299   4.280   2.502   1.113  2.2328  0.5339 -0.6685
 9524SOL     OW34300   3.780   8.030   4.878  0.3528  0.4365 -0.2785
 9524SOL    HW134301   3.752   8.115   4.921  0.3596  0.8588 -1.1024
 9524SOL    HW234302   3.869   8.001   4.915  0.2130  0.6346  0.2070
 9526SOL     OW34303   9.173   9.639   5.284  0.3542 -0.4752 -0.2706
 9526SOL    HW134304   9.104   9.711   5.277  0.3418 -0.2843  1.5213
 9526SOL    HW234305   9.207   9.617   5.193  1.4179  2.8214 -0.7567
 9527SOL     OW34306   8.966   8.199   2.253  0.8825  0.4417  0.0457
 9527SOL    HW134307   8.975   8.102   2.228  1.7201  0.6552 -0.5348
 9527SOL    HW234308   8.949   8.252   2.170 -0.6345  0.6677  0.5047
 9528SOL     OW34309   4.051   4.581   2.698  0.0900  0.1253  0.3022
 9528SOL    HW134310   4.081   4.673   2.723  0.7931  0.0094 -0.1030
 9528SOL    HW234311   4.056   4.522   2.778 -1.0401  0.6072  0.7372
 9529SOL     OW34312   7.430   1.517   4.906  0.2423  0.8818 -0.0410
 9529SOL    HW134313   7.407   1.608   4.870 -1.5947 -0.1236 -1.4946
 9529SOL    HW234314   7.408   1.448   4.837  1.6617 -0.6700  1.0405
 9530SOL     OW34315   4.059   3.450   2.153 -0.2384  0.4177 -0.4224
 9530SOL    HW134316   4.086   3.534   2.199 -1.8434  0.3210  0.7267
 9530SOL    HW234317   4.116   3.374   2.185 -0.8154  0.5035  0.8608
 9531SOL     OW34318   6.578   5.732   2.234  0.1886 -0.2826  0.0723
 9531SOL    HW134319   6.550   5.752   2.328 -1.4673 -2.0482 -0.0108
 9531SOL    HW234320   6.497   5.723   2.176  1.1536 -0.1910 -1.3274
 9532SOL     OW34321   3.348   5.922   1.203  0.7792 -0.3150  0.0885
 9532SOL    HW134322   3.357   5.823   1.207  2.7189 -0.1385  1.1510
 9532SOL    HW234323   3.393   5.956   1.120  1.1744 -0.2508  0.3234
 9533SOL     OW34324   4.089   1.052   2.177  0.6645  0.8474  0.0879
 9533SOL    HW134325   4.112   1.149   2.169  0.7708  0.9127  1.1163
 9533SOL    HW234326   3.995   1.043   2.211  0.5720  0.5831 -0.2314
 9534SOL     OW34327   3.762   7.401   0.948  0.7886 -0.3588  0.0340
 9534SOL    HW134328   3.861   7.398   0.934  0.5159 -0.0565 -2.1673
 9534SOL    HW234329   3.742   7.398   1.046  2.8821 -2.9049  0.4491
 9535SOL     OW34330   3.493   9.694   2.200 -0.1067 -0.2033  0.2203
 9535SOL    HW134331   3.404   9.732   2.225  0.0592 -1.1990  2.5235
 9535SOL    HW234332   3.522   9.629   2.271  2.4170  0.0558 -0.5196
 9536SOL     OW34333   8.628   5.199   2.577  0.2972  0.0057  0.1379
 9536SOL    HW134334   8.705   5.246   2.620 -0.1664  1.6981 -0.8484
 9536SOL    HW234335   8.661   5.149   2.496  0.5439 -0.2027  0.3648
 9537SOL     OW34336   3.030   8.256   6.835  0.2248 -0.8753 -0.6771
 9537SOL    HW134337   2.938   8.260   6.797 -0.2185 -0.4100  0.4327
 9537SOL    HW234338   3.029   8.204   6.920  0.4822  1.3392  0.7274
 9538SOL     OW34339   3.713   4.062   0.078 -0.0243  0.3921 -0.0182
 9538SOL    HW134340   3.764   4.050   0.163 -0.4543  2.5158  0.5621
 9538SOL    HW234341   3.664   3.977   0.055  0.5622 -0.3635  1.5356
 9540SOL     OW34342   2.796   7.845   6.078  0.1583  0.3751  0.4054
 9540SOL    HW134343   2.776   7.942   6.092  2.0909  0.7622  0.6809
 9540SOL    HW234344   2.713   7.797   6.049 -0.1529  2.6576 -2.6602
 9541SOL     OW34345   7.359   7.886   7.251 -0.4787 -0.7714 -0.3184
 9541SOL    HW134346   7.439   7.896   7.193 -0.2212 -0.3385  0.1066
 9541SOL    HW234347   7.316   7.975   7.265 -0.3407 -0.8155  0.4211
 9542SOL     OW34348   8.857   0.763   6.412  0.1463  0.5274 -0.6326
 9542SOL    HW134349   8.865   0.773   6.511 -0.1803  0.0724 -0.5631
 9542SOL    HW234350   8.766   0.729   6.389  0.0582  1.0886 -1.1202
 9545SOL     OW34351   1.251   4.231   2.061 -0.1882 -0.2274 -0.6460
 9545SOL    HW134352   1.313   4.309   2.065 -2.2624  1.4570 -0.2823
 9545SOL    HW234353   1.264   4.174   2.143 -1.5144  2.0273  1.2042
 9546SOL     OW34354   0.078   4.944   5.535 -0.1467 -0.0296  0.7379
 9546SOL    HW134355   0.157   4.905   5.582  0.8789 -0.2818 -1.1885
 9546SOL    HW234356   0.040   5.019   5.591  2.1584  0.9038  1.1074
 9548SOL     OW34357   5.652   0.500   1.616 -0.1921  0.1423 -0.4630
 9548SOL    HW134358   5.697   0.560   1.549  0.6722 -0.6101 -0.5753
 9548SOL    HW234359   5.722   0.449   1.667 -0.7884  1.6027  1.8788
 9549SOL     OW34360   3.933   3.953   0.326 -0.0115 -0.1241 -0.0334
 9549SOL    HW134361   3.860   4.016   0.353 -1.5970 -1.3044 -1.4650
 9549SOL    HW234362   3.897   3.860   0.321  1.9666 -0.9570  0.6779
 9550SOL     OW34363   9.391   0.526   0.039 -0.0784 -0.4727  0.3443
 9550SOL    HW134364   9.345   0.539  -0.049 -0.0468  0.0551  0.3995
 9550SOL    HW234365   9.392   0.613   0.088 -0.1752 -0.7867  0.9045
 9551SOL     OW34366   6.701   1.108   6.833 -0.4168  0.5450  0.6695
 9551SOL    HW134367   6.786   1.077   6.789 -2.2879 -1.8791 -1.3294
 9551SOL    HW234368   6.722   1.184   6.895  3.2563 -0.2177  0.4667
 9552SOL     OW34369   3.550   6.689   4.757  0.1135 -0.1337  0.1358
 9552SOL    HW134370   3.650   6.688   4.760  0.1499 -2.9490 -0.8701
 9552SOL    HW234371   3.520   6.754   4.687  1.2641 -0.0599 -0.3006
 9553SOL     OW34372   5.314   5.132   1.396  0.5057 -0.5668 -0.3637
 9553SOL    HW134373   5.327   5.094   1.487 -1.6077  0.7333  0.5117
 9553SOL    HW234374   5.325   5.231   1.399 -0.6805 -0.3967 -1.2932
 9554SOL     OW34375   1.905   0.898   0.970  0.1226 -0.1196  0.2677
 9554SOL    HW134376   1.972   0.824   0.980 -0.9605 -0.8996  1.9355
 9554SOL    HW234377   1.938   0.980   1.016 -0.2378 -0.6395  1.4863
 9555SOL     OW34378   2.678   9.527   7.512 -0.0625 -0.0709 -0.3597
 9555SOL    HW134379   2.638   9.619   7.508  1.2874  0.5891  0.9633
 9555SOL    HW234380   2.661   9.480   7.426  0.6620  2.0362 -1.6996
 9557SOL     OW34381   0.167   6.126   6.845 -0.7432 -0.6310  0.2749
 9557SOL    HW134382   0.211   6.198   6.898 -0.9881 -0.9261  0.8982
 9557SOL    HW234383   0.125   6.060   6.908  1.0120 -2.2979 -0.2335
 9559SOL     OW34384   1.430   9.921   7.263  0.1924  0.6642 -0.2834
 9559SOL    HW134385   1.408   9.871   7.179 -2.4078  1.7584 -0.2813
 9559SOL    HW234386   1.468  10.010   7.241 -1.2233  1.2669 -0.3184
 9560SOL     OW34387   2.951   5.184   7.455  0.0828  0.2480 -0.0575
 9560SOL    HW134388   2.976   5.099   7.502 -1.0783 -0.0661  0.0118
 9560SOL    HW234389   2.903   5.162   7.370  0.7287  0.8314 -0.5801
 9561SOL     OW34390   8.187   0.985   7.424  0.3245 -0.2410  0.8456
 9561SOL    HW134391   8.170   0.979   7.522  1.1584 -1.9327  0.8981
 9561SOL    HW234392   8.278   1.024   7.409  0.5709 -0.8547  0.7561
 9562SOL     OW34393   1.186   3.776   3.485  0.3211  0.3419  0.0245
 9562SOL    HW134394   1.100   3.747   3.443 -0.2955  3.2151 -0.8388
 9562SOL    HW234395   1.262   3.738   3.433 -0.4545  0.1415 -0.9976
 9564SOL     OW34396   8.324   7.567   6.151  0.1320 -0.5172  0.3706
 9564SOL    HW134397   8.415   7.582   6.189  0.0368 -1.8247  1.1423
 9564SOL    HW234398   8.327   7.580   6.052  0.8917  0.5740  0.5200
 9565SOL     OW34399   3.443   4.292   5.308  0.3398  0.1023 -0.6244
 9565SOL    HW134400   3.479   4.254   5.393 -0.3064  0.4374 -0.2017
 9565SOL    HW234401   3.419   4.388   5.321 -1.6079 -0.3638 -0.6162
 9566SOL     OW34402   0.099   6.105   3.486 -0.0944 -0.3462 -0.1308
 9566SOL    HW134403   0.078   6.107   3.389  1.1703 -1.0826 -0.4322
 9566SOL    HW234404   0.194   6.076   3.499  0.0218  0.6305  1.2863
 9567SOL     OW34405   2.606   8.917   7.088 -0.2018 -0.0327  0.3412
 9567SOL    HW134406   2.547   8.897   7.167  1.3648 -0.1192  1.5209
 9567SOL    HW234407   2.578   8.860   7.011 -2.0620  0.3746  0.6688
 9568SOL     OW34408   4.927   2.452   0.860  0.6216 -0.8667 -0.2929
 9568SOL    HW134409   4.996   2.518   0.829  1.5774 -2.1529 -0.9993
 9568SOL    HW234410   4.973   2.375   0.905 -0.5380 -0.6161  1.3594
 9569SOL     OW34411   4.232   0.994   7.939 -0.1909 -0.6481  0.5967
 9569SOL    HW134412   4.292   0.918   7.962  1.3872  1.1363  2.6586
 9569SOL    HW234413   4.224   1.003   7.840  2.6484 -1.1640  0.2893
 9570SOL     OW34414   2.541   7.759   6.024 -0.1325  0.0378  0.1591
 9570SOL    HW134415   2.518   7.679   5.969 -0.6519 -0.3907  0.9786
 9570SOL    HW234416   2.508   7.842   5.980  2.2399  0.0311 -1.7587
 9571SOL     OW34417   0.010   8.306   1.925  0.3478  0.3558  0.6230
 9571SOL    HW134418   0.052   8.361   1.997  1.0832 -0.0627  0.5269
 9571SOL    HW234419  -0.036   8.227   1.965  0.7270  0.1415  0.6451
 9572SOL     OW34420   8.692   7.580   0.939 -0.5074  0.8773  0.2712
 9572SOL    HW134421   8.670   7.630   0.855 -0.1172  1.0764  0.2883
 9572SOL    HW234422   8.705   7.644   1.014  1.2284  0.8311  0.0179
 9573SOL     OW34423   8.273   4.162   0.168  0.4561  0.6769 -0.2814
 9573SOL    HW134424   8.246   4.157   0.264  1.7303 -1.0999  0.0183
 9573SOL    HW234425   8.192   4.177   0.111 -0.7488 -1.2379  0.8561
 9574SOL     OW34426   1.572   3.046   0.448  0.1151  0.3672 -0.0268
 9574SOL    HW134427   1.507   2.987   0.400 -0.6313  1.4295 -0.3507
 9574SOL    HW234428   1.659   3.047   0.399 -0.3234  0.6540 -0.7979
 9575SOL     OW34429   6.137   9.132   6.697 -0.2487  0.3446 -0.5168
 9575SOL    HW134430   6.116   9.177   6.784 -0.8039 -0.0137 -0.4605
 9575SOL    HW234431   6.211   9.180   6.651 -2.2637  2.6522 -1.4796
 9576SOL     OW34432   4.420   9.936   7.673  0.6716 -0.0939 -0.0975
 9576SOL    HW134433   4.423   9.990   7.588  0.2401  0.4867  0.2490
 9576SOL    HW234434   4.491   9.969   7.736  1.3969 -0.9294 -0.4629
 9577SOL     OW34435   0.096   3.076   2.214 -0.4207  0.3304 -0.1423
 9577SOL    HW134436   0.045   3.132   2.279 -0.6051  0.8343 -0.7178
 9577SOL    HW234437   0.083   3.112   2.121  0.4521  0.0788 -0.3713
 9578SOL     OW34438   4.323   4.335   1.347 -0.3198 -0.1229 -0.2664
 9578SOL    HW134439   4.342   4.245   1.389  1.4601 -0.3862 -1.5662
 9578SOL    HW234440   4.228   4.339   1.318 -0.7980 -1.0438  1.1441
 9579SOL     OW34441   6.527   1.907   2.471  0.1045  0.0469  0.0963
 9579SOL    HW134442   6.510   1.835   2.404 -3.2170  0.8182  0.0188
 9579SOL    HW234443   6.550   1.866   2.559 -0.9360 -1.0846 -0.1523
 9580SOL     OW34444   0.176   7.403   2.011 -0.0040 -0.3219 -0.2699
 9580SOL    HW134445   0.182   7.358   2.100 -0.6530 -0.2254 -0.1781
 9580SOL    HW234446   0.212   7.495   2.017  0.2994 -0.4459 -0.1946
 9581SOL     OW34447   9.620   2.097   4.633 -0.0160  0.1385 -0.0184
 9581SOL    HW134448   9.593   2.109   4.538  0.2733 -1.3550 -0.2954
 9581SOL    HW234449   9.719   2.100   4.641 -0.0264 -0.0111  0.1905
 9582SOL     OW34450   5.717   0.954   1.948  0.0996 -0.5246  0.3465
 9582SOL    HW134451   5.715   1.051   1.974  1.1606 -0.6900  1.1228
 9582SOL    HW234452   5.626   0.914   1.958 -0.1195  0.1441  1.0381
 9583SOL     OW34453   6.948   1.445   3.712 -0.1780  0.4877  0.0510
 9583SOL    HW134454   6.849   1.427   3.708 -0.1294  0.4948 -1.6948
 9583SOL    HW234455   6.967   1.511   3.784 -1.3610 -0.0697  0.8922
 9585SOL     OW34456   0.021   3.025   5.665 -1.2546  0.9419 -0.6632
 9585SOL    HW134457   0.029   3.116   5.626  1.3016  0.9428 -0.2155
 9585SOL    HW234458   0.049   2.956   5.598 -0.3463  0.6955 -0.0406
 9586SOL     OW34459   3.897   7.481   3.941  0.6837  0.5672  0.5223
 9586SOL    HW134460   3.801   7.496   3.964  0.4036 -1.4514  0.7579
 9586SOL    HW234461   3.941   7.427   4.013  1.0053 -1.7645 -1.3488
 9587SOL     OW34462   2.837   9.725   0.103  0.1547 -0.3580  0.5843
 9587SOL    HW134463   2.862   9.651   0.164 -1.4638 -0.1912  1.4819
 9587SOL    HW234464   2.782   9.689   0.027 -2.0440  0.1192  1.9064
 9588SOL     OW34465   9.303   7.382   5.697  0.0117 -0.3852 -0.6078
 9588SOL    HW134466   9.396   7.381   5.734  0.0387 -1.0495 -0.6854
 9588SOL    HW234467   9.290   7.303   5.637 -0.2428  0.3157 -1.4932
 9589SOL     OW34468   0.188   0.779   2.650  0.4246  0.0662 -0.0319
 9589SOL    HW134469   0.111   0.816   2.598 -0.9163 -3.3241 -0.5878
 9589SOL    HW234470   0.274   0.803   2.603 -0.6838 -1.8810 -3.2667
 9590SOL     OW34471   0.045   0.210   0.401  0.1383 -0.4467  0.1300
 9590SOL    HW134472   0.003   0.205   0.492 -1.6069 -0.2167 -0.6374
 9590SOL    HW234473   0.004   0.286   0.350  0.3287 -1.2429 -1.2260
 9591SOL     OW34474   8.814   2.734   1.207 -0.2756 -0.2848 -0.6174
 9591SOL    HW134475   8.768   2.705   1.291  2.0318  2.1845  1.6296
 9591SOL    HW234476   8.898   2.681   1.195 -1.7452 -2.2013 -2.6541
 9592SOL     OW34477   8.366   0.888   1.709  0.4597  0.2161  0.2878
 9592SOL    HW134478   8.266   0.879   1.715  0.5150  0.1353  1.2334
 9592SOL    HW234479   8.407   0.797   1.711  0.5212  0.2216 -0.7463
 9594SOL     OW34480   4.800   4.785   0.325 -0.0388 -0.2648 -0.2524
 9594SOL    HW134481   4.820   4.875   0.288  0.7998 -0.1004  0.5912
 9594SOL    HW234482   4.713   4.787   0.374  1.4384  0.8645  2.4025
 9595SOL     OW34483   7.249   0.805   0.997 -0.0540 -0.0557  0.5456
 9595SOL    HW134484   7.315   0.877   1.019  0.0990 -0.2015  0.5630
 9595SOL    HW234485   7.267   0.725   1.053  0.9601 -0.7856 -0.8087
 9596SOL     OW34486   8.931   6.685   7.452  0.9757 -0.2244  0.5607
 9596SOL    HW134487   9.017   6.691   7.501  1.2343 -1.2546  0.2514
 9596SOL    HW234488   8.855   6.695   7.516  1.3153  1.0281  0.7828
 9597SOL     OW34489   2.039   2.536   7.040 -0.3836 -0.3624  0.0155
 9597SOL    HW134490   2.071   2.471   6.972  0.4951  0.7881 -0.6914
 9597SOL    HW234491   1.940   2.527   7.051 -0.3188 -1.5435 -0.3537
 9598SOL     OW34492   4.199   7.103   0.643 -0.4349 -0.3858  0.6544
 9598SOL    HW134493   4.120   7.053   0.609 -0.9005  0.2797  0.7412
 9598SOL    HW234494   4.180   7.202   0.639  0.0593 -0.2539  1.4883
 9601SOL     OW34495   2.786   1.368   4.304  0.1923 -0.4098  0.8476
 9601SOL    HW134496   2.724   1.322   4.368 -0.1161 -0.2185  0.6862
 9601SOL    HW234497   2.753   1.461   4.287 -0.1358 -0.7111 -0.1661
 9604SOL     OW34498   8.365   5.844   1.270 -0.1382 -0.3175  0.0049
 9604SOL    HW134499   8.357   5.790   1.186  1.1439 -0.8926  0.2421
 9604SOL    HW234500   8.298   5.918   1.268 -0.9014 -1.0176 -1.0006
 9605SOL     OW34501   3.769   0.466   0.989  0.2056  0.3978 -0.8958
 9605SOL    HW134502   3.807   0.464   0.896  1.2626  3.0969 -0.5541
 9605SOL    HW234503   3.729   0.555   1.007 -2.7717 -1.1140  0.2095
 9606SOL     OW34504   2.337   1.703   4.003  0.2018  0.1783 -0.3895
 9606SOL    HW134505   2.314   1.618   3.955 -0.4843 -0.1341  0.4841
 9606SOL    HW234506   2.264   1.770   3.990  0.4185  0.3938 -0.4989
 9608SOL     OW34507   1.274   9.636   6.916  0.8251  0.6445 -0.2633
 9608SOL    HW134508   1.320   9.701   6.977 -1.7276  1.5802  0.7414
 9608SOL    HW234509   1.234   9.686   6.840 -0.7688  0.1867  0.2683
 9609SOL     OW34510   0.659   7.976   2.319  0.0155 -0.1776 -0.4339
 9609SOL    HW134511   0.593   8.047   2.291  1.5175  1.1710 -0.6276
 9609SOL    HW234512   0.658   7.968   2.419 -1.4083 -1.1473 -0.4976
 9610SOL     OW34513   9.592   2.372   1.253 -0.1631 -0.4225 -0.2071
 9610SOL    HW134514   9.646   2.312   1.312  0.1831  1.7559  1.7698
 9610SOL    HW234515   9.494   2.356   1.270 -0.1018 -1.8406 -1.1676
 9612SOL     OW34516   2.739   1.436   6.176  0.0572 -0.3749 -0.2277
 9612SOL    HW134517   2.771   1.519   6.129 -1.0978 -1.1751 -2.4522
 9612SOL    HW234518   2.817   1.392   6.221  1.3899 -0.1481 -2.2431
 9613SOL     OW34519   9.574   3.375   1.234 -0.4201 -0.2701  0.1766
 9613SOL    HW134520   9.634   3.450   1.205 -2.4817  1.1487 -0.5580
 9613SOL    HW234521   9.528   3.400   1.319 -0.8989 -0.8253  0.0828
 9614SOL     OW34522   4.218   1.378   5.062  0.0217  0.0420 -0.1531
 9614SOL    HW134523   4.133   1.350   5.108 -0.1451  1.5402  0.4884
 9614SOL    HW234524   4.206   1.371   4.963 -0.8390  0.1953 -0.0678
 9615SOL     OW34525   6.329   3.635   2.379  0.1976 -0.1362 -0.7330
 9615SOL    HW134526   6.350   3.574   2.303  1.5501 -2.7963  1.6635
 9615SOL    HW234527   6.233   3.623   2.406  0.7080 -2.0604  0.3707
 9616SOL     OW34528   5.584   5.294   1.803  0.3791  0.3355 -0.4644
 9616SOL    HW134529   5.508   5.317   1.864  1.2821  1.2869  0.3300
 9616SOL    HW234530   5.632   5.378   1.778  2.4222 -0.4519  0.7137
 9617SOL     OW34531   5.430   3.024   2.361  0.2850 -0.1985  0.5722
 9617SOL    HW134532   5.521   3.013   2.400 -0.8096 -1.6575  2.8638
 9617SOL    HW234533   5.379   3.092   2.414 -0.0983  0.3566 -0.4808
 9618SOL     OW34534   2.076   8.738   1.814 -0.0335  0.7587 -0.0063
 9618SOL    HW134535   1.997   8.680   1.836 -0.4348  1.4265  0.3540
 9618SOL    HW234536   2.122   8.765   1.899  1.1400 -0.3902 -0.2714
 9619SOL     OW34537   9.500   7.990   2.549 -0.7887 -0.0054 -0.3816
 9619SOL    HW134538   9.468   8.084   2.559  0.8084  0.6379 -1.1367
 9619SOL    HW234539   9.516   7.969   2.453  1.1591 -0.2478 -0.0270
 9620SOL     OW34540   5.727   6.406   0.777 -0.4904  0.6079  0.0176
 9620SOL    HW134541   5.775   6.358   0.850  0.1811  2.2654  0.6961
 9620SOL    HW234542   5.760   6.374   0.688  0.3194  0.1912  0.4683
 9621SOL     OW34543   3.266   1.881   4.057  0.3331 -0.0099 -0.2136
 9621SOL    HW134544   3.216   1.797   4.034 -0.5893  0.8528 -1.4151
 9621SOL    HW234545   3.364   1.862   4.055  0.1658 -0.8485 -1.3867
 9622SOL     OW34546   6.623   7.555   4.076 -0.2468  0.0735 -0.9104
 9622SOL    HW134547   6.595   7.472   4.125 -1.1499  0.5186 -0.6521
 9622SOL    HW234548   6.552   7.580   4.010  0.5080  0.0458 -1.7362
 9623SOL     OW34549   8.061   8.366   2.432  0.4735 -0.1776  0.0235
 9623SOL    HW134550   8.082   8.306   2.355 -0.4061 -0.2050 -0.1962
 9623SOL    HW234551   8.145   8.413   2.462  0.8342 -0.2454 -0.8771
 9624SOL     OW34552   0.377   6.746   0.171  0.6581  0.4104 -0.2632
 9624SOL    HW134553   0.365   6.722   0.075  1.2719  3.0890 -1.0368
 9624SOL    HW234554   0.423   6.834   0.178  0.8173  0.1503  2.5020
 9626SOL     OW34555   8.328   3.787   7.252 -0.0281  0.2339 -0.4100
 9626SOL    HW134556   8.415   3.779   7.202 -0.3431  0.0367 -0.9326
 9626SOL    HW234557   8.335   3.739   7.339  0.7238  1.0765  0.0036
 9628SOL     OW34558   5.684   2.339   0.267 -0.0496  0.1958  0.0899
 9628SOL    HW134559   5.651   2.300   0.353  2.4217 -2.3558 -0.0320
 9628SOL    HW234560   5.741   2.271   0.220  0.7049  2.4417 -2.3541
 9631SOL     OW34561   7.771   3.503   0.562 -0.1034  0.1293 -0.0171
 9631SOL    HW134562   7.775   3.459   0.472 -1.9660 -1.6963  0.7575
 9631SOL    HW234563   7.714   3.585   0.557 -2.6035 -1.5492  0.0826
 9632SOL     OW34564   9.770   8.435   5.475  0.1881  0.0550 -0.1747
 9632SOL    HW134565   9.817   8.503   5.419 -1.4156 -0.2636 -1.9601
 9632SOL    HW234566   9.836   8.367   5.508  1.2217  0.4596 -1.3713
 9635SOL     OW34567   1.725   7.902   7.478 -0.1249  0.1867  0.5120
 9635SOL    HW134568   1.691   7.991   7.447  0.4237  0.8952  1.8761
 9635SOL    HW234569   1.798   7.916   7.544 -0.6358 -1.2673  1.4109
 9637SOL     OW34570   3.879   7.214   6.680 -0.3559  0.1681  0.0388
 9637SOL    HW134571   3.976   7.191   6.682 -0.6112 -0.9424  0.3021
 9637SOL    HW234572   3.865   7.298   6.629  0.6348 -0.2426 -0.9082
 9638SOL     OW34573   9.047   9.991   3.861  0.3859 -0.6809 -0.0807
 9638SOL    HW134574   9.101  10.039   3.930  0.2154 -0.2673 -0.2352
 9638SOL    HW234575   9.084  10.008   3.770 -0.8579  0.7860 -0.3281
 9639SOL     OW34576   6.153   7.659   6.163  0.2012  0.1467  0.5706
 9639SOL    HW134577   6.236   7.617   6.124 -0.2628 -0.1305 -0.1352
 9639SOL    HW234578   6.179   7.730   6.228  1.0219  2.2652 -2.0057
 9640SOL     OW34579   1.361   8.661   5.708 -0.1562 -0.2462 -0.1792
 9640SOL    HW134580   1.349   8.725   5.633  0.2276 -1.3264 -1.1780
 9640SOL    HW234581   1.421   8.701   5.778  0.1615  0.4290 -0.8395
 9641SOL     OW34582   2.582   4.525   1.726 -0.6166 -0.7722 -0.6112
 9641SOL    HW134583   2.572   4.612   1.677 -0.8084 -0.8106 -0.6409
 9641SOL    HW234584   2.593   4.451   1.660 -3.0894 -1.1265 -0.6905
 9642SOL     OW34585   5.742   3.327   0.628 -0.3366  0.9109  0.6531
 9642SOL    HW134586   5.775   3.375   0.547 -0.7452  1.0523  0.5700
 9642SOL    HW234587   5.721   3.232   0.604 -0.5654  0.9821  0.5614
 9643SOL     OW34588   2.316   0.854   0.167 -0.4448  0.1020  0.0413
 9643SOL    HW134589   2.281   0.767   0.200 -0.7936  0.5556  0.9145
 9643SOL    HW234590   2.275   0.928   0.220  2.0598  0.6437  1.3381
 9644SOL     OW34591   3.345   3.717   2.744 -0.1558  0.2323  0.2342
 9644SOL    HW134592   3.348   3.620   2.719  1.2464  0.3368 -0.0960
 9644SOL    HW234593   3.391   3.730   2.833  0.3698  0.6900 -0.0980
 9646SOL     OW34594   8.364   9.534   3.433 -0.2574  0.3708 -0.0862
 9646SOL    HW134595   8.382   9.559   3.338  0.4563  0.3396  0.0392
 9646SOL    HW234596   8.266   9.518   3.445 -0.6866  2.7028 -0.2665
 9648SOL     OW34597   1.352   3.892   6.830 -0.4567 -0.6856 -0.1988
 9648SOL    HW134598   1.446   3.883   6.801 -0.3730 -2.6711  0.6356
 9648SOL    HW234599   1.314   3.978   6.795  1.4313 -0.2031 -1.0940
 9649SOL     OW34600   6.912   8.703   3.363  0.1925 -0.4212  0.4047
 9649SOL    HW134601   6.863   8.621   3.337  0.5992 -0.4134 -0.4061
 9649SOL    HW234602   6.948   8.748   3.281  1.9741 -0.7053  1.0072
 9651SOL     OW34603   8.297   8.124   6.803  0.0408  0.7892  0.6161
 9651SOL    HW134604   8.243   8.109   6.719  0.8153 -2.0497  0.5661
 9651SOL    HW234605   8.269   8.057   6.872  1.9167  0.7557  1.3698
 9652SOL     OW34606   9.290   6.124   4.533  0.2292 -0.2427 -0.2961
 9652SOL    HW134607   9.256   6.094   4.622 -3.5461  0.5133 -1.3976
 9652SOL    HW234608   9.312   6.221   4.536  0.4411 -0.2950 -0.1212
 9653SOL     OW34609   2.595   8.154   4.100 -0.6050  0.0502 -0.0821
 9653SOL    HW134610   2.667   8.224   4.099 -0.0627 -0.4835  0.8109
 9653SOL    HW234611   2.550   8.151   4.011 -0.5561  1.4549 -0.1722
 9654SOL     OW34612   2.955   1.809   2.566 -0.0160 -0.1815  0.1179
 9654SOL    HW134613   2.992   1.872   2.498  0.8721  1.2053  1.8672
 9654SOL    HW234614   2.860   1.832   2.585 -0.8221 -1.6429 -1.8666
 9655SOL     OW34615   1.166   5.468   4.706  0.1610  0.1595  0.0457
 9655SOL    HW134616   1.098   5.509   4.767  0.8152  1.6934 -0.2264
 9655SOL    HW234617   1.224   5.405   4.758 -2.2006 -2.0714  0.0354
 9656SOL     OW34618   0.413   5.905   0.484 -0.1840  0.0525  0.2009
 9656SOL    HW134619   0.356   5.841   0.433 -0.8697  0.9259 -0.1369
 9656SOL    HW234620   0.404   5.997   0.445  1.6542  0.1635 -0.0323
 9657SOL     OW34621   8.245   9.404   7.471 -0.4255 -0.3231 -0.0773
 9657SOL    HW134622   8.233   9.499   7.498 -0.2178  0.3904 -2.3996
 9657SOL    HW234623   8.327   9.395   7.414 -0.0030 -2.0363  0.7442
 9658SOL     OW34624   3.570   0.285   6.448  0.0574 -0.2344 -0.3156
 9658SOL    HW134625   3.560   0.223   6.370 -1.3938 -1.4246  0.7854
 9658SOL    HW234626   3.551   0.379   6.420  1.7849 -0.3269 -1.8967
 9659SOL     OW34627   3.347   1.373   6.507  0.0072 -0.9597 -0.5624
 9659SOL    HW134628   3.287   1.375   6.587  0.7077  0.2734 -0.0521
 9659SOL    HW234629   3.366   1.278   6.482  0.6802 -1.3731  1.4091
 9660SOL     OW34630   8.784   1.307   0.711 -0.0680  0.6031 -0.3723
 9660SOL    HW134631   8.832   1.384   0.753 -1.6641  0.5904  1.5620
 9660SOL    HW234632   8.818   1.221   0.750  0.6993  0.4111 -1.4670
 9662SOL     OW34633   3.047   1.685   1.492  0.4734  0.1414  0.1067
 9662SOL    HW134634   3.088   1.724   1.409  0.4546  0.8061  0.4095
 9662SOL    HW234635   2.955   1.724   1.505  0.3190 -0.2585  0.2280
 9663SOL     OW34636   7.876   7.559   2.186 -0.3386  0.3419  0.0285
 9663SOL    HW134637   7.860   7.474   2.136 -0.3898 -0.1337  0.8425
 9663SOL    HW234638   7.967   7.557   2.228 -0.1562  0.8838 -0.3333
 9664SOL     OW34639   4.317   8.096   3.124  0.2266  0.3521  0.2682
 9664SOL    HW134640   4.389   8.088   3.055  1.2833 -1.0849  1.4938
 9664SOL    HW234641   4.344   8.166   3.191  0.1660  0.2975  0.3491
 9665SOL     OW34642   4.416   5.957   3.138 -1.0218  0.1629  0.4647
 9665SOL    HW134643   4.421   5.928   3.233 -2.5224 -1.2607  0.1515
 9665SOL    HW234644   4.327   5.931   3.100 -0.2032  0.1069 -1.5099
 9667SOL     OW34645   1.996   1.890   0.604  0.6215  0.5331  0.1663
 9667SOL    HW134646   1.972   1.793   0.605 -0.1720  0.7168 -0.2758
 9667SOL    HW234647   1.925   1.942   0.651 -0.1285  1.1439 -1.5876
 9668SOL     OW34648   6.631   4.373   2.807  0.3255  0.2066 -0.2528
 9668SOL    HW134649   6.628   4.293   2.866 -0.8550  0.2561 -0.2289
 9668SOL    HW234650   6.584   4.352   2.721 -2.3552  1.6647  0.7745
 9670SOL     OW34651   8.340   8.248   2.054  0.1481 -0.5507  0.0327
 9670SOL    HW134652   8.308   8.342   2.045  0.2114 -0.3561  1.7757
 9670SOL    HW234653   8.421   8.235   1.997  0.1573  0.4384 -0.1932
 9671SOL     OW34654   3.683   6.173   2.060 -0.3459  0.1582 -0.7523
 9671SOL    HW134655   3.678   6.130   2.150 -0.3405 -0.3433 -0.9863
 9671SOL    HW234656   3.713   6.268   2.069 -0.2979  0.0944 -0.2337
 9672SOL     OW34657   0.090   5.703   7.216 -0.3074 -0.5039 -0.3618
 9672SOL    HW134658   0.166   5.638   7.220 -0.2459 -0.3850  0.6550
 9672SOL    HW234659   0.003   5.653   7.214 -0.2190 -0.6334 -1.1029
 9673SOL     OW34660   0.454   4.654   5.145  0.3460  0.5587 -0.7183
 9673SOL    HW134661   0.540   4.674   5.098  0.8755  1.9087  0.8106
 9673SOL    HW234662   0.467   4.577   5.207  0.1251 -0.0480 -1.4265
 9674SOL     OW34663   8.627   0.078   2.506 -0.4106 -0.1373 -0.7771
 9674SOL    HW134664   8.706   0.075   2.445 -1.3248 -0.2322 -1.9784
 9674SOL    HW234665   8.581   0.166   2.498 -0.5760 -0.1730 -0.2694
 9675SOL     OW34666   4.944   5.201   0.923  0.1786  0.2420 -0.6111
 9675SOL    HW134667   4.846   5.214   0.931  0.1160 -0.6931  0.2966
 9675SOL    HW234668   4.992   5.279   0.963 -0.1791  1.6763 -2.8750
 9676SOL     OW34669   2.301   5.941   7.098  0.4079  0.4238  0.5186
 9676SOL    HW134670   2.401   5.951   7.096  0.6020 -0.3914  3.4446
 9676SOL    HW234671   2.265   5.979   7.183 -1.4015 -2.0266  0.9282
 9678SOL     OW34672   0.030   8.538   3.621 -0.0734  0.5856  0.2471
 9678SOL    HW134673   0.082   8.514   3.539  0.0008  1.1739  0.1194
 9678SOL    HW234674  -0.053   8.587   3.594 -0.5415 -0.0844  0.4682
 9681SOL     OW34675   5.569   0.171   3.444  0.1066  0.1465  0.5673
 9681SOL    HW134676   5.535   0.182   3.538  0.1496  1.2606  0.4619
 9681SOL    HW234677   5.669   0.174   3.444  0.0860  1.2853  0.3694
 9682SOL     OW34678   7.313   4.441   3.011 -0.1018 -0.2403 -0.1534
 9682SOL    HW134679   7.279   4.413   3.101 -0.0012  0.6417  0.1632
 9682SOL    HW234680   7.389   4.505   3.022 -0.3571  0.1972 -0.8644
 9683SOL     OW34681   5.994   4.357   1.544  0.3128 -0.3911 -0.0612
 9683SOL    HW134682   5.936   4.414   1.602  1.0283  2.0836 -1.6479
 9683SOL    HW234683   5.961   4.363   1.449  1.4288 -1.2664 -0.5072
 9684SOL     OW34684   5.009   9.014   4.696  0.1767  0.0216  0.0529
 9684SOL    HW134685   5.088   9.066   4.727  0.4402  0.9824 -2.1605
 9684SOL    HW234686   4.930   9.034   4.754  1.7133 -1.5579  2.7837
 9686SOL     OW34687   3.085   9.935   7.730 -0.8789  0.2556 -0.4313
 9686SOL    HW134688   3.067  10.032   7.749  1.3961  0.3265  1.5594
 9686SOL    HW234689   3.052   9.879   7.806  0.3947 -0.2698 -0.2518
 9687SOL     OW34690   4.124   0.670   2.154 -0.3673  0.0287 -0.3801
 9687SOL    HW134691   4.063   0.742   2.123 -0.6906 -0.1898 -0.2514
 9687SOL    HW234692   4.167   0.698   2.241 -0.3108  0.1654 -0.4521
 9688SOL     OW34693   3.274   6.628   1.316 -0.0510  0.4035  0.2689
 9688SOL    HW134694   3.237   6.719   1.296  1.5290  0.7492 -1.1914
 9688SOL    HW234695   3.362   6.638   1.364  0.2188 -0.3586 -0.0751
 9689SOL     OW34696   4.470   9.767   3.591 -0.3877 -0.4588 -0.3168
 9689SOL    HW134697   4.508   9.696   3.651 -0.5535 -0.4154 -0.1602
 9689SOL    HW234698   4.541   9.799   3.529 -1.2258 -3.3136 -2.8418
 9690SOL     OW34699   9.442   5.847   0.055 -0.2961 -0.1289 -0.0761
 9690SOL    HW134700   9.354   5.876   0.018 -0.0553  0.4370 -0.2116
 9690SOL    HW234701   9.451   5.748   0.048 -1.2785 -0.2817  0.7210
 9692SOL     OW34702   7.052   0.508   5.494  0.2582 -0.5710  0.5558
 9692SOL    HW134703   6.986   0.487   5.421  1.0105 -0.6683 -0.1027
 9692SOL    HW234704   7.090   0.599   5.479 -1.1952  0.3053  2.0534
 9693SOL     OW34705   8.010   5.986   0.376 -0.1292  0.1773 -0.3819
 9693SOL    HW134706   8.005   6.057   0.305 -2.0512  0.7107  0.2657
 9693SOL    HW234707   8.088   5.926   0.357 -0.2625  0.6613 -2.6235
 9696SOL     OW34708   6.033   7.367   4.589  0.1779  0.4323  0.1816
 9696SOL    HW134709   6.107   7.317   4.634 -1.8553 -0.9905  2.0322
 9696SOL    HW234710   6.037   7.349   4.490 -0.8994 -4.0790  0.8517
 9697SOL     OW34711   7.504   7.445   3.294 -0.4098 -0.1871  0.2845
 9697SOL    HW134712   7.589   7.400   3.266 -0.3491  0.4414 -0.5642
 9697SOL    HW234713   7.506   7.541   3.265 -1.9691 -0.4936 -0.8896
 9698SOL     OW34714   4.532   8.653   4.212  0.0807 -0.4959 -0.9564
 9698SOL    HW134715   4.582   8.606   4.286 -2.6426 -0.2724  1.0982
 9698SOL    HW234716   4.491   8.585   4.152 -0.9810 -0.7222  0.0195
 9699SOL     OW34717   1.602   5.774   7.745 -0.4749  0.0897 -0.8648
 9699SOL    HW134718   1.582   5.872   7.740  0.1653  0.1968 -1.6928
 9699SOL    HW234719   1.521   5.722   7.720 -1.2877  0.3679  1.1861
 9700SOL     OW34720   3.936   8.911   7.907  0.3897  0.7170  0.3804
 9700SOL    HW134721   3.889   8.971   7.843  0.0383 -0.5473 -0.5806
 9700SOL    HW234722   3.868   8.856   7.957  0.8153 -1.6524 -1.5497
 9702SOL     OW34723   1.003   0.524   3.924 -0.9330 -0.0949 -0.3196
 9702SOL    HW134724   0.954   0.439   3.906 -0.7087 -0.2010 -0.4334
 9702SOL    HW234725   1.081   0.506   3.983  0.9355 -0.5205 -2.8120
 9703SOL     OW34726   2.051   8.464   3.051  0.2763  0.4803 -0.2598
 9703SOL    HW134727   2.125   8.447   3.116  0.1084 -1.0577 -0.4500
 9703SOL    HW234728   1.979   8.396   3.063 -1.3044  2.2041  0.1746
 9704SOL     OW34729   2.045   7.615   2.655 -0.0738  0.0540  0.6570
 9704SOL    HW134730   2.020   7.712   2.656  0.1253  0.0969  1.8126
 9704SOL    HW234731   2.142   7.605   2.677 -0.1258 -0.4214  0.6781
 9705SOL     OW34732   4.990   7.949   3.437  0.6879  0.1199  0.4201
 9705SOL    HW134733   5.090   7.944   3.438  0.9101  2.2427 -2.7194
 9705SOL    HW234734   4.959   8.019   3.500  1.3557  1.0336 -0.2489
 9706SOL     OW34735   3.126   2.101   7.126  0.0034 -0.0398  0.3081
 9706SOL    HW134736   3.168   2.179   7.171 -0.1243  0.1931  0.0230
 9706SOL    HW234737   3.127   2.022   7.188 -0.1823  0.2814  0.7226
 9707SOL     OW34738   5.572   9.208   5.289  0.1033 -0.4733 -0.2578
 9707SOL    HW134739   5.665   9.229   5.258 -0.1514  0.6454 -0.2686
 9707SOL    HW234740   5.532   9.139   5.229  0.2126  0.4776 -1.4350
 9709SOL     OW34741   4.443   8.402   6.561  0.2611  0.0046 -0.5062
 9709SOL    HW134742   4.482   8.494   6.558 -1.3551  0.7791  1.3940
 9709SOL    HW234743   4.425   8.371   6.468  1.9173  1.1140 -1.2254
 9711SOL     OW34744   8.710   0.272   0.460 -0.4924  0.1412  0.0988
 9711SOL    HW134745   8.733   0.318   0.374  0.2248 -0.5864 -0.1004
 9711SOL    HW234746   8.612   0.282   0.478 -0.3518  1.7360  0.0524
 9713SOL     OW34747   5.813   9.049   5.195  0.0978 -0.1504  0.5759
 9713SOL    HW134748   5.870   8.972   5.225  1.2210  0.3191 -0.3061
 9713SOL    HW234749   5.862   9.100   5.123 -2.3421 -1.0437 -1.7989
 9714SOL     OW34750   8.866   9.590   1.644  0.1250  0.0398  0.1503
 9714SOL    HW134751   8.780   9.585   1.695 -0.2282 -0.9228 -0.5261
 9714SOL    HW234752   8.858   9.659   1.573 -0.1460 -0.1523 -0.0086
 9716SOL     OW34753   3.779   4.804   7.644  0.3852  0.1493  0.0897
 9716SOL    HW134754   3.839   4.855   7.705  0.6189  0.7843 -0.6634
 9716SOL    HW234755   3.720   4.744   7.698  2.0854 -0.9241  0.8145
 9717SOL     OW34756   9.580   2.697   7.138 -0.1324  0.2330  0.4036
 9717SOL    HW134757   9.639   2.617   7.124  0.3308  0.8744 -1.5047
 9717SOL    HW234758   9.618   2.753   7.211  1.7331  0.7053 -0.8865
 9718SOL     OW34759   8.823   3.203   6.755 -0.4859  0.2363  0.7646
 9718SOL    HW134760   8.833   3.272   6.684  1.2955 -1.0426 -0.2592
 9718SOL    HW234761   8.911   3.189   6.801 -0.6963 -1.6991  0.6229
 9719SOL     OW34762   5.306   1.348   7.580 -0.3603 -0.6155 -0.1517
 9719SOL    HW134763   5.359   1.304   7.507 -0.7636 -1.3404 -0.0156
 9719SOL    HW234764   5.354   1.429   7.612  0.7130 -1.2964  0.0171
 9720SOL     OW34765   0.967   9.775   3.569  0.0089 -0.2704 -0.3155
 9720SOL    HW134766   0.995   9.710   3.640  0.2344 -0.5957 -0.7066
 9720SOL    HW234767   0.868   9.783   3.569  0.0732  0.8557  1.0541
 9722SOL     OW34768   5.811   9.604   1.645 -0.0401 -0.3110 -0.5625
 9722SOL    HW134769   5.865   9.522   1.666 -1.6135 -1.6107 -1.4514
 9722SOL    HW234770   5.726   9.602   1.698 -0.3055  0.5011 -0.9500
 9724SOL     OW34771   2.829   7.185   3.927  0.5941  0.4476 -0.0592
 9724SOL    HW134772   2.800   7.179   4.022  0.5100 -2.1247 -0.2041
 9724SOL    HW234773   2.780   7.260   3.882 -0.5693  0.6497  1.5041
 9725SOL     OW34774   4.664   1.517   4.758  1.2570 -0.3305  0.3067
 9725SOL    HW134775   4.657   1.585   4.684 -1.6674 -0.5457  0.3040
 9725SOL    HW234776   4.756   1.518   4.795  2.1141  1.5201 -1.7211
 9726SOL     OW34777   2.387   3.766   5.612  1.1532  0.3834  0.2275
 9726SOL    HW134778   2.423   3.816   5.690  0.9311  2.2201 -0.8163
 9726SOL    HW234779   2.454   3.697   5.583  1.4784  0.0828  1.6517
 9727SOL     OW34780   3.867   3.379   4.256 -0.0045 -0.5182 -0.6740
 9727SOL    HW134781   3.802   3.369   4.181 -0.7985 -1.5336  0.1275
 9727SOL    HW234782   3.847   3.310   4.326  0.3861  0.7529  0.7103
 9729SOL     OW34783   8.499   7.451   4.639 -0.3046 -0.7973 -0.3879
 9729SOL    HW134784   8.485   7.440   4.737  0.7817  1.7346  0.0902
 9729SOL    HW234785   8.441   7.525   4.605  1.2227  0.0519 -1.1641
 9730SOL     OW34786   1.665   2.430   0.549  0.1361  0.4434 -0.3006
 9730SOL    HW134787   1.668   2.470   0.641  0.7121  3.8917 -1.7563
 9730SOL    HW234788   1.735   2.358   0.542  0.2473  0.3079  1.8693
 9731SOL     OW34789   9.478   4.334   4.889 -0.0341  0.3749  0.3218
 9731SOL    HW134790   9.507   4.318   4.983 -0.1520  0.1158  0.3134
 9731SOL    HW234791   9.427   4.255   4.855 -3.9641  2.2453  1.5672
 9733SOL     OW34792   0.393   6.769   3.888  0.4165 -0.1372 -0.4867
 9733SOL    HW134793   0.410   6.719   3.973 -0.8000 -0.8045 -0.6177
 9733SOL    HW234794   0.408   6.708   3.810  1.8622  0.5684 -0.7709
 9735SOL     OW34795   8.767   3.730   2.560 -0.0909 -0.3668 -0.4039
 9735SOL    HW134796   8.714   3.813   2.579  0.6964 -0.3765  2.0788
 9735SOL    HW234797   8.731   3.685   2.479 -3.0399  0.3206  0.4507
 9737SOL     OW34798   2.142   2.317   0.747 -0.1447  0.2172 -0.7705
 9737SOL    HW134799   2.215   2.353   0.806 -0.3277 -1.2456  0.3896
 9737SOL    HW234800   2.110   2.389   0.686  1.7249  1.1038 -0.7490
 9741SOL     OW34801   0.347   6.558   7.421  0.4367  0.3381 -0.4961
 9741SOL    HW134802   0.261   6.607   7.406  0.2841  0.2526  0.1141
 9741SOL    HW234803   0.410   6.579   7.346 -0.1211  0.3856 -0.9512
 9743SOL     OW34804   3.162   5.504   3.807  0.0717 -0.5781  0.2200
 9743SOL    HW134805   3.204   5.560   3.878 -0.8831 -2.0871  1.9898
 9743SOL    HW234806   3.081   5.551   3.770 -1.1244 -1.0692  2.1724
 9744SOL     OW34807   3.217   8.977   5.464 -0.1312 -0.6666 -0.2660
 9744SOL    HW134808   3.302   9.004   5.419  0.0948  0.4067  0.7817
 9744SOL    HW234809   3.165   9.059   5.490 -0.1809 -1.2441  1.5660
 9745SOL     OW34810   6.978   5.196   0.716  0.2726  0.2499 -0.0533
 9745SOL    HW134811   6.944   5.196   0.622 -0.3635  0.6059  0.1702
 9745SOL    HW234812   7.071   5.232   0.718  0.0224  0.9360 -0.4598
 9747SOL     OW34813   0.261   7.361   7.514  0.0926  0.1384  0.8680
 9747SOL    HW134814   0.297   7.371   7.422 -1.9256  4.6659  0.4092
 9747SOL    HW234815   0.168   7.323   7.510 -0.2852  1.0364  0.9387
 9748SOL     OW34816   0.969   4.432   3.371  0.1678 -0.2893  0.0660
 9748SOL    HW134817   0.908   4.498   3.327  0.7298 -0.2233 -0.6186
 9748SOL    HW234818   0.949   4.429   3.469  1.0700  1.9193  0.3446
 9750SOL     OW34819   8.118   7.289   1.399  0.7304  0.3751 -0.1682
 9750SOL    HW134820   8.111   7.379   1.356 -1.7811 -0.6569 -2.0677
 9750SOL    HW234821   8.186   7.234   1.350  0.3691  0.3731 -0.6771
 9752SOL     OW34822   7.130   8.691   6.505  0.1559  0.5387 -0.2027
 9752SOL    HW134823   7.109   8.778   6.548 -0.1882  1.1663 -1.6012
 9752SOL    HW234824   7.046   8.646   6.477  0.3517 -0.0872  0.1946
 9754SOL     OW34825   9.651   1.684   0.776 -0.4041 -0.8053  0.0834
 9754SOL    HW134826   9.621   1.780   0.768  0.8609 -0.4312 -0.2011
 9754SOL    HW234827   9.571   1.626   0.794 -0.9413  0.5522  2.3120
 9755SOL     OW34828   1.781   7.153   0.600 -0.2674 -0.2717 -0.0893
 9755SOL    HW134829   1.733   7.237   0.624 -1.2187 -1.0716  0.8522
 9755SOL    HW234830   1.759   7.127   0.506  0.9504  1.1528 -0.7774
 9756SOL     OW34831   8.981   1.702   7.558 -0.2025  0.8547  0.3896
 9756SOL    HW134832   9.075   1.714   7.524 -0.4553  0.6416 -0.3850
 9756SOL    HW234833   8.966   1.765   7.634  0.6028  0.8289  0.5793
 9757SOL     OW34834   9.985   0.198   2.846  0.3447 -0.3362  0.0123
 9757SOL    HW134835  10.046   0.210   2.768 -0.9725  0.2654 -0.9481
 9757SOL    HW234836   9.993   0.105   2.880  0.1745 -0.9273 -1.5038
 9758SOL     OW34837   4.500   0.703   5.533  0.2865 -0.2867  0.3616
 9758SOL    HW134838   4.564   0.641   5.578  0.0498 -0.8615 -0.0918
 9758SOL    HW234839   4.415   0.655   5.513  0.1197  0.1684 -0.0381
 9760SOL     OW34840   6.199   2.329   4.026 -0.5406  0.0279 -0.1314
 9760SOL    HW134841   6.201   2.397   3.952  0.5746  0.8017  0.6005
 9760SOL    HW234842   6.147   2.249   3.996 -1.1073  0.8322 -1.3252
 9761SOL     OW34843   3.080   3.790   2.957 -0.0740  0.1850  0.1391
 9761SOL    HW134844   3.008   3.836   3.010 -0.4878 -1.3777  0.9513
 9761SOL    HW234845   3.154   3.763   3.018 -0.4232 -1.3876 -0.1204
 9762SOL     OW34846   0.485   7.472   2.219 -0.3820  0.3446  0.2121
 9762SOL    HW134847   0.457   7.555   2.170  0.6234  0.5867  0.0368
 9762SOL    HW234848   0.406   7.436   2.269 -0.6100  1.9366  1.0492
 9764SOL     OW34849   0.892   1.960   7.545  0.1593 -0.5821 -0.2064
 9764SOL    HW134850   0.923   2.053   7.529 -0.5279 -0.0431  1.5067
 9764SOL    HW234851   0.825   1.959   7.619  1.4885 -2.6678  1.0098
 9765SOL     OW34852   3.870   3.609   1.479 -0.1986  0.1854  0.1653
 9765SOL    HW134853   3.875   3.702   1.515 -0.7708 -0.0419  0.8343
 9765SOL    HW234854   3.873   3.612   1.379 -0.4976  0.9396  0.1776
 9766SOL     OW34855   1.499   3.065   0.086 -0.3681  0.3365  0.0333
 9766SOL    HW134856   1.428   3.002   0.055  0.5416  0.1512 -1.7245
 9766SOL    HW234857   1.498   3.147   0.029  1.0080  0.2071 -0.1958
 9768SOL     OW34858   6.627   6.209   1.665  0.2151 -0.4373 -0.1831
 9768SOL    HW134859   6.707   6.266   1.685  1.2838 -2.4904  1.5319
 9768SOL    HW234860   6.559   6.221   1.738 -0.1866 -0.2625 -0.5812
 9769SOL     OW34861   3.190   6.859   1.962 -0.2414 -0.1081  0.0607
 9769SOL    HW134862   3.283   6.830   1.986 -0.5998  2.0218  4.4867
 9769SOL    HW234863   3.124   6.795   1.999 -0.6719  0.1923 -0.1835
 9773SOL     OW34864   1.040   5.107   6.949 -1.0153  0.2072 -0.3117
 9773SOL    HW134865   1.039   5.169   6.870 -0.1656  0.5256 -0.0785
 9773SOL    HW234866   1.133   5.074   6.964 -1.5883 -1.7527 -0.9067
 9774SOL     OW34867   2.951   1.816   4.595  0.0569  0.5323 -0.1691
 9774SOL    HW134868   2.857   1.833   4.567  0.2486  1.9201 -0.0236
 9774SOL    HW234869   2.957   1.816   4.695  0.6697  3.3780 -0.1505
 9775SOL     OW34870   2.305   6.992   4.654 -0.6778 -0.0725 -0.4028
 9775SOL    HW134871   2.337   6.898   4.654 -0.4527 -0.0045  1.3970
 9775SOL    HW234872   2.375   7.051   4.696  0.1188  1.2345 -3.4306
 9776SOL     OW34873   0.801   5.242   4.888 -0.3117  0.4410  1.0542
 9776SOL    HW134874   0.741   5.239   4.808  1.2186  1.1126 -0.1515
 9776SOL    HW234875   0.820   5.149   4.919 -1.3321  0.1967  0.9608
 9778SOL     OW34876   0.518   7.868   5.772 -0.3137  0.6779 -0.0044
 9778SOL    HW134877   0.576   7.790   5.796  0.0216  0.9553  0.0908
 9778SOL    HW234878   0.523   7.937   5.844 -1.3112  0.4053  0.3308
 9779SOL     OW34879   4.584   7.989   6.436 -0.4890  0.1252 -0.4245
 9779SOL    HW134880   4.659   7.926   6.459 -2.3463 -1.5003  1.4045
 9779SOL    HW234881   4.528   7.949   6.364  0.9799  1.8510 -2.6039
 9780SOL     OW34882   8.560   7.142   5.412 -0.1468  0.1541  1.0820
 9780SOL    HW134883   8.487   7.133   5.480 -0.2362  0.6791  1.0596
 9780SOL    HW234884   8.520   7.163   5.323 -0.1642 -2.2871  0.4690
 9781SOL     OW34885   5.986   7.578   2.988  0.0465 -0.1575 -0.5839
 9781SOL    HW134886   6.049   7.554   2.915 -2.2332  0.0307 -2.6734
 9781SOL    HW234887   5.958   7.674   2.979  0.9904  0.3465  1.5104
 9782SOL     OW34888   0.878   7.863   7.250 -0.1824 -0.3370  0.0537
 9782SOL    HW134889   0.896   7.802   7.172  3.4833  1.2153 -0.4036
 9782SOL    HW234890   0.861   7.956   7.217 -1.5472 -0.2469  0.9756
 9783SOL     OW34891   4.521   1.118   1.112 -0.1516 -0.1370  0.4743
 9783SOL    HW134892   4.533   1.213   1.142  1.7319 -0.5992  1.2662
 9783SOL    HW234893   4.434   1.109   1.063 -0.1508  2.0868  0.0162
 9785SOL     OW34894   6.065   5.957   1.438 -0.1504 -0.2349  0.2052
 9785SOL    HW134895   6.052   5.875   1.493 -0.4241  0.2822  0.9104
 9785SOL    HW234896   6.133   5.939   1.367  0.2058 -0.8900  0.7146
 9786SOL     OW34897   1.555   9.010   1.351  0.1611  0.2524  0.3051
 9786SOL    HW134898   1.526   9.105   1.361 -0.5130  0.0758  0.0761
 9786SOL    HW234899   1.480   8.957   1.311  1.5583  0.2418 -2.4588
 9788SOL     OW34900   2.236   9.194   3.299 -0.2311 -0.1299 -0.0550
 9788SOL    HW134901   2.220   9.293   3.296  0.6632  0.0480  0.8692
 9788SOL    HW234902   2.159   9.150   3.345  1.1418  0.5569  2.9714
 9790SOL     OW34903   2.774   2.272   6.653  0.2838 -0.0258 -0.0825
 9790SOL    HW134904   2.793   2.278   6.751  2.4386  1.0508 -0.5505
 9790SOL    HW234905   2.788   2.361   6.611 -1.2020 -0.3420 -1.2918
 9791SOL     OW34906   2.333   5.600   6.728  0.3230  0.4395  0.2086
 9791SOL    HW134907   2.277   5.682   6.727  0.0211  0.2360  0.0762
 9791SOL    HW234908   2.322   5.552   6.815  0.4224  0.4881  0.2472
 9793SOL     OW34909   8.508   0.539   0.334  0.6301 -0.3602 -0.0181
 9793SOL    HW134910   8.579   0.496   0.278 -0.6767 -1.4587 -0.8742
 9793SOL    HW234911   8.474   0.474   0.402 -0.8793 -0.5001 -0.8710
 9796SOL     OW34912   1.103   9.619   0.451 -0.2610  0.2696  0.1390
 9796SOL    HW134913   1.087   9.716   0.469  0.4555  0.3195  0.5207
 9796SOL    HW234914   1.156   9.608   0.367 -0.4219  0.2043  0.0455
 9797SOL     OW34915   1.994   3.172   3.013 -0.5566  0.3700  0.0352
 9797SOL    HW134916   1.997   3.183   2.913 -0.8852 -0.8001 -0.1072
 9797SOL    HW234917   1.977   3.261   3.055  0.6037  1.0528 -0.9027
 9798SOL     OW34918   1.057   4.682   7.416  0.5726  0.3998  0.0706
 9798SOL    HW134919   1.140   4.664   7.468  2.0126  2.0216 -1.6127
 9798SOL    HW234920   1.015   4.767   7.449  0.3857  0.3595 -0.0598
 9800SOL     OW34921   7.000   3.268   1.152 -0.2682  0.1293  0.1712
 9800SOL    HW134922   6.960   3.260   1.243 -1.7195 -0.6820 -0.5301
 9800SOL    HW234923   6.951   3.337   1.100 -0.0790 -0.1252 -0.3444
 9801SOL     OW34924   2.793   9.408   0.115  0.6849 -0.5075 -0.2029
 9801SOL    HW134925   2.831   9.400   0.023  1.6697  0.8914  0.0809
 9801SOL    HW234926   2.697   9.436   0.109  0.7843 -0.2942 -0.7889
 9802SOL     OW34927   8.703   5.771   2.585  0.4841  0.2631  0.3184
 9802SOL    HW134928   8.614   5.800   2.551  0.9495  0.8741 -0.3928
 9802SOL    HW234929   8.719   5.675   2.561  0.1179  0.2154  0.2608
 9803SOL     OW34930   9.201   7.720   1.142  0.4872 -0.0711 -0.2546
 9803SOL    HW134931   9.184   7.671   1.228 -2.4183  2.2511  0.5956
 9803SOL    HW234932   9.146   7.680   1.069 -2.5996  2.3137  0.6427
 9805SOL     OW34933   9.658   4.054   6.444  0.4820  0.1710 -0.1041
 9805SOL    HW134934   9.676   4.149   6.466  0.0376 -0.1051  1.5106
 9805SOL    HW234935   9.743   4.009   6.415  0.7572  0.9576 -0.5156
 9809SOL     OW34936   0.250   6.549   1.725  0.1012  0.6744 -0.6456
 9809SOL    HW134937   0.316   6.551   1.800 -2.0527  1.2798  1.3248
 9809SOL    HW234938   0.229   6.454   1.701 -0.0844  0.4469  0.3767
 9810SOL     OW34939   1.475   8.135   6.247 -0.1442  0.0271  0.4428
 9810SOL    HW134940   1.434   8.194   6.177  0.4368  1.4380  1.2823
 9810SOL    HW234941   1.569   8.112   6.220 -0.2601 -0.2593  0.2761
 9811SOL     OW34942   0.012   7.756   6.714  0.1862 -0.0855 -0.4971
 9811SOL    HW134943  -0.076   7.783   6.753  0.3487  1.1560 -0.9600
 9811SOL    HW234944   0.036   7.818   6.639  0.3920 -1.7615 -1.8616
 9812SOL     OW34945   9.861   0.767   4.716 -0.0043  0.6852  0.4781
 9812SOL    HW134946   9.798   0.767   4.638 -0.2570  0.4167  0.6788
 9812SOL    HW234947   9.947   0.723   4.690  0.2116  1.3279  0.1138
 9813SOL     OW34948   4.355   1.279   6.777  0.2601 -0.5496 -0.1244
 9813SOL    HW134949   4.338   1.243   6.685 -0.5415 -1.1609  0.2544
 9813SOL    HW234950   4.268   1.309   6.818  0.6617  0.0636  0.2887
 9814SOL     OW34951   9.125  -0.000   7.651  0.0067  0.4781  0.1766
 9814SOL    HW134952   9.137   0.043   7.562 -1.0316 -1.0177 -0.7197
 9814SOL    HW234953   9.205   0.016   7.707  0.1178  2.5914 -0.5293
 9817SOL     OW34954   3.841   8.546   4.764  0.2815  0.8569  0.5208
 9817SOL    HW134955   3.879   8.546   4.671 -0.4950 -0.8665  0.1718
 9817SOL    HW234956   3.742   8.559   4.759  0.2805  1.1068  1.1396
 9818SOL     OW34957   3.032   4.486   5.857 -0.1363  0.4838  0.3136
 9818SOL    HW134958   3.053   4.575   5.817 -0.0894  0.1967 -0.3001
 9818SOL    HW234959   3.017   4.497   5.956  0.0154  1.1458  0.2671
 9819SOL     OW34960   9.641   7.394   2.293 -0.8205  0.2919  0.2670
 9819SOL    HW134961   9.739   7.399   2.272 -0.8517 -0.3090 -0.0293
 9819SOL    HW234962   9.628   7.402   2.391 -0.5537  1.4929  0.2164
 9820SOL     OW34963   7.094   4.924   7.211  0.0919  0.2151  0.2952
 9820SOL    HW134964   7.046   5.010   7.229 -0.7186 -0.4532  1.4117
 9820SOL    HW234965   7.111   4.877   7.298  2.2773  0.1776 -0.1394
 9821SOL     OW34966   3.031   9.543   3.527 -0.2597 -0.5989 -0.3615
 9821SOL    HW134967   3.055   9.623   3.581  0.0110 -0.7406 -0.2692
 9821SOL    HW234968   2.948   9.562   3.474  2.0637  1.1572 -3.4841
 9822SOL     OW34969   8.180   6.507   2.282  0.5034  0.0797  0.2697
 9822SOL    HW134970   8.264   6.513   2.228  0.3880  0.4389  0.1279
 9822SOL    HW234971   8.141   6.415   2.274  0.4973  0.1274 -0.2462
 9823SOL     OW34972   8.855   1.603   4.576  0.8995  0.1326  0.2619
 9823SOL    HW134973   8.892   1.645   4.659  0.6464  0.5919  0.1429
 9823SOL    HW234974   8.883   1.657   4.497  0.0651  0.4104  0.1610
 9824SOL     OW34975   8.509   1.115   1.046 -0.3545 -0.0816 -0.4450
 9824SOL    HW134976   8.596   1.117   0.997 -0.5554  0.7006 -0.7869
 9824SOL    HW234977   8.520   1.155   1.137 -0.6454  1.2825 -0.9939
 9825SOL     OW34978   6.433   2.265   3.850  0.2130 -0.2253  0.1128
 9825SOL    HW134979   6.427   2.300   3.943 -1.0583 -0.2217  0.0431
 9825SOL    HW234980   6.485   2.329   3.794  0.2744  0.1841  0.6347
 9826SOL     OW34981   9.261   0.077   6.677 -0.0516 -0.0594 -0.4006
 9826SOL    HW134982   9.337   0.127   6.717  0.9909 -1.7801 -0.1541
 9826SOL    HW234983   9.232   0.005   6.740 -1.8524  0.5423 -0.5215
 9829SOL     OW34984   7.954   6.159   5.096  0.0815  0.0994 -0.2229
 9829SOL    HW134985   7.979   6.233   5.033  1.1098  0.9686  1.1649
 9829SOL    HW234986   7.870   6.182   5.144  1.0553  0.9713  1.1130
 9830SOL     OW34987   0.572   6.628   7.264  0.0074  0.2492 -0.5749
 9830SOL    HW134988   0.583   6.721   7.299  0.0181 -0.3056  0.9477
 9830SOL    HW234989   0.659   6.580   7.272  0.0034  0.1154 -1.3693
 9831SOL     OW34990   8.618   9.229   4.574  0.2683  0.1207  0.4964
 9831SOL    HW134991   8.603   9.306   4.636  2.3591  1.4201 -0.5612
 9831SOL    HW234992   8.681   9.163   4.617  1.0025  0.5754  0.1211
 9833SOL     OW34993   3.009   2.098   0.333  0.0990 -0.2863 -0.5057
 9833SOL    HW134994   3.044   2.079   0.424  2.7427 -1.7922 -1.7737
 9833SOL    HW234995   2.917   2.060   0.324  0.0869 -0.7277  1.2987
 9834SOL     OW34996   8.931   5.232   5.321  0.1724  0.1474 -0.1131
 9834SOL    HW134997   8.956   5.141   5.288  1.3051 -0.0032  1.1367
 9834SOL    HW234998   8.899   5.288   5.244  1.8917 -0.4876 -1.3192
 9835SOL     OW34999   0.161   2.760   6.883  0.6273 -0.2283 -0.0641
 9835SOL    HW135000   0.234   2.757   6.951 -0.0672 -2.0943  0.6185
 9835SOL    HW235001   0.173   2.685   6.817 -0.6461 -0.5515  0.0490
 9836SOL     OW35002   3.957   0.775   5.453  0.4495  0.1398  0.0154
 9836SOL    HW135003   4.029   0.741   5.393  2.6471  2.8706  1.0001
 9836SOL    HW235004   3.950   0.717   5.534  0.3240 -1.1338 -0.8913
 9837SOL     OW35005   8.486   7.454   7.953 -0.6647 -0.3465 -0.2698
 9837SOL    HW135006   8.455   7.507   7.874 -0.6402 -1.8844 -1.3241
 9837SOL    HW235007   8.586   7.457   7.957 -0.6635 -0.2979 -0.3284
 9839SOL     OW35008   9.137   7.341   4.199 -0.0559 -0.1336  0.1984
 9839SOL    HW135009   9.092   7.378   4.280  0.7290 -1.7150  1.3723
 9839SOL    HW235010   9.235   7.331   4.216  0.1821 -0.1209 -1.0927
 9840SOL     OW35011   0.987   8.983   3.455  0.1709 -0.2127  0.0504
 9840SOL    HW135012   0.932   9.053   3.500 -1.6592 -1.3906 -0.3312
 9840SOL    HW235013   1.002   8.906   3.518  1.5069  0.1448  0.1946
 9841SOL     OW35014   4.110   9.539   1.561  0.3251  0.2243  0.3702
 9841SOL    HW135015   4.190   9.579   1.518  0.7150 -0.6468  0.2867
 9841SOL    HW235016   4.030   9.598   1.544  1.0108  1.2956  0.8006
 9842SOL     OW35017   4.223   5.450   2.081  0.0626  0.3933 -0.6101
 9842SOL    HW135018   4.258   5.450   2.175 -1.0032 -0.3631 -0.2036
 9842SOL    HW235019   4.229   5.358   2.043  0.7033  0.7457 -1.3704
 9844SOL     OW35020   0.717   2.751   2.737  0.8584  0.2483 -0.1633
 9844SOL    HW135021   0.767   2.766   2.651 -2.0783  2.6653 -1.5740
 9844SOL    HW235022   0.749   2.817   2.805  1.7463 -0.2986 -0.0374
 9846SOL     OW35023   8.575   7.357   6.570 -0.8206 -0.0058 -0.0947
 9846SOL    HW135024   8.658   7.341   6.624  1.1491 -0.8756 -3.2764
 9846SOL    HW235025   8.514   7.279   6.580 -0.6865  0.0399  1.2113
 9847SOL     OW35026   2.500   5.557   6.520  0.4590 -0.1742 -0.3213
 9847SOL    HW135027   2.434   5.583   6.590  1.0896 -0.9548  0.5905
 9847SOL    HW235028   2.589   5.540   6.563  1.2475  0.8152 -1.5182
 9848SOL     OW35029   4.710   8.791   4.588  0.3513  0.0477 -0.2330
 9848SOL    HW135030   4.673   8.712   4.539 -0.0449  0.7022 -0.9971
 9848SOL    HW235031   4.637   8.859   4.601  1.2790  1.3626 -1.7746
 9849SOL     OW35032   4.154   3.205   1.938 -0.4379 -0.2880  0.0750
 9849SOL    HW135033   4.102   3.239   1.860 -0.4418  0.6588  0.4766
 9849SOL    HW235034   4.244   3.248   1.940  0.3187 -1.8166 -0.5375
 9850SOL     OW35035   1.803   9.207   0.927 -0.1677  0.3790  0.4881
 9850SOL    HW135036   1.762   9.170   1.010 -1.4126  1.2459  0.2822
 9850SOL    HW235037   1.835   9.300   0.945  3.1486 -0.8217  1.0741
 9851SOL     OW35038   1.723   3.571   7.436  0.1366  0.1082 -0.3722
 9851SOL    HW135039   1.701   3.609   7.346 -0.4659 -0.4558 -0.4631
 9851SOL    HW235040   1.710   3.472   7.435 -1.6267  0.3039  0.8509
 9852SOL     OW35041   9.837   3.933   5.505 -0.4498 -0.1636 -0.1432
 9852SOL    HW135042   9.863   4.026   5.482  0.7250  0.2289  2.6149
 9852SOL    HW235043   9.767   3.934   5.576 -1.6270 -1.3866 -1.2498
 9853SOL     OW35044   8.332   5.704   3.107 -0.3268  0.0569 -0.0890
 9853SOL    HW135045   8.332   5.804   3.111 -0.5537 -0.0029  2.4362
 9853SOL    HW235046   8.313   5.667   3.198  1.4380 -2.3034 -0.6221
 9855SOL     OW35047   3.821   9.060   7.697 -0.8734 -0.5176 -0.7373
 9855SOL    HW135048   3.875   9.117   7.635 -2.2847  2.1491  0.4096
 9855SOL    HW235049   3.747   9.016   7.646 -0.4155 -0.5106 -1.4195
 9856SOL     OW35050   1.897   4.149   4.818  0.7741  0.4647  0.1774
 9856SOL    HW135051   1.887   4.224   4.753 -0.3945  0.2717  0.1098
 9856SOL    HW235052   1.940   4.182   4.902  2.3626  0.7023 -0.7059
 9857SOL     OW35053   0.209   3.055   1.307  0.4252 -0.1647 -0.4287
 9857SOL    HW135054   0.249   3.105   1.230 -0.2514  0.9703 -0.0429
 9857SOL    HW235055   0.280   2.999   1.350  0.5473 -1.8471 -2.6638
 9858SOL     OW35056   0.230   6.180   1.455 -0.6075  0.1221 -0.0220
 9858SOL    HW135057   0.212   6.097   1.509  0.6358  0.0245  0.2747
 9858SOL    HW235058   0.303   6.233   1.500 -0.6448  0.8235 -0.7896
 9859SOL     OW35059   8.599   2.615   0.966 -0.5528  0.0989 -0.0195
 9859SOL    HW135060   8.599   2.545   1.038  1.7675  0.2154  0.1382
 9859SOL    HW235061   8.646   2.697   1.000  0.1792  0.3102 -1.5137
 9860SOL     OW35062   8.889   6.985   4.880 -0.0802  0.0362 -0.1351
 9860SOL    HW135063   8.819   6.986   4.808 -0.0455 -0.8038 -0.1872
 9860SOL    HW235064   8.844   6.980   4.970 -0.0915 -0.3039 -0.1598
 9862SOL     OW35065   2.602   1.967   3.822  0.2435  0.0604  0.1716
 9862SOL    HW135066   2.593   1.944   3.725 -1.7791  1.1026  0.0946
 9862SOL    HW235067   2.638   2.060   3.830 -0.4219  0.3001  0.4084
 9865SOL     OW35068   8.882   4.111   4.637 -0.5328  0.5762  0.5712
 9865SOL    HW135069   8.882   4.048   4.560  0.5510  0.2089  0.8553
 9865SOL    HW235070   8.789   4.123   4.671 -0.5621 -2.1430  1.5441
 9867SOL     OW35071   6.229   8.849   2.667 -0.2919 -0.0819 -0.2710
 9867SOL    HW135072   6.227   8.750   2.682  0.6161 -0.0604  0.0183
 9867SOL    HW235073   6.239   8.895   2.756  0.7036  0.2137 -0.5310
 9868SOL     OW35074   9.358   1.442   7.509  0.5709  0.1450 -0.0987
 9868SOL    HW135075   9.341   1.344   7.498  1.9888 -0.0451 -0.7624
 9868SOL    HW235076   9.456   1.457   7.524  0.4898  1.5210 -0.8377
 9869SOL     OW35077   5.100   0.167   6.600  0.3284 -0.3705 -0.8533
 9869SOL    HW135078   5.178   0.107   6.580  0.0343 -0.1739 -2.6888
 9869SOL    HW235079   5.038   0.121   6.663  1.2361 -1.0833 -0.4669
 9871SOL     OW35080   9.225   0.829   2.321  0.5552  0.1999  0.2035
 9871SOL    HW135081   9.288   0.849   2.397  0.7350 -1.1289  0.4113
 9871SOL    HW235082   9.268   0.763   2.260 -1.7522 -2.9773  1.8765
 9872SOL     OW35083   9.408   3.441   4.358 -0.2027 -0.4815 -0.3139
 9872SOL    HW135084   9.488   3.383   4.339  0.8610  0.6247  0.7151
 9872SOL    HW235085   9.415   3.478   4.450 -1.8598 -0.2609 -0.2643
 9873SOL     OW35086   1.993   2.407   6.476  0.2678 -0.2832 -0.6277
 9873SOL    HW135087   1.994   2.339   6.549 -1.3725 -0.2385 -0.5294
 9873SOL    HW235088   1.980   2.361   6.388 -0.2069 -0.1586 -0.6259
 9877SOL     OW35089   7.714   0.687   5.314 -0.2243 -0.1809  0.1363
 9877SOL    HW135090   7.806   0.708   5.347 -0.0293  0.2419 -0.6949
 9877SOL    HW235091   7.718   0.657   5.219 -0.9698  0.0266  0.0370
 9878SOL     OW35092   4.000   2.112   0.894  0.0434  0.4169 -0.0561
 9878SOL    HW135093   4.077   2.085   0.836  0.9489 -2.5930  2.3565
 9878SOL    HW235094   4.029   2.184   0.957  0.0537  1.2324 -0.9783
 9880SOL     OW35095   1.128   9.138   7.623  0.0020 -0.0154 -0.0997
 9880SOL    HW135096   1.038   9.177   7.604  0.7086  1.5208 -0.3084
 9880SOL    HW235097   1.117   9.057   7.682 -1.6248 -0.7790 -1.4142
 9881SOL     OW35098   8.291   4.861   7.848  0.1657 -0.0646 -0.0335
 9881SOL    HW135099   8.343   4.872   7.932  0.0711  0.1136  0.0007
 9881SOL    HW235100   8.335   4.911   7.774  0.7952 -1.0312 -0.3249
 9883SOL     OW35101   1.319   5.151   7.910  0.0939  0.0020  0.3307
 9883SOL    HW135102   1.396   5.174   7.850  0.2480  1.3018  1.0148
 9883SOL    HW235103   1.329   5.057   7.942  2.7853  0.9416  2.4589
 9884SOL     OW35104   3.919   7.343   5.084 -0.4928 -0.4227  0.1041
 9884SOL    HW135105   3.978   7.359   5.005  0.1951 -2.8948  0.0638
 9884SOL    HW235106   3.976   7.337   5.166 -1.2193  2.3245  0.8616
 9886SOL     OW35107   1.702   9.127   1.156  0.1461  0.1957 -0.2930
 9886SOL    HW135108   1.626   9.091   1.211 -1.2543 -0.9802 -2.9407
 9886SOL    HW235109   1.784   9.072   1.173 -0.6133 -0.9642 -0.3412
 9887SOL     OW35110   8.461   3.007   6.567 -0.2967 -0.6241 -0.3285
 9887SOL    HW135111   8.517   3.049   6.496 -0.4518 -1.3472 -0.8857
 9887SOL    HW235112   8.385   3.068   6.590  0.0202 -0.1845 -0.4490
 9888SOL     OW35113   6.493   3.085   3.004 -0.1972  0.0600  0.2178
 9888SOL    HW135114   6.401   3.122   3.017  0.3891  2.8745 -2.9118
 9888SOL    HW235115   6.501   3.052   2.910  2.0810  0.1083  0.3869
 9889SOL     OW35116   9.480   8.074   4.760 -0.2024  0.3088  0.2083
 9889SOL    HW135117   9.502   8.171   4.771  0.3465  0.1638  0.4267
 9889SOL    HW235118   9.564   8.020   4.767 -0.3849 -0.1131 -0.7502
 9890SOL     OW35119   9.767   2.976   3.054  0.6384 -0.0708 -0.0311
 9890SOL    HW135120   9.804   3.002   3.143  1.7347  0.6857 -0.6972
 9890SOL    HW235121   9.671   2.948   3.064  0.6420  0.3869  1.3148
 9891SOL     OW35122   7.093   7.933   3.149 -0.2728  0.2562 -0.1497
 9891SOL    HW135123   7.078   7.843   3.191  0.6382 -0.0765 -0.5254
 9891SOL    HW235124   7.163   7.925   3.078  1.4086  1.7037  1.3231
 9892SOL     OW35125   2.561   7.581   1.424 -0.0803  0.2755  0.0398
 9892SOL    HW135126   2.585   7.638   1.502  1.3515  0.6944 -0.6749
 9892SOL    HW235127   2.606   7.617   1.342  1.3340 -2.1927 -0.3152
 9893SOL     OW35128   4.342   8.976   2.518  0.5063  0.1191 -0.3665
 9893SOL    HW135129   4.307   8.999   2.427 -2.4173 -1.9387  0.1910
 9893SOL    HW235130   4.319   9.050   2.581 -2.4962 -0.9757 -0.1187
 9894SOL     OW35131   0.221   1.521   4.026  0.0696 -0.1076  0.4358
 9894SOL    HW135132   0.186   1.528   3.932  0.5853  0.1431  0.2581
 9894SOL    HW235133   0.297   1.456   4.028 -0.1503 -0.3514  0.7393
 9896SOL     OW35134   3.800   2.382   4.253 -0.3281 -0.1702 -0.4955
 9896SOL    HW135135   3.781   2.285   4.237  1.7817 -1.3258  3.3650
 9896SOL    HW235136   3.891   2.404   4.218 -0.6782  0.3102 -1.0887
 9897SOL     OW35137   0.014   1.017   6.313  0.1218  0.3554 -0.4857
 9897SOL    HW135138  -0.026   1.021   6.221  0.1075  1.1015 -0.4553
 9897SOL    HW235139   0.109   1.046   6.310  0.2607 -0.0867 -0.3405
 9898SOL     OW35140   5.927   9.716   7.701 -0.3555 -0.1917  0.0051
 9898SOL    HW135141   5.980   9.785   7.653 -1.0501  0.5433  0.2905
 9898SOL    HW235142   5.984   9.635   7.718  0.5286  0.4171 -0.0759
 9900SOL     OW35143   0.352   8.802   2.242  0.4906  0.2992  0.1085
 9900SOL    HW135144   0.286   8.770   2.174  1.9699 -2.3065 -0.1799
 9900SOL    HW235145   0.370   8.900   2.228 -0.9831  0.3246 -1.7542
 9901SOL     OW35146   5.823   1.985   4.399  0.1222 -0.4734  0.1064
 9901SOL    HW135147   5.825   2.085   4.406 -0.6377 -0.4192 -0.4968
 9901SOL    HW235148   5.849   1.946   4.487 -1.4597  0.2555  0.9139
 9902SOL     OW35149   1.228   7.704   3.375 -0.5590 -0.5520  0.0044
 9902SOL    HW135150   1.296   7.767   3.337  0.3063  0.1031  2.5965
 9902SOL    HW235151   1.153   7.694   3.309  2.1347 -1.5514 -3.0521
 9903SOL     OW35152   8.222   5.646   3.356 -0.4644 -0.5547 -0.1661
 9903SOL    HW135153   8.281   5.672   3.433 -0.4664  0.3451 -0.4678
 9903SOL    HW235154   8.247   5.555   3.324 -0.6225 -1.0421  1.0598
 9906SOL     OW35155   4.107   5.906   3.050 -0.1229  0.2406  0.1498
 9906SOL    HW135156   4.104   5.928   3.148 -0.3280 -1.1054  0.4620
 9906SOL    HW235157   4.076   5.984   2.997 -0.7860  0.7007  1.2079
 9907SOL     OW35158   5.075   7.529   4.292  0.4440  0.1321  0.3548
 9907SOL    HW135159   5.036   7.542   4.383 -0.1153 -0.3380  0.1793
 9907SOL    HW235160   5.012   7.564   4.223 -1.1711 -3.5154 -0.1535
 9908SOL     OW35161   0.355   3.109   5.715  0.2685 -0.5787 -0.2404
 9908SOL    HW135162   0.268   3.129   5.671 -0.3759 -3.0876 -0.1508
 9908SOL    HW235163   0.348   3.126   5.814 -0.3911 -1.6061 -0.1064
 9909SOL     OW35164   1.644   6.202   5.850  0.7231  0.0920  0.5674
 9909SOL    HW135165   1.708   6.146   5.902 -0.6649 -0.9379  1.2054
 9909SOL    HW235166   1.673   6.207   5.754 -0.0738 -3.2267  0.0868
 9910SOL     OW35167   8.791   9.002   2.931  0.0481  0.0537  0.2205
 9910SOL    HW135168   8.785   8.905   2.910  1.4845  0.3394 -1.6116
 9910SOL    HW235169   8.880   9.022   2.973 -0.4685  0.4881  1.1294
 9911SOL     OW35170   4.599   0.740   1.505  0.0876 -0.2243 -0.5133
 9911SOL    HW135171   4.637   0.686   1.430  1.3675  0.3705 -0.2978
 9911SOL    HW235172   4.605   0.837   1.484  1.2136 -0.0075  0.6833
 9912SOL     OW35173   6.731   9.668   6.743 -0.2462 -0.1975 -0.0374
 9912SOL    HW135174   6.818   9.626   6.714 -0.5098  0.4263 -1.7684
 9912SOL    HW235175   6.727   9.762   6.711 -1.5521 -0.1996  0.0950
 9913SOL     OW35176   3.950   8.115   0.334  0.0915 -0.5723 -0.5817
 9913SOL    HW135177   4.034   8.075   0.371  0.9653  0.6545 -1.1978
 9913SOL    HW235178   3.970   8.159   0.246 -0.8760  1.0655 -0.0153
 9914SOL     OW35179   3.077   7.831   3.256 -0.1826 -0.4291 -0.0051
 9914SOL    HW135180   3.133   7.879   3.187  0.5228  1.3819  1.7665
 9914SOL    HW235181   3.123   7.747   3.284 -0.0459 -0.7244 -1.1068
 9915SOL     OW35182   2.545   9.694   0.351  0.0822  0.0009 -0.4448
 9915SOL    HW135183   2.584   9.720   0.439  1.9025  1.7067 -1.7089
 9915SOL    HW235184   2.447   9.715   0.350 -0.2274 -1.1680  1.5680
 9916SOL     OW35185   4.019   8.326   1.508 -0.2147 -0.2298 -0.3623
 9916SOL    HW135186   4.054   8.244   1.464 -1.9727 -0.1345 -1.9573
 9916SOL    HW235187   3.999   8.307   1.604 -1.4830 -1.9018 -0.9586
 9917SOL     OW35188   4.207   2.722   7.311  0.3426 -0.0648  0.2309
 9917SOL    HW135189   4.137   2.768   7.365  1.6900 -0.4294  2.3137
 9917SOL    HW235190   4.230   2.779   7.232  1.0461  2.2303  2.0363
 9918SOL     OW35191   6.060   0.584   4.957  0.0380 -0.2668  0.2332
 9918SOL    HW135192   6.020   0.662   5.006  0.3888 -1.3099  2.2470
 9918SOL    HW235193   6.068   0.606   4.860  0.6227  2.4094  0.8389
 9919SOL     OW35194   0.601   8.016   6.003  0.5158  0.5611 -0.3925
 9919SOL    HW135195   0.595   8.115   6.020 -1.1945  0.1136  1.7962
 9919SOL    HW235196   0.690   7.982   6.032 -0.0310  0.9466  1.8455
 9920SOL     OW35197   0.006   7.954   1.325 -0.3507  0.5974  0.1096
 9920SOL    HW135198  -0.009   7.863   1.366 -1.8020  0.2539 -1.1170
 9920SOL    HW235199  -0.069   8.014   1.352 -0.7809  0.6566 -1.2246
 9921SOL     OW35200   8.781   0.431   1.611 -0.6808 -0.1398 -0.6689
 9921SOL    HW135201   8.874   0.400   1.591 -0.3510  0.1316  0.4259
 9921SOL    HW235202   8.720   0.403   1.536  0.0330 -1.4595 -0.7756
 9922SOL     OW35203   0.368   7.269   7.257 -0.3224 -0.0400  0.2490
 9922SOL    HW135204   0.430   7.347   7.259 -1.0227  0.5088  0.9884
 9922SOL    HW235205   0.362   7.232   7.164 -2.0620  2.4667 -0.6875
 9923SOL     OW35206   0.446   1.814   0.018 -0.3100  0.2543 -0.0078
 9923SOL    HW135207   0.381   1.818  -0.058  1.0654  0.8669 -1.1724
 9923SOL    HW235208   0.487   1.723   0.022 -0.3141  0.2498 -0.0603
 9924SOL     OW35209   5.320   0.777   2.318 -0.5184 -0.0478 -0.4087
 9924SOL    HW135210   5.287   0.731   2.401 -1.3668  0.4839 -0.4519
 9924SOL    HW235211   5.399   0.834   2.341 -0.5953 -0.0975 -0.0112
 9925SOL     OW35212   8.640   8.049   7.127  0.1105 -0.1344  0.6655
 9925SOL    HW135213   8.635   7.967   7.070 -1.6882  0.5206 -0.1534
 9925SOL    HW235214   8.643   8.130   7.068  0.8640  0.4449  1.4807
 9926SOL     OW35215   4.710   3.575   2.064 -0.9513 -0.2659  0.3165
 9926SOL    HW135216   4.625   3.619   2.037 -1.1172 -0.6674  0.1820
 9926SOL    HW235217   4.709   3.479   2.036  0.0940  0.0535 -0.9218
 9927SOL     OW35218   7.921   9.943   1.885  0.5896  0.5258 -0.1278
 9927SOL    HW135219   7.939   9.894   1.800 -0.4135  2.5288 -1.5539
 9927SOL    HW235220   7.944  10.040   1.873  0.3741  0.8530  1.8731
 9928SOL     OW35221   8.903   4.857   0.611  1.0274  0.0180 -0.6315
 9928SOL    HW135222   8.824   4.898   0.566 -0.6281  0.0865  2.2402
 9928SOL    HW235223   8.940   4.920   0.678  0.7772 -1.6610  1.1460
 9930SOL     OW35224   0.280   9.322   5.292  0.2170  0.1504 -0.2745
 9930SOL    HW135225   0.328   9.259   5.230  2.1206  0.8098  0.4756
 9930SOL    HW235226   0.321   9.413   5.285 -1.8113  1.0510 -0.5548
 9932SOL     OW35227   5.176   3.134   1.433 -0.0706 -0.8004 -0.2058
 9932SOL    HW135228   5.109   3.137   1.507  0.5999 -2.6788  0.5044
 9932SOL    HW235229   5.132   3.098   1.350 -0.9232  1.6818 -0.8651
 9933SOL     OW35230   2.969   9.540   4.940  0.1026  0.3134 -0.2383
 9933SOL    HW135231   2.970   9.568   4.845  2.6796 -0.3123 -0.4391
 9933SOL    HW235232   3.029   9.599   4.993 -1.4089  0.7382  1.0566
 9934SOL     OW35233   0.221   8.698   2.572 -0.1642  0.2976  0.3691
 9934SOL    HW135234   0.169   8.732   2.494 -1.3196  0.3666  1.1480
 9934SOL    HW235235   0.299   8.758   2.589  0.7174 -0.3289 -1.3914
 9935SOL     OW35236   4.441   0.909   7.595  0.4274 -0.5243  0.7860
 9935SOL    HW135237   4.449   0.819   7.553  1.7562  0.1872 -0.4991
 9935SOL    HW235238   4.485   0.908   7.685 -0.3359 -1.3816  1.1627
 9936SOL     OW35239   1.120   9.747   5.899  0.3922  0.6223 -0.5439
 9936SOL    HW135240   1.176   9.729   5.818  2.2680 -0.4875  0.9544
 9936SOL    HW235241   1.178   9.784   5.971 -1.1171  0.8678  0.5731
 9937SOL     OW35242   9.449   2.325   7.047 -0.4621 -0.0094  0.4700
 9937SOL    HW135243   9.468   2.338   6.949 -1.4322 -2.1356 -0.0180
 9937SOL    HW235244   9.398   2.403   7.081  1.7324  1.7898 -0.1878
 9938SOL     OW35245   5.027   8.397   3.449 -0.0913  0.0337 -0.5021
 9938SOL    HW135246   5.045   8.452   3.368 -0.7013  1.4787  0.3238
 9938SOL    HW235247   4.962   8.325   3.427 -1.1950  1.1691 -1.0248
 9939SOL     OW35248   9.563   7.308   5.708 -0.0200 -0.1171 -0.3381
 9939SOL    HW135249   9.540   7.246   5.783  2.0492 -0.5092  0.0093
 9939SOL    HW235250   9.610   7.388   5.745  1.9437 -0.8047 -1.3138
 9940SOL     OW35251   4.639   4.693   2.143 -0.6062  0.3380  0.1656
 9940SOL    HW135252   4.727   4.690   2.191 -0.0031 -0.9997 -1.0024
 9940SOL    HW235253   4.566   4.663   2.205  0.2189 -1.7522  0.1738
 9941SOL     OW35254   3.095   7.637   1.005 -0.1961 -0.0068  0.1934
 9941SOL    HW135255   3.007   7.685   1.007 -0.3275 -0.1885 -0.7217
 9941SOL    HW235256   3.103   7.588   0.918  0.7680 -0.0648  0.3135
 9942SOL     OW35257   8.343   2.281   1.257  0.2819  0.4907 -0.2096
 9942SOL    HW135258   8.387   2.213   1.315  0.1818  0.1343 -0.5496
 9942SOL    HW235259   8.266   2.322   1.306  0.5788  0.6361  0.1374
 9943SOL     OW35260   6.761   8.356   5.059 -0.7954 -0.2443 -0.3435
 9943SOL    HW135261   6.702   8.327   4.983 -3.3758 -1.8021  2.1596
 9943SOL    HW235262   6.717   8.430   5.109  0.4210  0.0715  0.2706
 9944SOL     OW35263   0.146   0.568   7.948 -0.0008  0.0319 -0.3295
 9944SOL    HW135264   0.196   0.482   7.934  0.9706  0.5773 -0.2410
 9944SOL    HW235265   0.128   0.610   7.860 -0.1424 -0.0749 -0.3510
 9945SOL     OW35266   9.624   4.176   3.980  0.3551 -0.0228  0.3554
 9945SOL    HW135267   9.680   4.183   4.063  0.7203 -1.7623  0.2695
 9945SOL    HW235268   9.567   4.094   3.985 -0.3915  0.4214 -0.6618
 9947SOL     OW35269   5.755   8.714   3.968  0.0534  0.4249  0.1378
 9947SOL    HW135270   5.706   8.773   4.032 -0.2186 -0.3036  0.6006
 9947SOL    HW235271   5.797   8.770   3.897 -0.3322  1.1646  0.4898
 9949SOL     OW35272   0.935   7.537   5.831  0.0298 -0.4972 -0.1024
 9949SOL    HW135273   0.984   7.491   5.757  0.0701  1.8216 -1.5844
 9949SOL    HW235274   0.837   7.524   5.819  0.1092 -1.5874  0.4340
 9951SOL     OW35275   2.910   9.502   6.488 -0.0087  0.2355  0.2645
 9951SOL    HW135276   2.856   9.448   6.423 -0.4650  0.6796  0.2694
 9951SOL    HW235277   2.965   9.569   6.438 -0.8099  0.9776  0.3690
 9952SOL     OW35278   0.003   4.316   1.008 -0.5126 -0.2478 -0.2363
 9952SOL    HW135279   0.101   4.330   0.994 -0.4225 -0.6919 -0.0680
 9952SOL    HW235280  -0.035   4.265   0.931 -0.2883 -1.4908  0.4660
 9953SOL     OW35281   4.210   1.930   4.664 -0.4673 -0.5999  0.1731
 9953SOL    HW135282   4.115   1.900   4.666 -0.1547 -1.6236  0.1194
 9953SOL    HW235283   4.270   1.850   4.672  0.3671  0.2538  3.1999
 9954SOL     OW35284   4.159   7.829   5.307  0.6691 -1.0856  0.4144
 9954SOL    HW135285   4.161   7.732   5.285 -1.0241 -0.9981 -0.1493
 9954SOL    HW235286   4.064   7.861   5.312  1.2401  1.1767 -2.1991
 9957SOL     OW35287   0.564   9.692   5.409  0.3134 -0.2879  0.7194
 9957SOL    HW135288   0.656   9.662   5.434 -0.1086 -0.7270  1.7906
 9957SOL    HW235289   0.567   9.787   5.378  1.2811 -0.6374 -0.2990
 9958SOL     OW35290   9.457   6.398   5.837  0.6187 -0.2545  0.0236
 9958SOL    HW135291   9.483   6.495   5.836  0.7227 -0.2674  0.7695
 9958SOL    HW235292   9.358   6.390   5.825  0.6089 -0.0560 -0.0350
 9960SOL     OW35293   7.761   8.939   5.182  0.2697  0.2163 -0.6184
 9960SOL    HW135294   7.784   9.035   5.196  1.4452  0.0215 -1.1109
 9960SOL    HW235295   7.671   8.919   5.221  0.1506  1.4455 -0.2669
 9961SOL     OW35296   0.506   8.519   5.550 -0.4168  0.8816 -0.0517
 9961SOL    HW135297   0.478   8.605   5.592 -1.9375  0.2388  0.2949
 9961SOL    HW235298   0.431   8.452   5.558  1.1034 -0.7754  0.5739
 9962SOL     OW35299   0.514   2.613   0.417  0.0471  0.4503  0.5073
 9962SOL    HW135300   0.427   2.659   0.433 -0.3498  0.0897 -0.6108
 9962SOL    HW235301   0.528   2.599   0.319  1.8000  1.3397  0.5932
 9963SOL     OW35302   6.999   4.244   0.761  0.4754 -0.0672  0.2020
 9963SOL    HW135303   7.049   4.183   0.700  0.8746 -0.2221  0.6805
 9963SOL    HW235304   6.972   4.326   0.712 -0.3711 -0.7816 -0.5498
 9966SOL     OW35305   2.270   8.323   0.481  0.5273 -0.2740 -0.0302
 9966SOL    HW135306   2.350   8.279   0.441  2.2123  1.6883  1.1100
 9966SOL    HW235307   2.241   8.399   0.422 -0.9376 -1.3751 -0.7776
 9967SOL     OW35308   3.687   9.697   1.352 -0.3555  0.1972 -0.2246
 9967SOL    HW135309   3.718   9.604   1.329  0.4655  0.7207 -1.3274
 9967SOL    HW235310   3.594   9.711   1.318 -0.5562 -0.2863  0.1223
 9968SOL     OW35311   6.653   4.382   1.531 -0.4585  1.0534 -0.3141
 9968SOL    HW135312   6.597   4.435   1.467  0.0860 -0.0214 -1.7146
 9968SOL    HW235313   6.702   4.311   1.480  0.0870  0.2719  1.2964
 9969SOL     OW35314   2.365   9.747   1.964 -0.3704 -0.0062  0.0581
 9969SOL    HW135315   2.346   9.836   2.004 -0.0799 -0.8382  2.1440
 9969SOL    HW235316   2.462   9.724   1.977 -0.8642 -1.4684  1.3645
 9970SOL     OW35317   8.534   1.637   2.893 -0.0924  0.0706  0.8091
 9970SOL    HW135318   8.513   1.557   2.949  1.2450 -0.6122  0.3703
 9970SOL    HW235319   8.499   1.624   2.801  0.9880 -0.4683  0.4595
 9972SOL     OW35320   2.190   3.835   6.163 -0.4124 -0.0790 -0.2229
 9972SOL    HW135321   2.180   3.771   6.087  1.1198  0.0687 -0.5800
 9972SOL    HW235322   2.108   3.892   6.170  0.1877  1.2770 -3.0576
 9974SOL     OW35323   8.965   9.809   7.764  0.1362  0.1169 -0.6920
 9974SOL    HW135324   9.003   9.886   7.713  2.2094 -1.1496 -1.0896
 9974SOL    HW235325   9.002   9.808   7.856 -2.1796  1.3030  0.3064
 9975SOL     OW35326   3.332   3.783   5.771 -0.3837 -0.5023  0.2075
 9975SOL    HW135327   3.239   3.756   5.749  0.6011 -0.8256 -3.8366
 9975SOL    HW235328   3.390   3.702   5.777 -0.1367 -0.2294  1.7713
 9976SOL     OW35329   1.984   0.804   4.815  0.3067 -0.1788 -0.0049
 9976SOL    HW135330   1.962   0.900   4.796  1.0433 -0.0588 -0.2469
 9976SOL    HW235331   2.038   0.766   4.740  0.9756 -0.4620  0.6193
 9977SOL     OW35332   2.375   1.450   5.329  0.0771  0.2260  0.0950
 9977SOL    HW135333   2.367   1.447   5.229  0.5032  0.4398  0.0547
 9977SOL    HW235334   2.460   1.496   5.354  1.6168 -2.7051  0.5046
 9978SOL     OW35335   3.598   7.962   6.693 -0.0590  0.3506  0.0074
 9978SOL    HW135336   3.570   8.015   6.773 -0.0984 -1.3418  1.1413
 9978SOL    HW235337   3.553   7.872   6.695  1.3016 -0.3685 -0.9557
 9979SOL     OW35338   7.248   0.855   6.165 -0.1135 -0.1281 -0.5996
 9979SOL    HW135339   7.287   0.916   6.234 -1.7694  2.0570 -1.5167
 9979SOL    HW235340   7.314   0.843   6.091  0.5783 -0.1632  0.0187
 9980SOL     OW35341   2.263   7.262   0.151 -0.1586  0.2909 -0.3643
 9980SOL    HW135342   2.360   7.284   0.160 -0.0209  0.3917 -1.8812
 9980SOL    HW235343   2.220   7.265   0.241  1.4658 -0.8743  0.4801
 9981SOL     OW35344   0.687   9.130   4.270 -0.3101  0.5063 -0.0516
 9981SOL    HW135345   0.776   9.085   4.274 -1.6247 -2.1228  0.8095
 9981SOL    HW235346   0.668   9.175   4.357 -0.6382 -0.5734  0.4408
 9982SOL     OW35347   9.626   6.048   3.029 -0.0172  0.0306  0.0489
 9982SOL    HW135348   9.589   5.969   3.080  1.2201 -0.7286 -0.2196
 9982SOL    HW235349   9.550   6.098   2.987 -0.8016 -1.1392  0.0416
 9983SOL     OW35350   1.283   4.136   3.518 -0.1120  0.0109 -0.0110
 9983SOL    HW135351   1.205   4.073   3.520 -1.1482  1.2842  0.5088
 9983SOL    HW235352   1.322   4.144   3.609  1.1067 -1.1810 -0.4097
 9984SOL     OW35353   2.664   9.787   6.658 -0.1866  0.5788 -0.0961
 9984SOL    HW135354   2.582   9.770   6.713 -1.0297 -2.1889 -2.0921
 9984SOL    HW235355   2.735   9.825   6.716 -1.3164 -1.4633  2.7457
 9985SOL     OW35356   1.570   2.506   2.611  0.2661 -0.3424  0.8564
 9985SOL    HW135357   1.559   2.428   2.549  0.7803 -0.8021  1.3328
 9985SOL    HW235358   1.606   2.473   2.699  0.0424  0.3737  1.2140
 9987SOL     OW35359   7.879   1.435   0.983 -0.1305 -0.3190  0.2008
 9987SOL    HW135360   7.884   1.530   0.954 -1.4322 -0.2178  0.3030
 9987SOL    HW235361   7.870   1.376   0.902 -2.3781 -0.1327  0.2963
 9988SOL     OW35362   2.651   8.985   5.171  0.2182 -0.1119 -0.3385
 9988SOL    HW135363   2.551   8.995   5.174  0.1005 -1.1960 -0.5451
 9988SOL    HW235364   2.692   9.070   5.138 -0.4857  1.1799  1.9263
 9989SOL     OW35365   0.183   9.226   2.014  0.4109  1.0277 -0.6558
 9989SOL    HW135366   0.281   9.226   2.030  0.0585 -1.1065  1.8841
 9989SOL    HW235367   0.153   9.135   1.987 -1.0160  1.4368 -0.5204
 9991SOL     OW35368   1.764   5.929   1.677 -0.6148 -0.0516 -0.2694
 9991SOL    HW135369   1.804   5.851   1.725  0.2937  0.3514 -0.3647
 9991SOL    HW235370   1.790   6.013   1.724  0.2419  0.3431 -1.4309
 9992SOL     OW35371   6.118   9.203   5.880 -0.0867 -0.3904  0.1044
 9992SOL    HW135372   6.030   9.192   5.833 -0.2789 -1.1797  0.6326
 9992SOL    HW235373   6.102   9.228   5.975  0.2797  0.2907 -0.0144
 9993SOL     OW35374   9.596   8.650   0.157 -0.0987  0.1445 -0.3620
 9993SOL    HW135375   9.555   8.577   0.212  0.3363 -0.8872 -1.3894
 9993SOL    HW235376   9.600   8.734   0.211  0.2887 -0.8381  1.1780
 9994SOL     OW35377   2.677   0.433   0.997 -0.0954 -0.0159  0.2458
 9994SOL    HW135378   2.707   0.512   0.943  0.9856 -0.0330  0.8028
 9994SOL    HW235379   2.707   0.444   1.092 -2.6151  0.3665  1.0489
 9995SOL     OW35380   9.955   7.886   1.025  0.1926 -0.2665  0.4966
 9995SOL    HW135381   9.970   7.838   1.112  0.1640  1.1365  1.2869
 9995SOL    HW235382   9.861   7.920   1.022 -0.2942 -1.6953 -0.7842
 9996SOL     OW35383   8.277   7.243   4.807  0.1157  0.2705 -0.7703
 9996SOL    HW135384   8.301   7.201   4.720  1.0045  0.7935 -0.7930
 9996SOL    HW235385   8.196   7.299   4.797 -0.8415 -1.1127 -0.8319
 9997SOL     OW35386   8.224   6.700   3.297  0.0183 -0.0341  0.6061
 9997SOL    HW135387   8.271   6.731   3.215  1.2918 -0.0315  1.3303
 9997SOL    HW235388   8.156   6.630   3.272  0.6289 -0.2814 -0.3956
 9998SOL     OW35389   3.708   5.721   3.956  0.4515 -0.3532  0.0230
 9998SOL    HW135390   3.660   5.687   3.875 -0.6267  0.8859  0.1309
 9998SOL    HW235391   3.647   5.716   4.036  0.8675  0.2090  0.3806
 9999SOL     OW35392   2.876   6.881   4.147 -0.8661 -0.3126 -0.0690
 9999SOL    HW135393   2.782   6.915   4.147  0.0665  2.3958 -0.7904
 9999SOL    HW235394   2.931   6.934   4.211  0.0777 -2.2037  0.7220
10000SOL     OW35395   4.042   4.165   4.370  0.2193  0.5927  0.6231
10000SOL    HW135396   3.998   4.168   4.281 -0.6945 -0.1519  1.0404
10000SOL    HW235397   4.007   4.240   4.427  0.4370  0.7670  0.5306
10001SOL     OW35398   2.309   4.998   3.022  0.0328  0.1762  0.0953
10001SOL    HW135399   2.289   4.900   3.024 -1.4745  0.4851  0.8002
10001SOL    HW235400   2.241   5.045   2.965 -0.1098  0.9999  0.9351
10002SOL     OW35401   6.091   8.901   3.311  0.0427  0.1861  0.2166
10002SOL    HW135402   6.167   8.864   3.365  1.7571  2.7171 -0.3746
10002SOL    HW235403   6.087   8.854   3.223  1.2184  0.3137  0.0807
10004SOL     OW35404   0.941   0.431   6.317  0.6920 -0.1851 -0.3423
10004SOL    HW135405   0.970   0.526   6.326 -2.2568  0.7735 -0.3695
10004SOL    HW235406   0.920   0.412   6.221  1.5015 -0.9434 -0.3729
10005SOL     OW35407   0.861   8.593   4.892  0.1454  0.0775 -0.6561
10005SOL    HW135408   0.878   8.516   4.953 -0.3598 -2.0300 -3.1069
10005SOL    HW235409   0.947   8.644   4.878  0.5304 -0.1457  0.7603
10006SOL     OW35410   4.160   6.996   6.559  0.1425 -0.0061 -0.4319
10006SOL    HW135411   4.259   7.007   6.561  0.4233 -2.0566  3.2183
10006SOL    HW235412   4.137   6.902   6.587 -2.7734 -0.1830 -3.1749
10007SOL     OW35413   4.081   8.232   6.162  0.3289 -0.1916 -0.1079
10007SOL    HW135414   3.982   8.232   6.169  0.3759  0.0477  0.5569
10007SOL    HW235415   4.112   8.143   6.127 -0.0493 -0.6368  0.6832
10008SOL     OW35416   4.635   8.738   5.819  0.3210  0.2799  0.5095
10008SOL    HW135417   4.622   8.661   5.882 -1.6132  1.5683  1.7524
10008SOL    HW235418   4.564   8.735   5.748  1.5506 -0.2816 -0.7184
10009SOL     OW35419   2.465   1.953   1.728 -0.4235 -0.1220  0.3939
10009SOL    HW135420   2.390   1.953   1.794 -0.2584  0.9421  0.5925
10009SOL    HW235421   2.438   1.902   1.647 -0.6239 -1.4624  1.2855
10010SOL     OW35422   9.168   1.308   0.727  0.2550 -0.2745  0.2617
10010SOL    HW135423   9.082   1.330   0.682  0.9270  1.1756 -0.3523
10010SOL    HW235424   9.202   1.387   0.777  2.8451  0.2465 -2.1820
10011SOL     OW35425   9.418   9.393   6.116  0.2920 -1.0802  0.2975
10011SOL    HW135426   9.455   9.468   6.061  1.5622 -1.4054  0.7025
10011SOL    HW235427   9.326   9.418   6.149  0.4501  0.0325 -0.0951
10012SOL     OW35428   4.606   2.858   4.620 -0.1574 -0.2084 -0.0723
10012SOL    HW135429   4.656   2.942   4.598 -0.5006  0.1893  0.6305
10012SOL    HW235430   4.566   2.820   4.537  2.2915 -1.1766 -0.8509
10013SOL     OW35431   3.355   7.597   1.077  0.1720 -0.1591 -0.1132
10013SOL    HW135432   3.270   7.632   1.036  0.3721  1.2148  0.6225
10013SOL    HW235433   3.433   7.639   1.032  0.4341 -0.3438  0.1733
10014SOL     OW35434   3.734   7.475   4.747  0.0764  0.4650 -0.5288
10014SOL    HW135435   3.834   7.474   4.754  0.2104 -1.0557 -2.2115
10014SOL    HW235436   3.705   7.417   4.670 -2.0265  2.0456 -0.9980
10015SOL     OW35437   7.666   5.977   4.057  0.4105 -0.1448 -0.0929
10015SOL    HW135438   7.722   5.935   4.128  0.0638 -0.3432  0.0659
10015SOL    HW235439   7.622   6.059   4.092 -0.4528 -0.7240  0.1927
10016SOL     OW35440   9.811   7.134   7.177 -0.4863  0.1170 -0.4081
10016SOL    HW135441   9.868   7.063   7.135 -0.4673  0.2375 -0.5794
10016SOL    HW235442   9.723   7.094   7.203 -0.0237 -0.2740  0.5970
10017SOL     OW35443   2.839   6.498   0.167  0.1732 -0.9531 -0.1013
10017SOL    HW135444   2.854   6.563   0.093 -2.7512 -1.0132 -0.8351
10017SOL    HW235445   2.910   6.427   0.165  2.6651  1.4635 -0.0659
10018SOL     OW35446   4.445   3.467   7.323 -0.8170 -0.4325  0.2562
10018SOL    HW135447   4.377   3.394   7.309  0.8985 -2.0142 -0.0286
10018SOL    HW235448   4.492   3.452   7.410  0.2607 -0.2537 -0.2863
10020SOL     OW35449   3.167   3.060   4.875 -0.2849 -0.0621 -0.6703
10020SOL    HW135450   3.151   3.050   4.777 -0.6461  0.8107 -0.7004
10020SOL    HW235451   3.165   2.970   4.919  0.2079 -0.4883 -1.5127
10021SOL     OW35452   8.742   4.632   2.711  0.2307  0.4524  0.1559
10021SOL    HW135453   8.810   4.662   2.777 -1.4262  0.8205  1.7372
10021SOL    HW235454   8.707   4.542   2.737 -0.5205  0.6503 -0.1412
10022SOL     OW35455   9.000   3.772   7.905 -0.0797 -0.0583 -0.1422
10022SOL    HW135456   8.905   3.782   7.936  0.7580  2.7945  1.6859
10022SOL    HW235457   9.050   3.714   7.970 -0.0494  0.1909  0.0575
10023SOL     OW35458   4.649   5.890   3.591  1.0891  0.6090 -0.3962
10023SOL    HW135459   4.663   5.861   3.685 -2.6202  0.9002  0.3508
10023SOL    HW235460   4.612   5.814   3.538  0.5003  1.2202 -0.8725
10024SOL     OW35461   5.672   4.607   2.169  0.6566  0.2907  0.0757
10024SOL    HW135462   5.770   4.626   2.181  0.4396  1.4378  0.0547
10024SOL    HW235463   5.659   4.554   2.086  1.0834  1.6807 -0.8844
10025SOL     OW35464   7.305   8.131   5.313 -0.1337 -0.1901  0.1611
10025SOL    HW135465   7.333   8.082   5.230 -0.3528  0.1801 -0.1336
10025SOL    HW235466   7.321   8.073   5.393 -1.2527 -1.0869 -0.2651
10026SOL     OW35467   4.240   1.534   6.541  0.3720  0.3645 -0.3249
10026SOL    HW135468   4.189   1.619   6.553 -0.0556 -0.2029  2.1558
10026SOL    HW235469   4.332   1.545   6.578  0.2788 -0.3031  0.0968
10027SOL     OW35470   6.661   1.322   3.100 -0.5057  0.1470 -0.3836
10027SOL    HW135471   6.748   1.333   3.052  0.4721  0.3939  1.3964
10027SOL    HW235472   6.669   1.248   3.167 -1.7938 -0.0882 -0.4771
10028SOL     OW35473   9.320   8.111   2.127  0.2980 -0.3779  0.0979
10028SOL    HW135474   9.316   8.198   2.176 -0.9262 -0.0383 -0.5881
10028SOL    HW235475   9.386   8.051   2.172  2.5439  1.5515 -0.4989
10029SOL     OW35476   7.539   6.116   1.609  0.3255 -0.4908  0.4253
10029SOL    HW135477   7.588   6.180   1.549  0.5772 -1.5905 -0.5507
10029SOL    HW235478   7.445   6.147   1.621  0.4572  0.0842 -0.0055
10031SOL     OW35479   0.689   5.309   0.566  0.1983 -0.0037 -0.3143
10031SOL    HW135480   0.663   5.235   0.628 -2.2661  2.0918  1.2608
10031SOL    HW235481   0.607   5.352   0.529  1.5124  3.0401  0.1283
10032SOL     OW35482   7.747   2.961   5.444 -0.0798 -0.0616 -0.2747
10032SOL    HW135483   7.810   3.010   5.504 -0.3459  0.0893 -0.1132
10032SOL    HW235484   7.767   2.864   5.446  0.4351  0.0353 -0.5729
10033SOL     OW35485   4.485   5.327   3.918 -0.3439  0.2973 -0.0936
10033SOL    HW135486   4.534   5.398   3.867 -0.7226 -0.1270 -1.0690
10033SOL    HW235487   4.414   5.369   3.974 -1.0984  0.6164 -1.2843
10034SOL     OW35488   9.859   9.413   3.995 -0.0546  0.1851  0.2949
10034SOL    HW135489   9.878   9.491   4.055 -2.1275  0.2528  0.8993
10034SOL    HW235490   9.762   9.413   3.970  0.4652 -0.7209 -1.8291
10035SOL     OW35491   6.956   9.574   2.496  0.3229  0.3669 -0.3535
10035SOL    HW135492   7.004   9.662   2.484 -0.6718  1.2948  2.1727
10035SOL    HW235493   6.879   9.587   2.559  1.1854 -2.6810  1.4066
10036SOL     OW35494   3.750   6.110   4.083 -0.2623  0.0847  0.2188
10036SOL    HW135495   3.661   6.082   4.046  0.1683 -1.4518  0.3419
10036SOL    HW235496   3.782   6.191   4.033 -1.3611  0.1842 -0.3524
10037SOL     OW35497   0.652   8.892   5.070  0.4747  0.4687 -0.4116
10037SOL    HW135498   0.618   8.860   5.158 -1.4042  2.4565 -0.3611
10037SOL    HW235499   0.742   8.851   5.052 -0.8791 -3.0729  0.5505
10038SOL     OW35500   4.499   6.046   3.852  0.5312 -0.0798 -0.2316
10038SOL    HW135501   4.587   6.091   3.839 -0.1109  1.5774  0.9777
10038SOL    HW235502   4.442   6.060   3.771  0.4309  1.1126  0.0286
10040SOL     OW35503   3.691   1.599   3.467  0.0972 -0.4169 -0.4577
10040SOL    HW135504   3.772   1.631   3.516 -0.1514  0.1019 -0.3869
10040SOL    HW235505   3.691   1.499   3.464  0.5445 -0.4262 -0.1271
10042SOL     OW35506   1.178   5.689   3.689 -0.8373 -0.3149 -0.2383
10042SOL    HW135507   1.232   5.769   3.716 -0.7931 -1.1475  2.2902
10042SOL    HW235508   1.230   5.606   3.710 -3.2677 -1.1584  2.7669
10043SOL     OW35509   4.628   5.433   0.023  0.2328 -0.1380 -0.8416
10043SOL    HW135510   4.706   5.374   0.046  0.1932 -0.1453 -0.7281
10043SOL    HW235511   4.573   5.449   0.105 -0.7238 -1.3682 -1.2174
10045SOL     OW35512   4.068   2.977   3.437 -0.2024  0.0409  0.6821
10045SOL    HW135513   4.094   2.890   3.396 -0.6099 -0.7133  1.9784
10045SOL    HW235514   4.045   2.963   3.534  2.6580  2.0922  1.7337
10046SOL     OW35515   8.601   3.876   3.540 -0.3802  0.2422 -0.0263
10046SOL    HW135516   8.526   3.926   3.497  0.0423  0.3059 -0.7005
10046SOL    HW235517   8.625   3.797   3.484  1.0155  1.0393 -0.5663
10047SOL     OW35518   2.470   5.371   0.814  0.0052 -0.3630  0.3656
10047SOL    HW135519   2.412   5.317   0.875 -0.4325  0.3431  0.5790
10047SOL    HW235520   2.458   5.339   0.720 -1.1578  0.1510  0.3339
10048SOL     OW35521  10.001   7.291   7.491  0.1683 -0.0346 -0.0923
10048SOL    HW135522   9.959   7.327   7.408 -0.8832 -2.1051 -0.4745
10048SOL    HW235523   9.947   7.319   7.570  1.5244  2.4828  0.0005
10049SOL     OW35524   8.799   2.577   5.335 -0.3426 -0.0117 -0.6191
10049SOL    HW135525   8.853   2.654   5.368 -1.2395  0.6521 -0.6569
10049SOL    HW235526   8.839   2.543   5.250  1.5110 -1.2224  0.7061
10051SOL     OW35527   4.233   1.923   0.574  0.2165  0.5771 -0.2506
10051SOL    HW135528   4.205   1.834   0.539 -1.4487  0.5301  1.1458
10051SOL    HW235529   4.330   1.920   0.596 -0.0482 -1.2525  0.8166
10052SOL     OW35530   8.122   5.513   5.050 -0.2013 -0.3263  0.3870
10052SOL    HW135531   8.150   5.579   5.118 -0.3897 -0.1773  0.3183
10052SOL    HW235532   8.023   5.516   5.038 -0.2463 -0.8155  0.5866
10053SOL     OW35533   5.755   2.804   2.403 -0.6143  0.6895 -0.5875
10053SOL    HW135534   5.735   2.900   2.419 -3.0485 -0.0012  0.9004
10053SOL    HW235535   5.678   2.748   2.436 -0.5418 -1.6026 -4.0324
10056SOL     OW35536   5.276   4.397   1.716  0.1938  0.5629 -0.0231
10056SOL    HW135537   5.186   4.383   1.675  0.6857 -0.8016 -0.6617
10056SOL    HW235538   5.305   4.491   1.700 -1.5155  1.2881  1.0048
10057SOL     OW35539   0.877   1.608   6.320  0.0333  0.4365 -0.5022
10057SOL    HW135540   0.887   1.620   6.419  1.5773  0.1668 -0.6182
10057SOL    HW235541   0.780   1.607   6.297 -0.4265 -1.8464  1.3185
10058SOL     OW35542   3.464   7.675   7.573 -0.1860  0.4388 -0.2055
10058SOL    HW135543   3.495   7.607   7.507 -0.6448 -0.9798  1.0221
10058SOL    HW235544   3.365   7.687   7.563 -0.2985  0.0121  0.4257
10059SOL     OW35545   3.543   0.143   1.345 -0.1025 -0.1649 -0.2960
10059SOL    HW135546   3.477   0.071   1.367 -2.3825  1.8352 -0.4121
10059SOL    HW235547   3.532   0.219   1.408  1.2186  0.7728 -1.1657
10060SOL     OW35548   5.479   8.568   3.857 -0.1626 -0.7085 -0.2276
10060SOL    HW135549   5.496   8.665   3.841 -0.2392 -0.6761 -0.1119
10060SOL    HW235550   5.519   8.514   3.783 -0.5109 -0.5589 -0.5271
10062SOL     OW35551   8.180   6.021   2.758 -0.4073 -0.1677  0.0043
10062SOL    HW135552   8.175   6.083   2.680 -0.7484  1.1576  1.0533
10062SOL    HW235553   8.274   6.020   2.793 -0.7048  0.8471  0.8442
10063SOL     OW35554   0.375   8.547   0.092 -0.3018 -0.3022  0.3377
10063SOL    HW135555   0.322   8.622   0.132  0.0527 -1.0293  2.2241
10063SOL    HW235556   0.320   8.464   0.093 -0.4754 -0.2173 -1.2013
10064SOL     OW35557   1.692   4.557   0.561  0.4583 -0.1280  0.1954
10064SOL    HW135558   1.624   4.483   0.565 -0.2565  0.4593 -0.7561
10064SOL    HW235559   1.692   4.597   0.469  1.5601  0.3930  0.4060
10065SOL     OW35560   4.011   4.576   4.764 -0.2991  0.1907 -0.7287
10065SOL    HW135561   4.032   4.487   4.805 -0.6173  0.8651  0.8981
10065SOL    HW235562   4.074   4.592   4.687  1.4892 -0.2817  0.6021
10066SOL     OW35563   4.785   8.595   6.624  0.0764 -0.5449  0.0896
10066SOL    HW135564   4.704   8.614   6.569  0.4485  3.5503  0.7509
10066SOL    HW235565   4.867   8.607   6.568  0.3422  0.2535  0.6367
10067SOL     OW35566   3.045   5.321   2.238 -0.4373  0.6434 -0.3020
10067SOL    HW135567   3.051   5.365   2.149  1.3434  1.2569  0.0990
10067SOL    HW235568   3.133   5.277   2.259 -1.7756 -2.0397 -0.1438
10070SOL     OW35569   0.434   6.476   5.920  0.4920 -0.1545  0.0856
10070SOL    HW135570   0.391   6.561   5.951  1.7561  0.1974  0.8723
10070SOL    HW235571   0.469   6.489   5.827 -0.5711 -0.2688 -0.3415
10071SOL     OW35572   3.699   7.486   5.011  0.3533  0.1440  0.5704
10071SOL    HW135573   3.694   7.475   4.912  1.1917 -0.3337  0.5728
10071SOL    HW235574   3.760   7.416   5.049 -0.4942 -0.1144  1.5019
10072SOL     OW35575   4.406   8.650   3.757 -0.0978 -0.1622  0.4993
10072SOL    HW135576   4.368   8.572   3.806 -0.9144  0.6534  1.1864
10072SOL    HW235577   4.472   8.697   3.815 -0.0370  0.0022  0.2967
10073SOL     OW35578   0.515   3.017   2.844  0.2394  0.9738 -0.2012
10073SOL    HW135579   0.518   3.052   2.751  1.8186  2.1392  0.2730
10073SOL    HW235580   0.593   3.051   2.896  1.2977 -2.4512  0.5821
10074SOL     OW35581   0.580   8.390   0.299 -0.3703  0.2713  0.0246
10074SOL    HW135582   0.544   8.410   0.390 -1.0372  1.2287 -0.4309
10074SOL    HW235583   0.518   8.429   0.230 -0.7029 -1.7653 -0.8754
10075SOL     OW35584   7.688   6.081   0.174  0.1964 -0.2755 -0.0055
10075SOL    HW135585   7.633   6.142   0.117  0.4107 -1.1779 -1.2032
10075SOL    HW235586   7.690   6.115   0.268 -2.3533 -0.1760  0.0547
10076SOL     OW35587   6.367   7.923   3.047  0.7217  0.5657 -0.2261
10076SOL    HW135588   6.312   8.006   3.048 -1.1947 -0.6816  0.0452
10076SOL    HW235589   6.448   7.938   2.991  0.1353  2.4538 -0.6003
10077SOL     OW35590   3.494   3.514   5.710 -0.2786 -0.0054  0.1984
10077SOL    HW135591   3.587   3.518   5.747  0.0972 -0.3931 -0.6974
10077SOL    HW235592   3.494   3.460   5.626 -1.6892 -1.9870  1.4006
10078SOL     OW35593   6.865   2.529   3.376  0.3453  0.1089 -1.0689
10078SOL    HW135594   6.902   2.474   3.301  0.5576 -0.0434 -0.8507
10078SOL    HW235595   6.864   2.625   3.349 -0.8238 -0.0860 -1.7825
10079SOL     OW35596   5.990   7.446   5.067  0.2903 -0.1537  0.4235
10079SOL    HW135597   5.972   7.516   4.998 -0.1402  0.8774  1.5618
10079SOL    HW235598   5.907   7.393   5.084  0.0920  0.3187  0.9444
10080SOL     OW35599   7.077   6.082   3.383 -0.4535  0.0619 -0.5426
10080SOL    HW135600   7.152   6.082   3.317  0.7720  1.0844  0.8340
10080SOL    HW235601   7.024   6.166   3.372 -0.2286  0.2481 -0.2016
10081SOL     OW35602   2.744   4.734   6.798 -0.3621 -0.2771  0.2185
10081SOL    HW135603   2.786   4.729   6.889  0.2814  1.6126  0.0567
10081SOL    HW235604   2.679   4.810   6.796  1.3665  1.2018 -1.5600
10082SOL     OW35605   3.980   2.608   4.764 -0.1741 -0.6453  0.1049
10082SOL    HW135606   3.952   2.512   4.772 -0.6144 -0.8374 -3.1277
10082SOL    HW235607   4.033   2.621   4.680  2.6170  1.3652  2.0546
10083SOL     OW35608   3.242   2.829   3.715 -0.6588  0.1389 -0.1224
10083SOL    HW135609   3.233   2.801   3.619 -1.8545 -0.9107  0.2738
10083SOL    HW235610   3.153   2.859   3.749 -0.6673 -1.3451  1.2121
10084SOL     OW35611   0.748   0.669   6.791 -0.5756  0.0642  0.3534
10084SOL    HW135612   0.785   0.741   6.732 -1.9964 -0.2693 -0.9833
10084SOL    HW235613   0.719   0.709   6.878 -1.9653  1.2585 -0.6297
10085SOL     OW35614   9.866   0.016   3.487 -0.1542  0.0510 -0.3869
10085SOL    HW135615   9.786   0.071   3.510  0.2920  0.5074  0.0545
10085SOL    HW235616   9.884   0.024   3.389  0.1338  0.9834 -0.2601
10087SOL     OW35617   1.043   8.657   7.899  0.0125 -0.1062 -0.0474
10087SOL    HW135618   1.029   8.755   7.911 -1.0417  0.4804 -4.8747
10087SOL    HW235619   1.117   8.642   7.833 -1.4195 -2.4512 -1.2038
10088SOL     OW35620   2.474   2.557   1.236  0.0841  0.6929  0.3449
10088SOL    HW135621   2.380   2.559   1.270  0.2729 -1.6818  1.1124
10088SOL    HW235622   2.478   2.602   1.146 -2.4002 -1.7890 -1.0887
10090SOL     OW35623   3.968   2.037   2.462 -0.5971 -0.0732 -1.0529
10090SOL    HW135624   4.019   2.088   2.393 -0.2273 -0.8289 -1.3428
10090SOL    HW235625   3.893   1.988   2.418 -0.1854 -0.7897 -0.9648
10091SOL     OW35626   6.078   7.852   5.795 -0.2931  0.1799  0.1592
10091SOL    HW135627   6.095   7.826   5.890  1.8254 -1.1665 -0.5508
10091SOL    HW235628   6.081   7.771   5.737  1.2594  1.3102 -1.4206
10092SOL     OW35629   8.982   4.992   6.445 -0.5152  0.1270 -0.0054
10092SOL    HW135630   8.892   5.026   6.471 -0.7332  0.5467 -1.2655
10092SOL    HW235631   9.006   4.915   6.503 -1.7223 -0.0327  0.3022
10093SOL     OW35632   9.449   2.505   4.950 -0.3850  0.4458  0.2158
10093SOL    HW135633   9.482   2.479   5.041  0.6358  2.0341  0.3148
10093SOL    HW235634   9.491   2.445   4.881 -1.3198 -0.8931  0.7891
10094SOL     OW35635   2.740   0.173   7.320  0.0270 -0.2723 -0.1113
10094SOL    HW135636   2.645   0.196   7.300  0.3052  0.3019 -0.7859
10094SOL    HW235637   2.769   0.099   7.259  0.1138 -0.2313 -0.1187
10095SOL     OW35638   3.269   2.571   7.773 -0.0802  0.0684 -0.2895
10095SOL    HW135639   3.262   2.595   7.870 -0.1626  1.8861 -0.7273
10095SOL    HW235640   3.260   2.472   7.762 -2.4504  0.0713  1.3389
10096SOL     OW35641   9.906   1.418   7.269 -0.2867 -0.2854 -0.2033
10096SOL    HW135642   9.900   1.457   7.178  0.8381 -0.3264 -0.3065
10096SOL    HW235643   9.995   1.440   7.309 -0.5803 -0.6795  0.6920
10097SOL     OW35644   2.098   3.321   4.197  1.0697  0.3496 -0.1840
10097SOL    HW135645   2.048   3.242   4.231 -0.0860  1.3881  0.5745
10097SOL    HW235646   2.174   3.290   4.140 -0.6300 -1.2592 -1.6495
10098SOL     OW35647   3.450   2.403   6.114 -0.4673 -0.1243 -0.1719
10098SOL    HW135648   3.438   2.429   6.210 -0.6586 -1.8576  0.2873
10098SOL    HW235649   3.543   2.368   6.101  0.0267  1.4350 -0.9420
10099SOL     OW35650   0.731   7.471   7.004 -0.1270  0.3291  0.1672
10099SOL    HW135651   0.639   7.509   6.991  0.0606  0.2604 -1.3997
10099SOL    HW235652   0.737   7.382   6.959 -0.8317 -2.0485  4.5469
10102SOL     OW35653   8.891   3.815   4.742 -0.3239  0.3635 -0.0063
10102SOL    HW135654   8.938   3.844   4.660  0.0929 -0.4966 -0.0762
10102SOL    HW235655   8.924   3.868   4.821  2.7680 -2.0693  0.4283
10103SOL     OW35656   3.499   3.937   5.622 -0.1212  0.1463 -0.6376
10103SOL    HW135657   3.591   3.907   5.646 -0.2220  0.2478 -0.1064
10103SOL    HW235658   3.433   3.895   5.684 -0.1561  2.3047  0.8441
10104SOL     OW35659   1.476   1.505   0.224 -0.8177  0.0826  0.5921
10104SOL    HW135660   1.484   1.421   0.278 -0.4151 -0.0830  0.2767
10104SOL    HW235661   1.496   1.486   0.128  0.8619  0.8408  0.7694
10106SOL     OW35662   8.607   6.545   5.324  0.2618 -0.2020 -0.0620
10106SOL    HW135663   8.507   6.543   5.330  0.2949  0.3237  0.7302
10106SOL    HW235664   8.645   6.561   5.415  1.0208  0.9396 -0.5721
10107SOL     OW35665   8.716   5.741   1.103 -0.4731  0.3947 -0.4643
10107SOL    HW135666   8.796   5.796   1.127  0.8721 -0.1776 -3.3977
10107SOL    HW235667   8.726   5.649   1.141 -0.1831  0.6204  0.0008
10108SOL     OW35668   4.086   5.460   3.217  0.0502  0.0210 -0.3470
10108SOL    HW135669   4.180   5.447   3.248 -0.2346  0.5000  0.7503
10108SOL    HW235670   4.031   5.380   3.242  0.2225 -0.3851 -1.2425
10110SOL     OW35671   6.367   5.784   2.088  0.0456  0.0807  0.1365
10110SOL    HW135672   6.284   5.787   2.144 -0.1245  0.4335 -0.1349
10110SOL    HW235673   6.355   5.717   2.014  0.2008 -0.2488  0.4043
10111SOL     OW35674   4.355   2.697   6.149 -0.2328  0.0238 -0.6062
10111SOL    HW135675   4.296   2.766   6.107 -0.9040 -1.2701 -1.8471
10111SOL    HW235676   4.433   2.679   6.089 -1.1239 -1.7400 -1.2754
10112SOL     OW35677   1.566   4.517   1.486  0.2985  0.3094  0.3698
10112SOL    HW135678   1.620   4.545   1.407 -0.8406  1.4231 -0.0289
10112SOL    HW235679   1.611   4.549   1.570  1.1475 -0.2832  0.1524
10114SOL     OW35680   7.319   4.874   2.478 -0.3935  0.3495 -0.1533
10114SOL    HW135681   7.388   4.944   2.460  0.4112 -0.9261 -2.1458
10114SOL    HW235682   7.282   4.840   2.392 -3.1467  0.6167  0.8786
10116SOL     OW35683   3.222   6.221   7.511 -0.0170 -0.5448  0.4320
10116SOL    HW135684   3.165   6.294   7.550  0.6935  0.7527 -0.9408
10116SOL    HW235685   3.171   6.174   7.439  0.2606 -0.1055 -0.0467
10117SOL     OW35686   4.459   6.008   1.487  0.5142 -0.3788  0.3373
10117SOL    HW135687   4.360   5.992   1.482  0.5641 -0.0509 -2.3696
10117SOL    HW235688   4.503   5.929   1.532 -0.6532 -1.9394 -1.1948
10118SOL     OW35689   1.851   1.622   4.541 -0.6540  0.8753 -0.3192
10118SOL    HW135690   1.930   1.561   4.546 -1.3846 -0.1209 -0.6730
10118SOL    HW235691   1.811   1.631   4.632 -0.9409  0.2804 -0.3808
10119SOL     OW35692   0.009   8.179   2.461  0.4563 -0.1408 -0.7909
10119SOL    HW135693  -0.027   8.086   2.456 -0.2244  0.1013 -0.4027
10119SOL    HW235694  -0.063   8.244   2.437  0.5972  0.3470  0.0833
10120SOL     OW35695   9.454   4.570   1.947  0.5544  0.1481  0.1850
10120SOL    HW135696   9.543   4.586   1.904  0.7272 -0.2969  0.3716
10120SOL    HW235697   9.394   4.523   1.882 -0.0122  1.6925 -0.4234
10121SOL     OW35698   2.567   5.667   2.444  0.5044 -0.1593 -0.8297
10121SOL    HW135699   2.505   5.664   2.365  1.2107  0.1529 -1.4100
10121SOL    HW235700   2.618   5.581   2.450  1.3440  0.2735 -1.4689
10122SOL     OW35701   6.238   1.402   1.231  0.4307 -0.0262  0.0984
10122SOL    HW135702   6.291   1.323   1.200  2.3693  1.5005 -0.5391
10122SOL    HW235703   6.266   1.425   1.325  1.2675  1.0881 -0.4203
10126SOL     OW35704   0.255   2.005   4.544  0.1560 -0.0671 -0.3030
10126SOL    HW135705   0.206   1.993   4.631 -0.7275  0.4351 -0.7279
10126SOL    HW235706   0.348   1.969   4.553 -0.4722 -1.5944  0.3391
10128SOL     OW35707   7.133   2.274   3.994 -0.5730  0.1287  0.5836
10128SOL    HW135708   7.064   2.214   4.037  1.7746 -3.2965 -0.2122
10128SOL    HW235709   7.134   2.258   3.896  1.2745  0.2193  0.5780
10129SOL     OW35710   3.080   3.563   6.438  0.7501  0.9026 -0.3482
10129SOL    HW135711   3.070   3.465   6.422 -4.0417  0.6325  3.3320
10129SOL    HW235712   3.058   3.613   6.354 -3.5350 -1.0397 -0.5206
10133SOL     OW35713   7.628   0.309   6.517 -0.3706 -0.4664 -0.0414
10133SOL    HW135714   7.593   0.216   6.501 -0.3883 -0.4147 -0.3015
10133SOL    HW235715   7.580   0.349   6.595 -1.1954 -0.2494 -0.6400
10134SOL     OW35716   3.680   6.057   0.923  1.0139 -0.0747 -0.6469
10134SOL    HW135717   3.722   6.058   0.832  2.9242  1.6851  0.2289
10134SOL    HW235718   3.744   6.093   0.990 -1.3852  1.3172  0.9731
10135SOL     OW35719   0.118   6.486   5.025  0.2864  0.1039 -0.5704
10135SOL    HW135720   0.038   6.450   4.977  1.0553 -3.3659  0.5524
10135SOL    HW235721   0.201   6.463   4.973  0.7403  1.2158 -0.3436
10136SOL     OW35722   3.703   5.777   1.014 -0.2380 -0.2892 -0.1643
10136SOL    HW135723   3.752   5.803   1.097 -1.7670  0.0067  0.6751
10136SOL    HW235724   3.678   5.859   0.963 -0.2968 -0.4056 -0.3217
10137SOL     OW35725   9.819   9.477   4.744 -0.1633 -0.3946  1.0732
10137SOL    HW135726   9.906   9.436   4.770  0.3801 -0.1239 -0.2814
10137SOL    HW235727   9.745   9.437   4.799  0.8969 -0.0579  2.7901
10138SOL     OW35728   7.733   9.408   7.907  0.0782  0.1620  0.0201
10138SOL    HW135729   7.642   9.418   7.947  0.2526 -0.7749  0.6661
10138SOL    HW235730   7.785   9.493   7.921 -0.5279  0.5227  0.0831
10139SOL     OW35731   6.618   8.904   2.654 -0.2051  0.4803 -0.1232
10139SOL    HW135732   6.582   8.961   2.728  2.1755  2.5017 -0.4448
10139SOL    HW235733   6.630   8.810   2.687  0.9736  1.3827  2.1287
10140SOL     OW35734   1.273   8.325   7.230  0.3856 -0.0019  0.0336
10140SOL    HW135735   1.232   8.242   7.192 -0.7095  0.5501  0.0228
10140SOL    HW235736   1.222   8.353   7.311 -0.2253  1.6041 -0.9079
10141SOL     OW35737   6.205   1.696   1.647  0.3705  0.9511 -0.1287
10141SOL    HW135738   6.154   1.752   1.582 -0.3328  0.4865  0.0256
10141SOL    HW235739   6.196   1.734   1.739  0.7332  1.1668 -0.1808
10142SOL     OW35740   0.904   1.559   5.977  0.5159  0.0428 -0.2457
10142SOL    HW135741   0.884   1.647   6.020  0.6349  1.0538 -2.1815
10142SOL    HW235742   0.950   1.576   5.889  0.6519 -1.9661 -0.5665
10143SOL     OW35743   0.044   1.869   6.261  0.4015  0.3601 -0.0322
10143SOL    HW135744  -0.037   1.890   6.315 -0.0013  1.1000 -0.9158
10143SOL    HW235745   0.027   1.786   6.207  0.9703 -0.6486  1.3019
10144SOL     OW35746   6.323   3.259   2.446 -0.4007 -0.3044 -0.2026
10144SOL    HW135747   6.350   3.334   2.507 -0.1909 -0.0325 -0.6242
10144SOL    HW235748   6.302   3.178   2.500  1.8228 -0.6943  0.0959
10146SOL     OW35749   3.553   1.938   3.213  0.4489  0.3133 -0.1393
10146SOL    HW135750   3.582   1.986   3.295 -1.0818  0.7560  0.1547
10146SOL    HW235751   3.601   1.850   3.207  1.9264  1.0769  0.2536
10148SOL     OW35752   1.291   6.384   2.533  0.1133 -0.6175  0.3899
10148SOL    HW135753   1.198   6.363   2.560  0.7957 -0.4607  3.0301
10148SOL    HW235754   1.307   6.483   2.543  0.2030 -0.4478 -1.2737
10150SOL     OW35755   8.734   2.831   7.882  0.6073 -0.1389 -0.1506
10150SOL    HW135756   8.635   2.844   7.884  0.7707  1.1145  2.2274
10150SOL    HW235757   8.764   2.808   7.789 -2.0529 -1.8912 -0.6122
10151SOL     OW35758   2.354   9.517   7.932 -0.0948 -0.4033  0.0141
10151SOL    HW135759   2.394   9.472   7.852 -1.2116 -0.0991 -0.7199
10151SOL    HW235760   2.325   9.448   7.998  0.7219 -0.6592  0.1040
10152SOL     OW35761   9.691   1.454   6.503  0.5050 -0.6194 -0.4407
10152SOL    HW135762   9.701   1.405   6.416  2.1875 -0.1423 -0.5317
10152SOL    HW235763   9.598   1.442   6.537 -0.0479 -1.2010 -2.0783
10153SOL     OW35764   0.022   7.219   0.522 -0.4617 -0.2652  0.0003
10153SOL    HW135765   0.023   7.246   0.619 -1.0936 -0.3654  0.0396
10153SOL    HW235766   0.089   7.274   0.472 -0.1357 -0.2051  0.4927
10154SOL     OW35767   8.797   3.970   1.668 -0.4722  0.2352  0.4075
10154SOL    HW135768   8.804   3.880   1.712 -1.5374  0.1808  0.4795
10154SOL    HW235769   8.857   3.972   1.588 -0.0052 -0.3399  0.7332
10155SOL     OW35770   5.271   3.360   0.055 -0.0044  0.1910  0.0344
10155SOL    HW135771   5.342   3.290   0.060  1.1636  1.3930  0.4984
10155SOL    HW235772   5.232   3.375   0.146 -1.9153 -1.5076 -0.4566
10156SOL     OW35773   3.931   2.523   1.121 -0.2747 -0.0088 -0.3563
10156SOL    HW135774   4.020   2.529   1.074  1.0086 -0.9024  1.9035
10156SOL    HW235775   3.910   2.611   1.163  0.0992 -0.1264  0.0818
10158SOL     OW35776   6.758   9.834   4.208 -0.0137 -0.6726 -0.2206
10158SOL    HW135777   6.795   9.840   4.116  3.9956 -1.2943  1.2559
10158SOL    HW235778   6.703   9.915   4.227  0.0518  0.0067 -2.7382
10159SOL     OW35779   8.536   2.697   6.165 -0.3460  0.4901  0.1687
10159SOL    HW135780   8.501   2.653   6.082 -1.2614  2.7207 -0.6769
10159SOL    HW235781   8.551   2.628   6.236 -0.2053 -1.3624 -1.6133
10160SOL     OW35782   7.834   1.926   1.884 -0.3569  0.4049 -0.0595
10160SOL    HW135783   7.826   1.982   1.802 -0.7270  0.9065  0.3206
10160SOL    HW235784   7.877   1.839   1.860  0.8983  1.1340 -0.5188
10161SOL     OW35785   4.586   2.300   5.919 -0.3396 -0.0815 -0.2612
10161SOL    HW135786   4.668   2.344   5.955 -0.1310  0.2793 -1.1729
10161SOL    HW235787   4.592   2.201   5.934  0.4898 -0.1127 -0.7650
10162SOL     OW35788   1.125   0.847   2.576  0.3167  0.2426 -0.5818
10162SOL    HW135789   1.141   0.779   2.505 -0.9336 -0.6525 -0.0133
10162SOL    HW235790   1.178   0.823   2.657 -1.2139 -0.8586  0.1161
10163SOL     OW35791   4.755   6.238   3.069 -0.5259  0.0183 -0.1908
10163SOL    HW135792   4.720   6.256   3.161  1.3132  0.9327  0.3600
10163SOL    HW235793   4.816   6.313   3.042  2.0229 -2.1312 -0.5913
10165SOL     OW35794   4.441   8.518   6.200 -0.1499 -0.2646  0.2174
10165SOL    HW135795   4.391   8.582   6.258 -1.8809 -0.5577 -0.9369
10165SOL    HW235796   4.454   8.432   6.248 -1.0520 -0.3017  0.3962
10166SOL     OW35797   3.342   7.184   0.304 -0.3368 -1.1835 -0.2044
10166SOL    HW135798   3.396   7.127   0.243 -1.4768  0.6976 -3.0863
10166SOL    HW235799   3.255   7.139   0.324  0.4697 -2.2734  0.9489
10167SOL     OW35800   0.773   1.843   1.625 -0.2850  0.1985 -0.1238
10167SOL    HW135801   0.710   1.846   1.548 -1.0166 -0.6496  0.4310
10167SOL    HW235802   0.724   1.815   1.707  0.5423  0.8316  0.5963
10168SOL     OW35803   1.542   6.628   0.858  0.0007  0.1766  0.3969
10168SOL    HW135804   1.507   6.601   0.769 -1.2319 -1.6432  1.4185
10168SOL    HW235805   1.506   6.719   0.882 -0.7322  0.0913 -0.3665
10169SOL     OW35806   8.528   6.757   3.828  0.2059  0.3615 -0.0249
10169SOL    HW135807   8.451   6.785   3.771  0.4997  1.0339 -0.1104
10169SOL    HW235808   8.518   6.662   3.856 -1.3386  0.8522  1.1037
10170SOL     OW35809   1.516   0.244   1.714  0.5998 -0.6524  0.1517
10170SOL    HW135810   1.554   0.336   1.704  0.1878 -0.6797 -1.8903
10170SOL    HW235811   1.438   0.247   1.778  1.6429  0.0785  1.4189
10171SOL     OW35812   7.904   2.920   5.039  0.3458  0.2574  0.0602
10171SOL    HW135813   7.850   2.871   4.970  1.3721  0.4834 -0.9236
10171SOL    HW235814   7.847   2.989   5.083 -0.6297 -0.6328  0.2336
10172SOL     OW35815   0.523   4.168   0.731  0.2042 -0.2739  0.1836
10172SOL    HW135816   0.597   4.102   0.726 -1.6906 -2.3913 -0.6774
10172SOL    HW235817   0.508   4.209   0.641  1.3447  1.3169  0.7040
10173SOL     OW35818   8.154   5.609   1.985 -0.0395 -0.4177 -0.1572
10173SOL    HW135819   8.206   5.667   1.922  0.7167 -1.0566 -0.1348
10173SOL    HW235820   8.208   5.527   2.007 -0.2928 -0.2125  1.3098
10174SOL     OW35821   8.653   4.662   0.328 -0.4520  0.5715  0.2558
10174SOL    HW135822   8.680   4.586   0.387  2.2279  1.0472 -0.2969
10174SOL    HW235823   8.683   4.644   0.234 -3.3725  0.4907 -0.7111
10175SOL     OW35824   5.677   1.437   7.694 -0.2497 -0.0848 -0.2986
10175SOL    HW135825   5.672   1.533   7.720 -0.6360 -0.4970  1.1648
10175SOL    HW235826   5.712   1.430   7.600  0.9209  1.4301 -0.0028
10176SOL     OW35827   6.765   2.716   4.258 -0.4687  0.2886 -0.4682
10176SOL    HW135828   6.855   2.692   4.224  0.5020  0.7554  1.6701
10176SOL    HW235829   6.714   2.765   4.188  0.7354 -0.4274 -1.8659
10177SOL     OW35830   7.661   6.294   3.857 -0.4050  0.3018  0.4743
10177SOL    HW135831   7.715   6.219   3.819 -1.8100 -1.0106  1.0147
10177SOL    HW235832   7.698   6.320   3.946 -1.0496 -1.0405  1.1436
10178SOL     OW35833   8.632   8.588   4.433  0.3019 -0.2184 -0.0950
10178SOL    HW135834   8.626   8.492   4.408 -0.0666  0.1388 -1.4455
10178SOL    HW235835   8.539   8.625   4.447  0.4846 -0.3063  1.4346
10179SOL     OW35836   2.448   7.117   0.870  0.0629  0.4229  0.1937
10179SOL    HW135837   2.518   7.049   0.893  1.6248  1.1284 -2.3053
10179SOL    HW235838   2.469   7.203   0.917  0.6251  0.4851 -0.1579
10180SOL     OW35839   3.028   4.909   7.082  0.8274  0.2678  0.2289
10180SOL    HW135840   2.965   4.846   7.125 -0.3874  0.5557 -1.0873
10180SOL    HW235841   3.051   4.876   6.990 -0.3171  2.0233 -0.7216
10181SOL     OW35842   4.779   1.967   5.353  0.6368  0.3341  0.0541
10181SOL    HW135843   4.866   1.995   5.311  0.2038  1.3238 -0.2075
10181SOL    HW235844   4.770   2.010   5.443 -0.5897  2.0547 -0.8680
10182SOL     OW35845   3.147   4.951   7.366 -0.0981 -0.3794 -0.8320
10182SOL    HW135846   3.234   4.952   7.415  0.0232 -0.7047 -1.0419
10182SOL    HW235847   3.165   4.954   7.267 -0.3185 -0.7989 -0.8827
10184SOL     OW35848   8.210   4.304   0.613 -0.0720  0.1868  0.1650
10184SOL    HW135849   8.213   4.250   0.530  1.4417  0.9607 -0.2982
10184SOL    HW235850   8.255   4.254   0.687 -2.7104 -1.1519  0.9510
10186SOL     OW35851   9.098   1.115   5.213 -0.2614  0.4363  0.4533
10186SOL    HW135852   9.045   1.113   5.128 -0.4070  1.4726  0.5122
10186SOL    HW235853   9.174   1.051   5.207 -0.7059 -0.0350 -0.1754
10188SOL     OW35854   3.855   0.463   0.442  0.1807 -0.2277  0.2079
10188SOL    HW135855   3.786   0.448   0.371 -0.2476 -0.4514  0.6710
10188SOL    HW235856   3.945   0.475   0.399 -0.1820  0.2919 -0.4072
10190SOL     OW35857   5.441   8.305   4.481 -0.1059 -0.0992 -0.0109
10190SOL    HW135858   5.524   8.330   4.531  0.0145  0.8778 -0.6853
10190SOL    HW235859   5.454   8.215   4.438  0.7704  0.2326 -0.4617
10192SOL     OW35860   3.327   8.865   0.884 -0.1956 -0.2372  0.6191
10192SOL    HW135861   3.319   8.767   0.898 -0.4394 -0.0678  1.6885
10192SOL    HW235862   3.306   8.913   0.969 -1.7793  0.8198 -0.3438
10193SOL     OW35863   9.471   4.019   6.687 -0.3730  0.3974 -0.4991
10193SOL    HW135864   9.490   4.015   6.589  0.1257 -2.0269 -0.3538
10193SOL    HW235865   9.545   4.067   6.734  1.4871 -2.0286 -0.8690
10195SOL     OW35866   2.967   7.407   4.149  0.1635  0.2383  0.3844
10195SOL    HW135867   3.017   7.457   4.220 -0.1575 -0.0606  0.8333
10195SOL    HW235868   2.891   7.464   4.116 -0.2722  0.0150  0.9771
10196SOL     OW35869   3.941   8.208   2.020  0.4069 -0.0249 -0.2971
10196SOL    HW135870   3.865   8.143   2.019  1.6641 -1.5192 -0.9532
10196SOL    HW235871   3.905   8.301   2.030 -1.3530 -0.8849  1.9487
10197SOL     OW35872   3.153   5.290   3.418  0.2865 -0.0954  0.8078
10197SOL    HW135873   3.224   5.223   3.396  1.7024  2.3205 -2.3156
10197SOL    HW235874   3.063   5.251   3.400  1.1086 -0.9920 -1.5420
10198SOL     OW35875   8.698   5.994   6.508 -0.2051 -0.2623  0.1336
10198SOL    HW135876   8.724   5.973   6.603  1.2349  0.8812  0.0048
10198SOL    HW235877   8.613   6.046   6.507 -0.3746 -0.5228  0.7865
10200SOL     OW35878   1.489   5.504   1.440  0.0097 -0.5640  0.0527
10200SOL    HW135879   1.410   5.539   1.491  0.1085 -0.7539  0.3375
10200SOL    HW235880   1.569   5.502   1.500  0.4169  0.3491 -0.4543
10201SOL     OW35881   4.834   5.290   2.316 -0.2015  0.4239  0.3378
10201SOL    HW135882   4.865   5.242   2.398  0.5728  0.3352 -0.0061
10201SOL    HW235883   4.789   5.226   2.254  0.0166  0.3231  0.2856
10202SOL     OW35884   7.237   1.202   1.124 -0.4817 -0.1226  0.1431
10202SOL    HW135885   7.249   1.279   1.060 -1.6761  1.5173  1.8603
10202SOL    HW235886   7.145   1.166   1.115  0.3041 -1.8633 -1.1702
10203SOL     OW35887   2.764   8.146   0.964 -0.7325 -0.2085  0.6453
10203SOL    HW135888   2.805   8.102   1.043 -0.5981 -0.2113  0.5741
10203SOL    HW235889   2.766   8.245   0.976  5.1563  0.1819 -2.1865
10204SOL     OW35890   1.431   0.938   3.499 -0.2227  0.0227  0.1706
10204SOL    HW135891   1.337   0.959   3.474 -0.4075  1.0537  1.6927
10204SOL    HW235892   1.432   0.870   3.572  0.2321 -0.4443 -0.2638
10205SOL     OW35893   2.586   5.738   3.591  0.0009  0.1739 -0.0098
10205SOL    HW135894   2.626   5.648   3.573 -0.5602  0.1333 -1.1358
10205SOL    HW235895   2.487   5.729   3.602 -0.1113  0.7103 -0.5718
10207SOL     OW35896   7.131   8.413   2.503 -0.1161  0.3232  0.1922
10207SOL    HW135897   7.078   8.402   2.419  0.0488 -1.5418  0.3023
10207SOL    HW235898   7.223   8.446   2.481 -0.3381  0.6396 -0.2710
10209SOL     OW35899   1.624   9.917   4.014 -0.2561 -0.0343 -0.0644
10209SOL    HW135900   1.653   9.823   3.996 -1.9195 -0.7305  0.7523
10209SOL    HW235901   1.583   9.956   3.931 -0.7951 -0.5000 -0.0166
10210SOL     OW35902   8.979   9.591   5.868  0.5981  0.5038  0.1408
10210SOL    HW135903   9.076   9.571   5.856  0.2925 -0.9051  0.0023
10210SOL    HW235904   8.925   9.532   5.809 -0.3474  1.3645  0.1264
10211SOL     OW35905   1.472   8.696   0.381  0.0447  0.0566 -0.1190
10211SOL    HW135906   1.570   8.709   0.397  0.3757 -2.6511  0.2280
10211SOL    HW235907   1.448   8.599   0.391 -2.3052  0.3540 -2.2092
10212SOL     OW35908   2.819   8.788   2.333  0.3263 -0.7944 -0.0786
10212SOL    HW135909   2.828   8.888   2.342 -1.4954 -0.6913  0.8585
10212SOL    HW235910   2.830   8.745   2.422  2.0979 -1.5468 -0.6355
10213SOL     OW35911   4.087   6.567   7.553  0.2130  0.0846  0.4175
10213SOL    HW135912   4.114   6.561   7.457 -2.1838 -0.5783 -0.2560
10213SOL    HW235913   4.130   6.493   7.605  0.4900 -0.3446 -0.4231
10216SOL     OW35914   6.272   0.226   3.723 -0.4180  0.0134  0.0329
10216SOL    HW135915   6.222   0.163   3.664  0.1627  1.1573 -1.7259
10216SOL    HW235916   6.237   0.319   3.709 -0.4947  0.2607  1.7542
10217SOL     OW35917   6.841   8.360   3.040 -0.0320 -0.3305 -0.0070
10217SOL    HW135918   6.860   8.262   3.046 -1.6095 -0.8409 -2.5937
10217SOL    HW235919   6.742   8.375   3.036  0.2268  1.2680 -0.9964
10218SOL     OW35920   9.342   3.350   1.924  0.0676 -0.3831  0.4658
10218SOL    HW135921   9.277   3.288   1.967  0.9078 -1.1701  0.6165
10218SOL    HW235922   9.378   3.413   1.993  0.0472 -0.4598  0.5465
10219SOL     OW35923   5.327   5.635   1.784  0.0780  0.0373  0.2478
10219SOL    HW135924   5.298   5.721   1.741  0.7165 -0.6658 -1.6245
10219SOL    HW235925   5.247   5.586   1.818 -0.4994  0.2902 -0.7341
10221SOL     OW35926   9.862   7.082   3.798 -0.1076 -0.6029  0.1895
10221SOL    HW135927   9.931   7.106   3.731 -1.1256 -0.6284 -0.8929
10221SOL    HW235928   9.866   6.983   3.817  0.5583 -0.4996  0.6156
10223SOL     OW35929   5.705   0.496   5.328  0.0611 -0.1303  0.3701
10223SOL    HW135930   5.709   0.453   5.238 -0.1030 -2.5509  1.4949
10223SOL    HW235931   5.623   0.553   5.335  0.0355 -0.0016 -0.9628
10224SOL     OW35932   9.259   2.495   5.752  0.2885  0.2412  0.2646
10224SOL    HW135933   9.296   2.572   5.805 -1.0198  1.2892 -0.3029
10224SOL    HW235934   9.159   2.501   5.751  0.1832 -1.4982  0.2387
10225SOL     OW35935   6.066   1.217   0.071  0.1407  0.4494 -0.1274
10225SOL    HW135936   6.052   1.136   0.128 -0.2397 -0.4084 -1.4263
10225SOL    HW235937   6.028   1.297   0.117  1.3810  0.0665  1.6087
10226SOL     OW35938   4.900   1.624   4.588  0.4863 -0.4693  0.1140
10226SOL    HW135939   4.815   1.676   4.578 -1.0354 -2.5247  1.8826
10226SOL    HW235940   4.887   1.532   4.552  1.5749 -1.1589  1.4413
10228SOL     OW35941   9.588   5.283   7.101 -0.4045 -0.5169 -0.8717
10228SOL    HW135942   9.613   5.186   7.099 -1.8499 -0.8949 -1.0083
10228SOL    HW235943   9.577   5.313   7.196  1.7427 -0.0108 -0.7373
10229SOL     OW35944   2.009   1.646   1.584 -0.2611 -0.7181 -0.0601
10229SOL    HW135945   2.072   1.570   1.569  1.8525  1.2856 -1.5528
10229SOL    HW235946   1.957   1.663   1.500 -1.6464 -1.3190  0.6638
10230SOL     OW35947   1.307   2.683   1.247  0.6998 -0.3996  0.8026
10230SOL    HW135948   1.214   2.706   1.276  1.1215 -0.3229  2.1161
10230SOL    HW235949   1.318   2.584   1.245  0.3666 -0.4176 -0.0640
10231SOL     OW35950   3.907   0.709   2.401 -0.1111 -0.2475 -0.0743
10231SOL    HW135951   3.835   0.762   2.356 -0.5028 -0.9858 -0.3223
10231SOL    HW235952   3.978   0.771   2.434 -0.9128  0.5011  0.2771
10234SOL     OW35953   4.556   0.435   7.034  0.3585  0.2201  0.1665
10234SOL    HW135954   4.648   0.434   7.075 -0.2534  2.6339  1.7291
10234SOL    HW235955   4.494   0.383   7.093  0.2590  0.4951  0.3038
10235SOL     OW35956   8.849   9.565   3.875 -0.2008 -0.3558  0.2540
10235SOL    HW135957   8.860   9.656   3.915  2.1320 -0.6761  0.3820
10235SOL    HW235958   8.800   9.506   3.940 -2.0989  0.8779  0.0055
10236SOL     OW35959   8.895   3.247   0.370 -0.4345  0.3958  0.3037
10236SOL    HW135960   8.890   3.269   0.273 -2.2921  1.0875  0.5303
10236SOL    HW235961   8.988   3.261   0.403  0.6278 -1.6682 -1.7810
10237SOL     OW35962   4.363   8.920   7.600  0.3688 -0.3496 -0.2586
10237SOL    HW135963   4.414   8.978   7.664  0.0109 -0.5309  0.1890
10237SOL    HW235964   4.298   8.976   7.548 -0.8295 -0.5288  1.0185
10238SOL     OW35965   3.271   8.888   6.598  0.4835 -0.0939  0.6323
10238SOL    HW135966   3.257   8.800   6.644  0.7080  0.2950  1.4466
10238SOL    HW235967   3.190   8.945   6.611 -0.0637 -0.5343 -0.7190
10239SOL     OW35968   0.476   5.279   3.256 -0.4276 -0.0369 -0.1467
10239SOL    HW135969   0.521   5.190   3.261  0.1602  0.1762 -1.4897
10239SOL    HW235970   0.474   5.321   3.347  4.3921  1.0666 -0.4291
10240SOL     OW35971   6.078   0.690   6.924 -0.3343  0.7541  0.6096
10240SOL    HW135972   5.987   0.648   6.924 -0.5661  1.1961 -2.4456
10240SOL    HW235973   6.147   0.619   6.911 -0.4519  0.8125 -0.3274
10242SOL     OW35974   9.617   5.524   4.944 -0.3600  0.6802 -0.0022
10242SOL    HW135975   9.523   5.546   4.919 -0.4993 -0.2190 -0.2639
10242SOL    HW235976   9.619   5.439   4.996  0.1693  1.3892  1.1542
10243SOL     OW35977   2.341   0.165   3.448 -0.1298 -0.1247  0.1630
10243SOL    HW135978   2.401   0.164   3.528  0.6177 -1.2313 -0.3990
10243SOL    HW235979   2.367   0.240   3.387 -0.0925  0.1335  0.4926
10245SOL     OW35980   2.776   7.047   2.977  0.4829  0.2571 -0.6421
10245SOL    HW135981   2.782   6.972   2.911 -0.9707 -1.7757  1.4703
10245SOL    HW235982   2.833   7.025   3.056  2.9967  3.1251 -1.5697
10246SOL     OW35983   7.114   5.820   2.845  0.6635  0.9481 -0.0264
10246SOL    HW135984   7.083   5.742   2.792  0.2627  1.5694 -0.7185
10246SOL    HW235985   7.147   5.789   2.934  1.4862 -0.1074 -0.6972
10247SOL     OW35986   3.547   7.282   3.352 -0.7742 -0.4087  0.0685
10247SOL    HW135987   3.582   7.205   3.299  0.3871 -0.6199  1.1339
10247SOL    HW235988   3.614   7.309   3.420 -1.9820  0.3038  0.9943
10248SOL     OW35989   0.910   8.142   7.633 -0.1208 -0.5122  0.4355
10248SOL    HW135990   0.921   8.059   7.579  1.2594  0.1984 -0.4036
10248SOL    HW235991   0.813   8.166   7.637 -0.5492 -2.2495  0.8483
10249SOL     OW35992   0.315   2.274   6.036  0.2980  0.3982 -0.2676
10249SOL    HW135993   0.281   2.304   6.125  0.9808  0.4641 -0.0289
10249SOL    HW235994   0.388   2.207   6.049 -0.1676 -0.2106 -0.7844
10250SOL     OW35995   2.526   8.293   6.472  0.3721  0.2541 -0.1725
10250SOL    HW135996   2.505   8.321   6.378  1.5605  1.2683 -0.1358
10250SOL    HW235997   2.477   8.207   6.492 -0.0047  0.1018 -1.6580
10251SOL     OW35998   8.088   4.886   6.178 -0.2650  0.1257  0.1375
10251SOL    HW135999   8.020   4.826   6.222 -2.5219  2.3133 -0.2658
10251SOL    HW236000   8.132   4.943   6.247 -2.7864  2.5488 -0.1877
10252SOL     OW36001   0.512   8.320   5.265  0.3494 -0.2585 -0.0310
10252SOL    HW136002   0.601   8.297   5.306 -0.4043 -1.3398  1.0273
10252SOL    HW236003   0.452   8.356   5.337 -0.8243 -1.6922 -0.2733
10254SOL     OW36004   2.019   8.303   3.514  0.5716 -0.4039 -0.3505
10254SOL    HW136005   2.011   8.368   3.589  0.7234 -0.4526 -0.2917
10254SOL    HW236006   1.942   8.314   3.451  1.3830  0.8859 -1.1547
10255SOL     OW36007   1.279   4.006   4.290  0.8109 -0.1659  0.6086
10255SOL    HW136008   1.229   3.996   4.377  0.1551  0.5544  0.3269
10255SOL    HW236009   1.293   4.103   4.272  2.8336 -0.3836  0.9578
10256SOL     OW36010   8.227   6.016   1.770  0.6162  0.1487 -0.2236
10256SOL    HW136011   8.160   5.948   1.739  1.2546 -0.1876 -0.8824
10256SOL    HW236012   8.314   5.970   1.788  0.2824  0.3423  2.0294
10257SOL     OW36013   9.613   5.021   0.556 -0.5326 -0.3617 -0.2400
10257SOL    HW136014   9.603   5.045   0.460  1.2730 -1.7008 -0.7826
10257SOL    HW236015   9.595   4.924   0.569 -0.7904 -0.1855  0.7786
10258SOL     OW36016   2.675   9.642   5.019 -0.0406  0.1466 -0.3550
10258SOL    HW136017   2.697   9.622   4.924  2.4853 -0.6148  0.3456
10258SOL    HW236018   2.723   9.577   5.078 -1.7191  0.4855  1.4464
10259SOL     OW36019   5.045   1.660   6.810 -0.2684  0.9063 -0.3992
10259SOL    HW136020   5.145   1.668   6.816 -0.3615  1.1014  1.0662
10259SOL    HW236021   5.003   1.710   6.886 -1.5002  1.2272 -1.2838
10260SOL     OW36022   4.122   0.456   1.999  0.2390 -0.2256  0.1756
10260SOL    HW136023   4.035   0.408   2.012  0.8499 -1.6482 -0.8790
10260SOL    HW236024   4.123   0.538   2.056 -1.0497 -1.1777  1.6276
10261SOL     OW36025   4.347   2.177   5.072  0.2429 -0.0304 -0.2868
10261SOL    HW136026   4.428   2.172   5.131 -0.2606 -0.6856  0.3583
10261SOL    HW236027   4.265   2.173   5.129 -0.2519 -0.8123 -1.0592
10262SOL     OW36028   3.801   4.435   6.324 -0.1215  0.0024  0.6839
10262SOL    HW136029   3.757   4.512   6.279 -0.0855 -0.9653 -1.0330
10262SOL    HW236030   3.745   4.353   6.312  0.9837 -0.7419  0.4733
10263SOL     OW36031   8.640   4.014   0.719 -0.3205 -0.2002 -0.1247
10263SOL    HW136032   8.660   3.940   0.784 -1.6179  0.3440  0.9280
10263SOL    HW236033   8.627   4.100   0.769 -0.0718  0.4908 -1.2260
10264SOL     OW36034   2.017   1.195   6.310 -0.0293 -0.7040  0.0691
10264SOL    HW136035   1.922   1.225   6.308 -0.0712 -0.9092 -1.0308
10264SOL    HW236036   2.057   1.204   6.219  1.0033 -0.6334  0.5221
10265SOL     OW36037   9.843   3.413   0.823  0.3639 -0.2212  0.3956
10265SOL    HW136038   9.748   3.444   0.822  0.2845 -0.3350  2.6751
10265SOL    HW236039   9.849   3.324   0.777 -0.2238  0.8132 -1.7666
10268SOL     OW36040   3.643   4.393   2.850 -0.3120 -0.1021  0.0686
10268SOL    HW136041   3.652   4.431   2.758 -0.2902 -0.9108 -0.2708
10268SOL    HW236042   3.711   4.435   2.910  0.5135 -0.4790 -0.5893
10269SOL     OW36043   2.715   7.189   5.812 -0.4245  0.2822 -0.1471
10269SOL    HW136044   2.657   7.239   5.876  0.5157  0.5042  0.5343
10269SOL    HW236045   2.724   7.094   5.842 -1.7901 -0.1949 -1.1636
10270SOL     OW36046   2.570   9.973   0.948  0.1943 -0.2241 -0.0291
10270SOL    HW136047   2.548  10.053   1.004 -1.5648 -1.0916  0.5499
10270SOL    HW236048   2.487   9.937   0.907  0.9207 -1.9473 -0.0509
10271SOL     OW36049   7.936   4.851   2.378 -0.4075  0.1768 -0.1760
10271SOL    HW136050   7.985   4.806   2.302 -0.1699 -0.3670  0.2958
10271SOL    HW236051   8.002   4.899   2.436 -0.4455 -0.4609  0.3983
10273SOL     OW36052   2.298   2.840   3.776  0.5418 -0.2179  0.1149
10273SOL    HW136053   2.271   2.890   3.694 -0.2205 -1.2139 -0.2609
10273SOL    HW236054   2.271   2.744   3.766  0.6306 -0.3873  1.4446
10274SOL     OW36055   2.035   5.812   3.790 -0.1900  0.1945  0.1445
10274SOL    HW136056   2.022   5.879   3.717 -3.6423 -0.6655 -0.1287
10274SOL    HW236057   1.990   5.843   3.873  0.6055 -0.5053  0.8469
10275SOL     OW36058   0.529   2.708   6.230  0.7297  0.2077 -0.1017
10275SOL    HW136059   0.558   2.661   6.313 -1.4436 -0.8971  0.0753
10275SOL    HW236060   0.573   2.667   6.151  0.5166 -0.7200  0.2573
10277SOL     OW36061   9.614   6.228   4.760 -0.1659 -0.3139  0.1369
10277SOL    HW136062   9.575   6.311   4.720 -0.5539  0.0794  1.3168
10277SOL    HW236063   9.609   6.234   4.859  2.9933 -0.2019  0.3360
10279SOL     OW36064   9.771   7.077   0.191 -0.1501 -0.0838 -0.2243
10279SOL    HW136065   9.811   6.993   0.226  1.8976  0.6056 -0.8821
10279SOL    HW236066   9.779   7.149   0.261 -0.1671  0.0791 -0.3895
10280SOL     OW36067   5.179   0.143   7.190 -0.0817 -0.2156  0.2510
10280SOL    HW136068   5.130   0.056   7.197 -0.9766  0.3002  0.4196
10280SOL    HW236069   5.173   0.176   7.095 -1.0961  0.4380  0.5298
10281SOL     OW36070   9.339   8.094   4.477  0.4861  0.5922 -0.0290
10281SOL    HW136071   9.376   8.074   4.387  2.0410  0.0356  0.7141
10281SOL    HW236072   9.412   8.086   4.545 -0.0852  3.3690  0.9812
10282SOL     OW36073   4.739   1.941   7.848 -0.2257  0.5614 -0.2940
10282SOL    HW136074   4.750   1.853   7.895 -0.7003  0.2112 -0.8334
10282SOL    HW236075   4.681   1.928   7.767  1.5724  0.9231 -1.6553
10284SOL     OW36076   3.543   3.343   5.473 -0.0017 -0.1516 -0.7384
10284SOL    HW136077   3.522   3.263   5.417 -0.6541 -0.2670 -0.3357
10284SOL    HW236078   3.500   3.424   5.433 -2.0152 -0.5335  0.5671
10285SOL     OW36079   5.765   1.071   0.569 -0.6106 -0.6887  0.4747
10285SOL    HW136080   5.781   1.140   0.640 -1.9026 -2.1964  2.2862
10285SOL    HW236081   5.809   0.985   0.595  0.0015 -0.9065 -1.2032
10287SOL     OW36082   6.905   3.917   7.896 -0.0515  0.0598  0.2087
10287SOL    HW136083   6.820   3.905   7.946 -0.8214 -0.5051 -1.1963
10287SOL    HW236084   6.905   4.007   7.851 -0.1087 -0.1196 -0.1531
10288SOL     OW36085   9.927   2.762   1.726  0.3155  0.0367  0.4469
10288SOL    HW136086   9.866   2.684   1.714  1.2651 -0.8165  1.1562
10288SOL    HW236087   9.999   2.760   1.656 -0.4660  1.0568 -0.4068
10290SOL     OW36088   0.227   3.209   0.021  0.3023 -0.2265  0.1910
10290SOL    HW136089   0.277   3.229  -0.063  0.2581 -0.5653  0.0830
10290SOL    HW236090   0.142   3.262   0.022 -0.0983 -0.8522 -0.3740
10291SOL     OW36091   3.033   4.079   6.169 -0.0881  0.1889  0.3708
10291SOL    HW136092   2.987   4.084   6.080 -0.3393  0.3042  0.5045
10291SOL    HW236093   3.097   4.003   6.170 -0.1860  0.1037  0.1348
10292SOL     OW36094   1.272   2.805   6.079  0.0842 -0.7124  0.2948
10292SOL    HW136095   1.334   2.797   6.157 -1.6463 -1.4189  1.6344
10292SOL    HW236096   1.325   2.805   5.994  1.8944 -1.5908  1.3903
10293SOL     OW36097   1.729   0.214   0.688  0.4030 -0.1583 -0.4065
10293SOL    HW136098   1.717   0.120   0.719  0.1895 -0.2301 -0.7076
10293SOL    HW236099   1.748   0.273   0.766 -0.6603 -0.2498 -0.0706
10294SOL     OW36100   0.317   2.899   1.901 -0.1923  0.0088 -0.4298
10294SOL    HW136101   0.316   2.966   1.826  0.7794  0.3324 -0.1628
10294SOL    HW236102   0.350   2.943   1.984 -0.9115 -0.4479  0.1004
10295SOL     OW36103   0.786   5.923   7.527  0.2448  0.1698 -0.1350
10295SOL    HW136104   0.693   5.959   7.537  0.6085  1.0150  0.2803
10295SOL    HW236105   0.818   5.939   7.434  0.2832  0.6347 -0.0438
10296SOL     OW36106   2.717   6.052   6.587  0.1351 -0.0520 -0.1221
10296SOL    HW136107   2.688   5.956   6.576  1.0741 -0.4940  1.1113
10296SOL    HW236108   2.639   6.112   6.574 -0.5278 -1.0085 -0.6377
10297SOL     OW36109   8.256   3.789   6.315  0.1937 -0.2579  0.3938
10297SOL    HW136110   8.298   3.761   6.401 -0.7472  1.6576  1.5081
10297SOL    HW236111   8.214   3.879   6.326 -0.0113 -0.0211 -2.0542
10299SOL     OW36112   1.073   7.722   1.451  0.0556  0.0305 -0.2783
10299SOL    HW136113   0.989   7.702   1.502  1.1243  1.6497  2.2047
10299SOL    HW236114   1.105   7.638   1.406 -0.5499 -1.6380  2.2969
10300SOL     OW36115   6.490   2.666   2.002 -0.1770 -0.8873 -0.2245
10300SOL    HW136116   6.505   2.633   1.909  3.0433 -0.3429  0.0351
10300SOL    HW236117   6.484   2.588   2.065  0.9942 -1.1679 -0.4540
10301SOL     OW36118   3.872   2.426   3.721 -0.4495 -0.1198 -0.0991
10301SOL    HW136119   3.780   2.458   3.700 -0.4821  0.2926  0.6538
10301SOL    HW236120   3.867   2.336   3.764 -0.5010 -0.0960 -0.0555
10302SOL     OW36121   4.142   0.632   7.581  0.1423  0.1136 -0.6420
10302SOL    HW136122   4.063   0.575   7.557  0.6388 -0.2370 -1.4759
10302SOL    HW236123   4.127   0.726   7.550  0.0869  0.0230 -0.8924
10303SOL     OW36124   8.531   5.273   3.078 -0.2683 -0.0488  0.4638
10303SOL    HW136125   8.465   5.208   3.040 -0.0392 -0.1911  0.3041
10303SOL    HW236126   8.494   5.365   3.073  0.9379  0.3132 -2.8639
10304SOL     OW36127   8.288   2.712   4.510 -0.0505  0.0600  0.0383
10304SOL    HW136128   8.294   2.797   4.563  0.3976 -1.1528  2.0081
10304SOL    HW236129   8.271   2.636   4.573 -0.6324 -1.2768 -1.7264
10305SOL     OW36130   0.709   8.360   7.674  0.5405 -0.4029 -0.0222
10305SOL    HW136131   0.642   8.380   7.745  1.2599  0.0030  0.5451
10305SOL    HW236132   0.778   8.433   7.671  1.5549 -1.3347  0.1149
10306SOL     OW36133   1.325   3.868   7.089 -0.1441  0.4664 -0.0305
10306SOL    HW136134   1.342   3.869   6.991  0.0928  2.3934  0.0174
10306SOL    HW236135   1.391   3.927   7.136  1.0340 -2.0005  1.5195
10307SOL     OW36136   1.824   9.608   3.491  0.4169  0.2899 -0.4101
10307SOL    HW136137   1.874   9.653   3.417  0.3235  0.7756 -0.1798
10307SOL    HW236138   1.885   9.594   3.569  0.6060 -0.5202 -0.6885
10308SOL     OW36139   1.926   7.095   7.144 -0.6196  0.1696  0.0535
10308SOL    HW136140   1.946   7.132   7.053  1.6392  0.6429  0.7062
10308SOL    HW236141   1.889   7.168   7.201  0.0005  0.4218  0.1402
10310SOL     OW36142   1.910   4.621   1.581  0.2735  0.0927  0.3875
10310SOL    HW136143   1.963   4.608   1.665  0.9166 -0.5143 -0.1030
10310SOL    HW236144   1.816   4.646   1.604  0.4784  0.0657  1.2810
10311SOL     OW36145   3.271   6.584   0.080  0.5446  0.0961  0.8088
10311SOL    HW136146   3.224   6.664   0.042 -0.6240 -1.0661 -0.2656
10311SOL    HW236147   3.353   6.613   0.129  0.4415  1.9012 -0.0474
10312SOL     OW36148   2.376   6.324   7.598 -0.3439  0.4053 -0.0814
10312SOL    HW136149   2.324   6.363   7.522 -0.6304 -0.2680 -0.2285
10312SOL    HW236150   2.469   6.362   7.597  0.1289 -0.7369 -1.6732
10313SOL     OW36151   1.956   1.993   1.660 -0.3176 -0.1093 -0.2972
10313SOL    HW136152   1.941   1.987   1.759 -1.6931  0.7533 -0.4489
10313SOL    HW236153   2.042   2.040   1.642  0.5125 -1.2866  0.5048
10314SOL     OW36154   5.225   8.942   1.005 -0.0089 -0.0554  0.8080
10314SOL    HW136155   5.138   8.925   1.052  0.4223 -0.4998  1.4416
10314SOL    HW236156   5.283   8.861   1.011  0.5943  0.3650  0.6882
10316SOL     OW36157   1.788   8.211   6.639 -0.2973  0.0967  0.2552
10316SOL    HW136158   1.845   8.200   6.558 -0.9591 -0.7981 -0.1094
10316SOL    HW236159   1.835   8.268   6.706 -0.1631  1.6946 -1.1586
10317SOL     OW36160   4.654   0.442   1.321  0.8080 -0.0888  0.5279
10317SOL    HW136161   4.565   0.415   1.357  0.6592  1.6671  1.5207
10317SOL    HW236162   4.719   0.366   1.334 -0.4133 -1.2211  0.1600
10318SOL     OW36163   1.159   4.929   1.753  0.6198  0.2603 -0.6375
10318SOL    HW136164   1.254   4.960   1.748  0.3164  1.8342  2.0787
10318SOL    HW236165   1.102   4.989   1.698  0.8610  0.9027 -0.1975
10319SOL     OW36166   9.740   4.419   7.039 -0.5411  0.1061 -0.8782
10319SOL    HW136167   9.767   4.497   7.094 -0.9487  0.5117 -1.2415
10319SOL    HW236168   9.789   4.337   7.069 -0.5867  0.3700 -0.0749
10320SOL     OW36169   0.122   5.903   0.448  0.2302 -0.2710 -0.0481
10320SOL    HW136170   0.157   5.821   0.494  1.0469  0.4086  0.5644
10320SOL    HW236171   0.122   5.979   0.513  0.2388  0.4087 -0.8473
10322SOL     OW36172   3.111   3.578   0.781  0.0615 -0.0212 -0.1868
10322SOL    HW136173   3.042   3.525   0.731  0.0890 -0.9685  0.7385
10322SOL    HW236174   3.069   3.614   0.865  1.1770 -2.2331  1.3635
10323SOL     OW36175   3.049   6.409   1.944 -0.2785  0.0885  0.2804
10323SOL    HW136176   2.952   6.425   1.923 -0.5276 -1.3242  0.3189
10323SOL    HW236177   3.067   6.311   1.946  1.2710  0.3489 -0.2242
10324SOL     OW36178   6.403   1.125   6.160 -0.4096  0.6467  0.2125
10324SOL    HW136179   6.310   1.101   6.188 -0.1000  0.7893  1.4133
10324SOL    HW236180   6.407   1.133   6.061 -1.2107 -1.3445 -0.0056
10325SOL     OW36181   0.948   1.362   2.898  0.4326  0.3988 -0.1191
10325SOL    HW136182   0.932   1.335   2.992  0.6079 -0.0518 -0.2177
10325SOL    HW236183   0.954   1.462   2.892  0.4315  0.4260  0.3448
10326SOL     OW36184   4.730   0.726   3.693 -0.0433  0.1225 -0.6949
10326SOL    HW136185   4.731   0.644   3.751 -1.1344 -0.2106 -1.1370
10326SOL    HW236186   4.778   0.800   3.740 -0.3574 -0.3273  0.3696
10328SOL     OW36187   2.286   5.982   6.545 -0.1029 -0.3484  0.1172
10328SOL    HW136188   2.247   5.908   6.600  1.4415 -0.0008  1.7256
10328SOL    HW236189   2.322   5.944   6.460 -1.0484 -1.1438  0.0555
10329SOL     OW36190   2.525   4.888   6.846 -0.1505 -0.1848 -0.2327
10329SOL    HW136191   2.537   4.939   6.761 -0.1318 -0.0192 -0.1299
10329SOL    HW236192   2.552   4.945   6.923 -0.7187 -0.1376 -0.0734
10330SOL     OW36193   5.988   8.616   2.727 -0.8572 -0.0049  0.0472
10330SOL    HW136194   6.075   8.613   2.677  0.2826  0.9296  1.9022
10330SOL    HW236195   5.984   8.700   2.780 -2.0522 -0.9617  1.4930
10331SOL     OW36196   4.063   0.993   0.380 -0.0103 -0.4617  0.1247
10331SOL    HW136197   4.127   1.047   0.435 -0.0288 -0.2969 -0.0133
10331SOL    HW236198   4.035   1.046   0.300  0.4194 -0.8903 -0.3201
10332SOL     OW36199   3.531   0.137   6.234  0.0064 -0.1816  0.1981
10332SOL    HW136200   3.440   0.137   6.194  0.0021 -0.6714  0.2128
10332SOL    HW236201   3.594   0.084   6.177  0.4000  0.5656 -0.0782
10333SOL     OW36202   2.523   9.181   7.106 -0.0473  0.3098 -0.1260
10333SOL    HW136203   2.573   9.095   7.101 -1.8812 -0.8893  1.5166
10333SOL    HW236204   2.463   9.190   7.027  0.4124  0.2403 -0.4812
10335SOL     OW36205   0.831   5.979   0.402  0.1316  0.4032 -0.0602
10335SOL    HW136206   0.895   6.052   0.379  1.3386 -0.8625 -0.8325
10335SOL    HW236207   0.786   6.000   0.489 -0.1169  2.4184 -0.6575
10339SOL     OW36208   3.708   7.528   1.673  0.7984  0.2483 -0.0766
10339SOL    HW136209   3.651   7.584   1.613 -0.5788 -0.6332  0.3843
10339SOL    HW236210   3.692   7.556   1.768  0.6978 -0.4038  0.0964
10340SOL     OW36211   8.139   0.053   4.836  0.2373  0.0961 -0.0561
10340SOL    HW136212   8.190  -0.023   4.796  0.4576 -1.5889  3.2620
10340SOL    HW236213   8.044   0.028   4.848  0.8698 -0.7434  3.6023
10341SOL     OW36214   7.278   2.173   5.057 -0.2813 -0.5630 -0.4404
10341SOL    HW136215   7.255   2.268   5.036  0.3555 -0.0024  1.3022
10341SOL    HW236216   7.212   2.136   5.122  0.0045 -1.0109 -0.3979
10342SOL     OW36217   9.652   1.968   2.723  0.0770  0.1872  0.2589
10342SOL    HW136218   9.711   2.049   2.724 -0.5876  0.7041 -1.2574
10342SOL    HW236219   9.671   1.912   2.804  1.2714  1.3298  0.7860
10343SOL     OW36220   0.879   0.296   3.828 -0.0178 -0.2581  0.0131
10343SOL    HW136221   0.957   0.256   3.781  0.4336  0.3727  0.2132
10343SOL    HW236222   0.806   0.314   3.762  0.7564  0.9798 -0.5334
10344SOL     OW36223   4.488   4.700   7.942 -0.3561  0.7306  0.0364
10344SOL    HW136224   4.497   4.753   7.857  0.4785  0.2131 -0.2102
10344SOL    HW236225   4.543   4.617   7.934 -1.4934 -0.0755  0.4961
10345SOL     OW36226   9.241   3.351   6.798  0.1124  0.3435 -0.6730
10345SOL    HW136227   9.211   3.277   6.738  2.0659 -0.4777 -0.6840
10345SOL    HW236228   9.242   3.319   6.892  1.0640  0.2931 -0.6897
10347SOL     OW36229   4.543   4.885   5.275  0.4231  0.4043 -0.3854
10347SOL    HW136230   4.495   4.838   5.201  0.7462  0.2642 -0.5064
10347SOL    HW236231   4.605   4.821   5.321 -0.8424  0.1015  0.9460
10348SOL     OW36232   2.410   2.046   4.039 -0.0992 -0.5387 -0.0629
10348SOL    HW136233   2.441   1.984   3.968  0.9476 -1.0557  0.8304
10348SOL    HW236234   2.351   2.116   3.999 -0.4719 -1.5131 -1.2309
10349SOL     OW36235   1.386   7.375   3.447 -0.4099 -0.4000  0.2038
10349SOL    HW136236   1.444   7.373   3.366  0.0995 -0.8257  0.5690
10349SOL    HW236237   1.366   7.469   3.472 -1.5261 -0.2969 -1.0892
10350SOL     OW36238   4.527   0.685   4.225  0.1932 -0.3409 -0.3968
10350SOL    HW136239   4.531   0.602   4.282  0.8496  0.0136  0.0849
10350SOL    HW236240   4.545   0.660   4.130 -3.3469 -1.3121 -0.8979
10351SOL     OW36241   0.505   5.043   7.930 -0.2916  0.1459  0.3502
10351SOL    HW136242   0.463   5.038   8.020 -1.6758 -0.5868 -0.3253
10351SOL    HW236243   0.478   5.128   7.885  1.5244  1.1866  1.1523
10352SOL     OW36244   9.075   2.975   7.510 -0.3660  0.3050 -0.2820
10352SOL    HW136245   9.148   2.916   7.545 -0.3843  0.4339 -0.0270
10352SOL    HW236246   9.115   3.062   7.480 -0.2554 -0.0415 -1.1833
10353SOL     OW36247   0.005   2.285   5.185  0.0044 -0.5156  0.9977
10353SOL    HW136248   0.037   2.373   5.221  1.2787 -0.6156  0.1480
10353SOL    HW236249  -0.094   2.287   5.173  0.2876  1.5766 -1.1394
10356SOL     OW36250   3.744   5.468   7.628 -0.1510 -0.1193 -0.0721
10356SOL    HW136251   3.698   5.451   7.541 -0.4783  1.2374 -0.1882
10356SOL    HW236252   3.843   5.474   7.614 -0.1292 -0.7631 -0.2015
10357SOL     OW36253   1.079   8.580   5.689 -0.1790  0.2047  0.3558
10357SOL    HW136254   1.176   8.598   5.672 -0.0514  0.6911  1.5298
10357SOL    HW236255   1.050   8.499   5.638  1.1547 -0.6735  0.9796
10358SOL     OW36256   2.120   5.549   2.567 -0.1414  0.2277 -0.1624
10358SOL    HW136257   2.024   5.557   2.593 -0.0404  0.0565  0.2680
10358SOL    HW236258   2.164   5.480   2.624  0.4965  1.0605  0.3704
10359SOL     OW36259   1.684   1.239   2.822 -0.1935 -0.3496 -0.6549
10359SOL    HW136260   1.624   1.313   2.789 -2.5299 -1.9160 -0.0507
10359SOL    HW236261   1.635   1.152   2.816  2.0239 -1.6604 -0.0216
10360SOL     OW36262   1.566   5.024   7.339  0.1542 -0.9532 -0.2834
10360SOL    HW136263   1.572   4.988   7.431 -0.4131 -1.5850 -0.4946
10360SOL    HW236264   1.653   5.010   7.292  0.4546 -0.5980  0.1616
10361SOL     OW36265   0.865   3.477   3.131 -0.8188  0.3549 -0.6772
10361SOL    HW136266   0.790   3.422   3.167 -0.6341  0.2270 -0.4856
10361SOL    HW236267   0.884   3.552   3.194 -0.9098  0.4950 -0.8178
10362SOL     OW36268   1.191   8.504   2.374 -0.0647  0.2776  0.2874
10362SOL    HW136269   1.189   8.443   2.295  1.4320  0.9809 -0.3187
10362SOL    HW236270   1.106   8.495   2.425 -0.4257 -1.3059 -0.5501
10363SOL     OW36271   0.115   1.547   3.378  0.2350 -0.6450  0.2462
10363SOL    HW136272   0.197   1.502   3.414  0.1735 -0.3867  0.7148
10363SOL    HW236273   0.065   1.590   3.453 -0.7563 -1.4752  0.0724
10364SOL     OW36274   2.239   6.680   1.330  0.1204  0.3841  0.0132
10364SOL    HW136275   2.237   6.778   1.308 -0.4198  0.3982  0.1193
10364SOL    HW236276   2.207   6.628   1.251 -0.3197  0.3399  0.2189
10365SOL     OW36277   4.280   2.290   6.749 -0.6141 -0.2615  0.3053
10365SOL    HW136278   4.240   2.221   6.689 -0.0073  0.6051 -1.1337
10365SOL    HW236279   4.252   2.381   6.720  0.3438  0.2194  0.8276
10366SOL     OW36280   9.590   9.925   0.383 -0.6392 -0.3404  0.0287
10366SOL    HW136281   9.612  10.022   0.368 -0.1248 -0.3070  0.9802
10366SOL    HW236282   9.675   9.873   0.394 -0.9084 -0.9295 -0.6345
10368SOL     OW36283   2.521   1.158   0.573  0.8941  0.2133 -0.6049
10368SOL    HW136284   2.461   1.232   0.542  2.0721  0.8121 -1.5076
10368SOL    HW236285   2.614   1.193   0.583  0.9801 -0.5387  1.4505
10369SOL     OW36286   0.861   3.225   7.162 -0.2118  0.1057  0.4344
10369SOL    HW136287   0.912   3.305   7.193  2.0818 -1.2891  0.3098
10369SOL    HW236288   0.912   3.178   7.090 -1.1604 -1.9204  1.0569
10370SOL     OW36289   3.398   2.821   2.489  0.0354  0.0090 -0.1472
10370SOL    HW136290   3.379   2.903   2.543 -1.6610 -0.2053 -0.3644
10370SOL    HW236291   3.371   2.837   2.394  1.9779  0.0115 -0.7135
10371SOL     OW36292   0.968   8.829   5.593  0.2709 -0.5496  0.0619
10371SOL    HW136293   0.998   8.739   5.623  0.9188 -0.7618 -1.1811
10371SOL    HW236294   0.926   8.822   5.502  1.9561  0.6410 -0.8473
10373SOL     OW36295   4.874   9.469   6.044  0.0534 -0.0244 -0.0059
10373SOL    HW136296   4.945   9.518   6.095 -1.0588  0.9928  0.5970
10373SOL    HW236297   4.904   9.455   5.950  0.9215  0.6801  0.1623
10374SOL     OW36298   3.607   4.767   5.048 -0.4541 -0.0610 -0.2866
10374SOL    HW136299   3.657   4.775   4.961  1.7312 -3.4900  0.5354
10374SOL    HW236300   3.549   4.686   5.045 -0.9637  0.2506  1.1567
10377SOL     OW36301   0.999   6.643   6.466  0.2456  0.0261 -0.1899
10377SOL    HW136302   0.932   6.571   6.487  0.8625  0.1323  2.2595
10377SOL    HW236303   0.950   6.728   6.446 -0.3901  0.7823  4.1267
10378SOL     OW36304   0.900   1.662   4.038  0.3656  0.1491  0.1959
10378SOL    HW136305   0.971   1.704   3.982 -0.1066 -0.2998 -0.7555
10378SOL    HW236306   0.810   1.689   4.004  0.0757 -0.2144  0.6681
10379SOL     OW36307   9.199   7.037   4.337 -0.4573  0.5074  0.0629
10379SOL    HW136308   9.222   7.118   4.390 -1.9209  1.0831 -0.1363
10379SOL    HW236309   9.190   7.062   4.240 -0.5943  0.0445 -0.0445
10380SOL     OW36310   0.185   3.673   2.230 -0.0835 -0.3085  0.0532
10380SOL    HW136311   0.114   3.705   2.167 -0.3380  0.3564  0.6602
10380SOL    HW236312   0.258   3.741   2.236 -0.3198 -0.1117  0.8710
10382SOL     OW36313   8.178   0.396   0.342  0.1637 -0.0849  0.6014
10382SOL    HW136314   8.117   0.457   0.293 -0.8079 -1.3641  0.1917
10382SOL    HW236315   8.273   0.415   0.316 -0.1223  1.2487  0.5061
10383SOL     OW36316   2.202   9.771   2.512 -0.8828  0.4570  0.2517
10383SOL    HW136317   2.235   9.698   2.571 -0.2689  1.5790  1.3118
10383SOL    HW236318   2.118   9.741   2.466 -0.1920 -1.1961  0.0405
10384SOL     OW36319   9.795   5.367   3.709  0.3137 -0.8131  0.1307
10384SOL    HW136320   9.852   5.438   3.751 -3.0715  1.6195  0.9016
10384SOL    HW236321   9.765   5.303   3.779  0.4780 -0.9305  0.0941
10386SOL     OW36322   8.600   9.378   3.693 -0.1153 -0.5408 -0.0643
10386SOL    HW136323   8.598   9.353   3.790  2.0465 -2.4961 -0.4932
10386SOL    HW236324   8.611   9.477   3.685  0.8732 -0.4895  1.6750
10387SOL     OW36325   9.122   3.889   4.568 -0.5208 -0.1597 -0.1576
10387SOL    HW136326   9.103   3.974   4.520 -0.3183 -0.1631 -0.2459
10387SOL    HW236327   9.195   3.904   4.636 -3.3664  0.7652  2.8343
10388SOL     OW36328   2.722   2.185   5.632  0.3720 -0.3321 -0.5685
10388SOL    HW136329   2.628   2.189   5.599  0.1836 -1.6924 -0.2456
10388SOL    HW236330   2.728   2.121   5.708  1.5847 -0.3530 -0.6639
10389SOL     OW36331   1.449   7.617   5.487 -0.0301  0.0714 -0.2209
10389SOL    HW136332   1.425   7.667   5.405 -0.1383 -0.3321 -0.4388
10389SOL    HW236333   1.525   7.663   5.534  0.1254  0.2229 -0.6218
10390SOL     OW36334   8.798   3.730   1.810 -0.3623 -0.0483  0.5475
10390SOL    HW136335   8.788   3.644   1.761  1.1797  0.1631 -0.1723
10390SOL    HW236336   8.845   3.715   1.897  2.1923  0.3727 -0.6991
10392SOL     OW36337   4.551   8.931   4.191 -0.1131  0.3350 -0.7004
10392SOL    HW136338   4.575   8.835   4.199 -0.9077  0.2107  0.3041
10392SOL    HW236339   4.494   8.944   4.109 -2.3042 -0.5362  0.6432
10393SOL     OW36340   9.163   1.459   3.589  0.9495 -0.3580 -0.3018
10393SOL    HW136341   9.208   1.391   3.647  1.6927  1.1391  0.9056
10393SOL    HW236342   9.107   1.412   3.521 -0.1024 -2.1638  1.7294
10394SOL     OW36343   1.854   1.519   7.599  0.2158  0.2550  0.5607
10394SOL    HW136344   1.886   1.426   7.617 -0.1232  0.2127  0.9458
10394SOL    HW236345   1.811   1.556   7.681 -0.9657  0.2147 -0.0317
10395SOL     OW36346   4.649   1.737   0.800  0.2021 -0.3422  0.1968
10395SOL    HW136347   4.621   1.739   0.896  0.9465 -2.5795  0.4798
10395SOL    HW236348   4.598   1.666   0.752  1.0696 -0.3979 -0.6529
10396SOL     OW36349   1.260   9.919   0.933 -0.1921 -0.0522  0.0046
10396SOL    HW136350   1.230   9.915   1.029  1.2149  0.2208  0.4654
10396SOL    HW236351   1.253  10.013   0.900 -2.6547 -0.4830 -0.8327
10397SOL     OW36352   1.442   1.780   2.290 -0.5994 -0.3358 -0.5332
10397SOL    HW136353   1.388   1.861   2.267  0.6355  0.3407 -1.0433
10397SOL    HW236354   1.467   1.731   2.206  1.1443  0.3652 -0.4386
10398SOL     OW36355   0.150   8.372   3.837  0.5823 -0.0430 -0.1728
10398SOL    HW136356   0.105   8.424   3.909  1.1978 -1.1242  1.0008
10398SOL    HW236357   0.129   8.413   3.748  3.1341  3.7422  0.8787
10399SOL     OW36358   3.198   5.835   4.368  0.2866 -0.3506 -0.0774
10399SOL    HW136359   3.262   5.822   4.443  0.0922 -0.2692  0.1030
10399SOL    HW236360   3.248   5.859   4.285  0.5774 -1.3405 -0.1995
10400SOL     OW36361   4.427   0.885   0.585 -0.1655  0.7220  0.1124
10400SOL    HW136362   4.454   0.972   0.627 -0.0567  0.8956 -0.3211
10400SOL    HW236363   4.398   0.822   0.657  2.5266  0.1174  0.6897
10401SOL     OW36364   7.342   1.344   2.133  0.3446  0.3152 -0.0168
10401SOL    HW136365   7.435   1.379   2.146  0.4304 -0.5741  1.9477
10401SOL    HW236366   7.344   1.260   2.081  0.8075 -0.5355  1.3519
10402SOL     OW36367   6.528   0.779   6.508  0.5451 -0.0390  0.6664
10402SOL    HW136368   6.498   0.784   6.412  1.0345 -0.9352  0.4606
10402SOL    HW236369   6.464   0.830   6.565  0.9322  1.5506 -0.2854
10404SOL     OW36370   6.921   2.264   1.325  0.0235 -0.0773 -0.3786
10404SOL    HW136371   6.905   2.167   1.343  1.1170  0.0732  1.6608
10404SOL    HW236372   6.845   2.302   1.273 -2.6141 -1.0117  2.6039
10405SOL     OW36373   9.051   7.449   6.632  0.0855  0.4595 -0.3864
10405SOL    HW136374   9.144   7.417   6.615  0.1101  1.0181 -1.3094
10405SOL    HW236375   9.054   7.542   6.667 -0.0269 -0.2436  1.6003
10407SOL     OW36376   9.230   9.808   0.495 -0.4356 -0.4632  0.2655
10407SOL    HW136377   9.285   9.742   0.546  2.0331  0.9766 -0.4572
10407SOL    HW236378   9.222   9.893   0.548 -0.2903  0.0266 -0.4867
10408SOL     OW36379   6.188   2.005   5.142 -0.3597 -0.3343 -0.3388
10408SOL    HW136380   6.193   1.914   5.101 -0.2649 -0.5263  0.0965
10408SOL    HW236381   6.107   2.011   5.200  1.3092 -1.2195  2.1905
10409SOL     OW36382   2.689   0.593   0.277 -0.3734 -0.1714 -0.4172
10409SOL    HW136383   2.742   0.519   0.236 -0.1716  0.0547 -0.5705
10409SOL    HW236384   2.649   0.563   0.363 -0.6245 -0.5842 -0.6783
10410SOL     OW36385   8.379   8.930   1.793 -0.5835  0.2892 -0.4402
10410SOL    HW136386   8.300   8.991   1.790 -0.1790  0.9191  1.2449
10410SOL    HW236387   8.451   8.965   1.733 -0.5360  1.2205  0.1474
10411SOL     OW36388   0.249   7.944   0.595  0.7959  0.3202  0.4960
10411SOL    HW136389   0.194   8.003   0.536  2.7919  0.5742 -1.1568
10411SOL    HW236390   0.320   7.998   0.640  0.6739 -0.2705  1.4215
10412SOL     OW36391   1.983   5.377   1.276  0.7286  0.1680 -0.4664
10412SOL    HW136392   2.073   5.379   1.321  1.2350 -0.9129 -1.3780
10412SOL    HW236393   1.930   5.457   1.303  1.4821  0.1590  1.0868
10415SOL     OW36394   8.088   2.860   4.805 -0.4640  0.2309 -0.3750
10415SOL    HW136395   8.081   2.763   4.784  0.6038 -0.3350  1.6917
10415SOL    HW236396   8.013   2.887   4.866  0.0579  0.3327  0.2385
10416SOL     OW36397   1.718   2.375   3.118 -0.1320 -0.7056 -0.3147
10416SOL    HW136398   1.810   2.341   3.141  0.7249  0.8331 -1.3751
10416SOL    HW236399   1.721   2.474   3.109 -1.7397 -0.7262 -1.1856
10418SOL     OW36400   8.086   6.771   5.718 -0.4570 -0.2823 -0.1179
10418SOL    HW136401   8.126   6.826   5.792  0.8557 -0.6043 -0.5779
10418SOL    HW236402   8.094   6.674   5.741 -0.2121 -0.3771 -0.6069
10419SOL     OW36403   4.894   5.290   1.528  0.4565 -0.5778 -0.3936
10419SOL    HW136404   4.820   5.260   1.588  0.8005 -0.6016  0.0151
10419SOL    HW236405   4.942   5.367   1.569  0.9464 -0.8522 -0.4460
10421SOL     OW36406   3.926   8.926   4.145 -0.6578 -0.2335 -0.7408
10421SOL    HW136407   3.914   8.852   4.078 -0.2931 -1.9288  1.0042
10421SOL    HW236408   3.993   8.991   4.110  0.5404 -1.8121 -1.4736
10422SOL     OW36409   6.049   1.435   4.453  0.2618  0.3775 -0.0018
10422SOL    HW136410   6.102   1.356   4.423 -0.1181  0.0854  0.0895
10422SOL    HW236411   6.063   1.511   4.389 -1.6417 -0.6852 -1.7379
10423SOL     OW36412   0.734   9.801   4.002 -0.4437  0.0286  0.4498
10423SOL    HW136413   0.726   9.797   4.102 -0.8963 -0.5039  0.3915
10423SOL    HW236414   0.795   9.877   3.977 -0.9003  0.6141  1.0974
10424SOL     OW36415   2.127   9.958   2.721  0.3751  0.6696  0.1536
10424SOL    HW136416   2.031   9.936   2.739 -0.2149  1.2899 -2.1896
10424SOL    HW236417   2.156   9.918   2.634  1.2727  3.2817 -0.8049
10425SOL     OW36418   2.532   6.456   4.144  0.7933 -0.5303 -0.4421
10425SOL    HW136419   2.616   6.496   4.106  0.7791  0.2229  0.3193
10425SOL    HW236420   2.553   6.365   4.180  0.8701 -1.1409 -1.9767
10426SOL     OW36421   6.463   0.175   1.631  0.0803  0.1076  0.1788
10426SOL    HW136422   6.423   0.241   1.567 -0.5133 -0.5140 -0.1012
10426SOL    HW236423   6.501   0.098   1.580  0.0205 -0.1693  0.5454
10427SOL     OW36424   2.971   9.666   2.377 -0.1457  0.2043  0.8465
10427SOL    HW136425   2.916   9.734   2.424 -0.2134  1.2635 -0.7342
10427SOL    HW236426   2.942   9.660   2.281  3.1887  1.5887 -0.3194
10428SOL     OW36427   8.456   8.329   4.777  0.1082 -0.3479  0.2670
10428SOL    HW136428   8.550   8.326   4.746  0.2060  0.0392  0.5227
10428SOL    HW236429   8.411   8.411   4.740  0.0807 -0.1528  0.7306
10429SOL     OW36430   2.753   1.842   6.692 -0.3133 -0.0870  0.2226
10429SOL    HW136431   2.803   1.897   6.759 -0.4467 -0.4225  0.5952
10429SOL    HW236432   2.678   1.896   6.654  0.4529  0.5062 -0.5076
10431SOL     OW36433   7.967   3.182   3.236  0.3391 -1.0043  0.2635
10431SOL    HW136434   7.911   3.221   3.163  0.8324  0.3104  0.5746
10431SOL    HW236435   8.018   3.104   3.200  0.3404 -0.5663 -0.7189
10432SOL     OW36436   9.665   3.745   3.343  0.7107  0.1451 -0.4306
10432SOL    HW136437   9.567   3.761   3.352  0.9700  1.3499  0.3915
10432SOL    HW236438   9.685   3.709   3.251 -0.2080  2.3588 -1.5469
10433SOL     OW36439   8.586   8.816   1.146 -0.9064  0.0928  0.2754
10433SOL    HW136440   8.568   8.782   1.238  0.9280  0.2111  0.6949
10433SOL    HW236441   8.538   8.760   1.079 -1.5637 -0.5093  1.2510
10434SOL     OW36442   9.726   3.343   2.392  0.3097  0.4013 -0.4496
10434SOL    HW136443   9.682   3.293   2.467 -0.9344  1.0545 -0.7321
10434SOL    HW236444   9.688   3.312   2.305  1.8354 -0.4363 -0.8453
10435SOL     OW36445   9.913   1.440   4.552 -0.6094  0.1317 -0.3117
10435SOL    HW136446   9.813   1.432   4.561 -0.7834  1.4368 -0.9162
10435SOL    HW236447   9.935   1.527   4.508  0.8267  0.0655  0.2624
10436SOL     OW36448   0.114   9.121   3.549 -0.6904  0.3529 -0.3596
10436SOL    HW136449   0.184   9.191   3.562  0.9161 -1.0194 -1.4194
10436SOL    HW236450   0.153   9.031   3.565 -2.8067 -0.3225  1.2524
10437SOL     OW36451   0.547   5.861   3.445 -0.3424  0.0621 -0.4266
10437SOL    HW136452   0.576   5.834   3.353 -0.3440 -1.3436 -0.0177
10437SOL    HW236453   0.467   5.808   3.472 -0.3272  0.4507  0.4012
10438SOL     OW36454   2.545   6.748   7.884  0.5968  0.2253  0.2368
10438SOL    HW136455   2.507   6.839   7.865  1.6399  0.7719  0.7279
10438SOL    HW236456   2.637   6.742   7.845  0.2275 -0.9048 -0.4938
10439SOL     OW36457   4.509   1.299   7.027  0.0814  0.3001  0.3992
10439SOL    HW136458   4.475   1.290   6.934  2.1347 -2.4004 -0.1578
10439SOL    HW236459   4.546   1.391   7.041 -0.4794  0.8027 -1.3571
10440SOL     OW36460   0.937   4.283   2.589 -0.1085  0.2721 -0.1107
10440SOL    HW136461   0.937   4.383   2.581 -0.6973  0.3077  0.2732
10440SOL    HW236462   0.929   4.242   2.498  0.3124  0.5714 -0.2843
10441SOL     OW36463   5.936   0.030   7.795 -0.1678 -0.3379 -0.3316
10441SOL    HW136464   5.860   0.093   7.784 -0.5668 -0.6994  0.3195
10441SOL    HW236465   5.929  -0.043   7.726  1.6198  1.6184 -2.6489
10443SOL     OW36466   0.148   3.255   5.573  0.7441 -0.1258  0.1971
10443SOL    HW136467   0.131   3.322   5.645  1.6622  0.6811 -0.3163
10443SOL    HW236468   0.106   3.287   5.488  0.4223 -0.6343  0.1680
10444SOL     OW36469   7.503   0.750   3.817 -0.3125 -0.1591 -0.0153
10444SOL    HW136470   7.539   0.779   3.906 -2.0173  0.0391  0.6270
10444SOL    HW236471   7.563   0.680   3.778 -0.4118 -1.4245  2.0292
10446SOL     OW36472   8.653   4.424   3.362  0.0715 -0.1119 -0.1294
10446SOL    HW136473   8.675   4.522   3.364  1.7182 -0.5004  1.3428
10446SOL    HW236474   8.642   4.391   3.456 -0.5631 -1.3405 -0.6281
10447SOL     OW36475   8.233   6.100   1.214 -0.1068 -0.2072 -0.0319
10447SOL    HW136476   8.231   6.199   1.206  1.4630 -0.2436 -1.2536
10447SOL    HW236477   8.187   6.060   1.134  0.3856 -0.4657 -0.1862
10448SOL     OW36478   0.529   1.173   5.086  0.7028 -0.1905 -0.1137
10448SOL    HW136479   0.616   1.202   5.127  1.2499 -2.9515  0.8544
10448SOL    HW236480   0.453   1.212   5.138  1.3928 -0.1437  0.8853
10449SOL     OW36481   2.388   0.848   0.657  0.3643  0.4858 -0.0296
10449SOL    HW136482   2.479   0.877   0.629  0.5185  1.0097  0.9879
10449SOL    HW236483   2.394   0.791   0.738 -0.2859  1.4096  0.6828
10450SOL     OW36484   4.478   0.922   5.715 -0.6160 -0.1977  0.2018
10450SOL    HW136485   4.456   0.850   5.650 -0.4000 -1.0304  1.0465
10450SOL    HW236486   4.401   0.937   5.777  0.5904 -2.1107  2.2282
10451SOL     OW36487   8.832   2.485   6.413  0.2015 -0.7434  0.3895
10451SOL    HW136488   8.889   2.433   6.476  0.8142 -0.2291  0.2615
10451SOL    HW236489   8.889   2.545   6.358 -0.6981  2.1487  2.4675
10452SOL     OW36490   0.729   9.093   3.046  0.1859  0.1801  0.5683
10452SOL    HW136491   0.744   9.001   3.009  0.3130 -0.9509  3.3287
10452SOL    HW236492   0.798   9.112   3.117 -1.7947  1.1288  2.2882
10453SOL     OW36493   1.377   3.766   2.645 -0.4585  0.1615  0.3506
10453SOL    HW136494   1.334   3.687   2.600 -1.1646  0.3249  0.7370
10453SOL    HW236495   1.410   3.739   2.735  0.7369 -0.1021 -0.1609
10454SOL     OW36496   4.165   2.798   0.420 -0.3352 -0.2240  0.1111
10454SOL    HW136497   4.252   2.771   0.378 -0.3287  1.1952 -0.8270
10454SOL    HW236498   4.101   2.828   0.349 -0.9598  0.4604  0.9490
10455SOL     OW36499   1.611   1.327   5.754 -0.6856 -0.2496  0.2033
10455SOL    HW136500   1.526   1.339   5.701 -0.5101 -1.1415 -0.2825
10455SOL    HW236501   1.623   1.406   5.815 -1.7349  0.0049  0.0970
10456SOL     OW36502   1.620   7.779   5.599 -0.3270 -0.4235  0.2889
10456SOL    HW136503   1.703   7.784   5.653  0.0638 -2.2924 -0.1167
10456SOL    HW236504   1.635   7.823   5.510 -0.3252  0.7764  0.8731
10459SOL     OW36505   1.844   1.093   0.258  0.4380 -0.0418 -0.8714
10459SOL    HW136506   1.895   1.109   0.342  0.0262  0.0823 -0.6431
10459SOL    HW236507   1.884   1.147   0.184  0.3210  0.4516 -0.5753
10460SOL     OW36508   0.944   9.438   1.436 -0.2488  0.0506  0.0322
10460SOL    HW136509   0.882   9.378   1.386 -1.1396 -1.4476  2.7844
10460SOL    HW236510   0.893   9.489   1.505  1.0520  1.4167  0.0035
10461SOL     OW36511   5.604   2.272   4.755 -0.6672 -0.2718  0.2994
10461SOL    HW136512   5.561   2.193   4.711  0.0325 -0.3006 -0.3309
10461SOL    HW236513   5.671   2.313   4.693  0.4420 -0.4142  1.3886
10462SOL     OW36514   4.646   1.735   4.493 -0.2690  0.3798  0.2273
10462SOL    HW136515   4.580   1.748   4.567 -2.1726  2.0827 -1.6726
10462SOL    HW236516   4.597   1.733   4.405  2.1632  1.0630 -1.1977
10463SOL     OW36517   1.379   0.814   3.751  0.1661  0.6544  0.3152
10463SOL    HW136518   1.416   0.734   3.800  0.6579 -0.0613 -1.2034
10463SOL    HW236519   1.356   0.885   3.817  0.6939 -0.3525  1.6099
10465SOL     OW36520   5.997   1.390   3.987 -0.1431  0.1232  0.3239
10465SOL    HW136521   5.946   1.361   4.068 -0.8713 -0.4833 -0.3447
10465SOL    HW236522   5.934   1.425   3.919  0.4411  0.3610 -0.0969
10466SOL     OW36523   7.653   6.231   3.324  0.2078 -0.7537 -0.5195
10466SOL    HW136524   7.753   6.224   3.329  0.1389 -0.1076  2.5094
10466SOL    HW236525   7.612   6.142   3.345  0.1078 -0.6785 -0.3984
10467SOL     OW36526   9.060   0.221   0.717 -0.2941  0.5527  0.8064
10467SOL    HW136527   9.053   0.293   0.648 -1.3170  0.9295  1.2862
10467SOL    HW236528   9.093   0.261   0.802 -1.4789  0.5952  1.2584
10469SOL     OW36529   7.692   9.757   2.046 -0.1296 -0.4536 -0.2430
10469SOL    HW136530   7.745   9.728   2.126 -1.0008 -0.0472  0.4951
10469SOL    HW236531   7.697   9.687   1.975 -0.6709 -1.5681  0.7950
10470SOL     OW36532   2.422   0.856   6.982 -0.0879  0.2994 -0.5511
10470SOL    HW136533   2.385   0.837   7.073 -1.2671  0.2450 -1.0310
10470SOL    HW236534   2.458   0.949   6.980  0.0769  0.2523  0.0072
10471SOL     OW36535   0.938   0.329   5.294  0.2451 -0.1534  0.7174
10471SOL    HW136536   0.901   0.311   5.202 -0.4094 -0.3332  1.0103
10471SOL    HW236537   0.946   0.427   5.308  2.4428 -0.1463 -0.3474
10472SOL     OW36538   2.597   0.594   5.630 -0.2880  0.4359 -0.3047
10472SOL    HW136539   2.497   0.596   5.637 -0.3896 -1.5992 -0.8875
10472SOL    HW236540   2.635   0.551   5.711  0.2059  2.3138  0.4749
10473SOL     OW36541   9.760   0.726   7.942 -0.1134  0.4863 -0.1060
10473SOL    HW136542   9.753   0.819   7.977  0.9756  0.7410 -0.5607
10473SOL    HW236543   9.697   0.713   7.865  0.0043  0.9425 -0.2737
10474SOL     OW36544   1.617   6.614   1.318  0.2377  0.2209 -0.8253
10474SOL    HW136545   1.544   6.547   1.307  0.2116 -0.4522  2.9077
10474SOL    HW236546   1.587   6.703   1.283 -1.1685 -0.7568 -2.1607
10475SOL     OW36547   9.829   4.805   4.854 -0.6901  0.0064 -0.0892
10475SOL    HW136548   9.921   4.783   4.886 -0.2310  0.6633 -0.9538
10475SOL    HW236549   9.809   4.901   4.874 -1.8956 -0.5920  1.7643
10476SOL     OW36550   6.760   7.502   6.646 -0.7575 -0.3070 -0.1519
10476SOL    HW136551   6.686   7.460   6.699 -0.7465  0.1680  0.2449
10476SOL    HW236552   6.847   7.462   6.675 -0.8675 -0.9612 -0.7133
10477SOL     OW36553   4.719   3.794   1.351 -0.3173  0.2715  1.0935
10477SOL    HW136554   4.794   3.802   1.286 -0.3152 -1.2711  0.8825
10477SOL    HW236555   4.714   3.700   1.386 -2.5473  0.1763  0.6044
10478SOL     OW36556   2.539   0.131   6.990  0.6373  0.1615  0.1847
10478SOL    HW136557   2.559   0.135   6.893  0.4610  0.4445  0.1613
10478SOL    HW236558   2.614   0.084   7.038  0.0589 -1.2884 -0.2850
10479SOL     OW36559   3.437   2.620   5.937 -0.2166  0.3725 -0.2087
10479SOL    HW136560   3.417   2.538   5.992 -1.2600  0.9458  0.2879
10479SOL    HW236561   3.434   2.596   5.840 -0.6701 -0.1487 -0.0676
10481SOL     OW36562   8.102   3.066   2.434 -0.5162  0.2296 -0.0213
10481SOL    HW136563   8.013   3.107   2.413  0.3604  2.3459  0.3319
10481SOL    HW236564   8.162   3.075   2.355 -0.3562 -0.5195  0.0124
10482SOL     OW36565   1.874   6.026   2.903 -0.3812 -0.1348  0.0698
10482SOL    HW136566   1.879   6.086   2.982 -0.6402  1.5391 -1.1571
10482SOL    HW236567   1.922   6.068   2.826 -0.4615 -1.5597 -0.7769
10484SOL     OW36568   4.315   4.099   4.150  1.4387  0.8442 -0.0332
10484SOL    HW136569   4.315   4.086   4.249 -1.0181  0.3931 -0.0659
10484SOL    HW236570   4.261   4.180   4.128 -1.6181 -1.4326 -1.2436
10486SOL     OW36571   0.307   6.391   0.108  0.7940  0.5070 -0.1878
10486SOL    HW136572   0.302   6.374   0.009 -0.1635  0.7491 -0.1823
10486SOL    HW236573   0.294   6.488   0.125 -2.2195  0.0201  0.4107
10487SOL     OW36574   3.790   1.095   6.833 -0.3627 -0.1892  0.3676
10487SOL    HW136575   3.889   1.086   6.823 -0.4625 -0.7201 -0.1986
10487SOL    HW236576   3.754   1.147   6.755 -0.1890  2.4978  2.0083
10488SOL     OW36577   6.421   0.815   6.247 -0.6501 -0.5224 -0.1131
10488SOL    HW136578   6.397   0.752   6.173 -1.3193 -0.1025 -0.2595
10488SOL    HW236579   6.480   0.887   6.211  3.5021 -3.2711  0.8887
10489SOL     OW36580   9.268   2.186   3.953 -0.1233  0.0684  0.4911
10489SOL    HW136581   9.308   2.098   3.927 -0.3301 -0.5065  2.0870
10489SOL    HW236582   9.172   2.188   3.926  0.3994  0.6122 -1.3947
10490SOL     OW36583   8.083   3.838   3.084  0.2290 -0.3556 -0.0308
10490SOL    HW136584   8.071   3.829   2.985 -1.6121 -1.8690  0.3096
10490SOL    HW236585   8.070   3.934   3.110  2.5623  0.3940 -1.4574
10491SOL     OW36586   8.879   8.940   6.364 -0.0833  0.3807  0.7848
10491SOL    HW136587   8.788   8.982   6.354  0.3855  0.6935 -2.6516
10491SOL    HW236588   8.886   8.862   6.302  1.6765 -0.2543  1.7682
10492SOL     OW36589   4.225   9.347   4.186  0.4600 -0.3684 -0.2308
10492SOL    HW136590   4.152   9.414   4.170  0.8140  0.0411 -0.1404
10492SOL    HW236591   4.227   9.321   4.282  0.6611 -0.1125 -0.1654
10493SOL     OW36592   4.709   6.596   0.690 -0.3794 -0.0521  0.3138
10493SOL    HW136593   4.751   6.520   0.640 -1.0641 -1.2532  1.5339
10493SOL    HW236594   4.775   6.632   0.756  0.3148  1.1325 -1.0050
10494SOL     OW36595   1.582   6.241   5.013  0.4304 -0.0634 -0.7048
10494SOL    HW136596   1.620   6.270   5.101  1.3367 -0.7687 -0.8533
10494SOL    HW236597   1.653   6.247   4.943  0.6846 -2.6422 -0.7292
10496SOL     OW36598   6.606   0.111   6.344 -0.1832 -0.2339  0.0906
10496SOL    HW136599   6.585   0.014   6.356  1.6113 -0.8452 -1.3699
10496SOL    HW236600   6.673   0.121   6.270  2.4468  1.8126  2.6681
10497SOL     OW36601   3.749   4.144   2.953 -0.8376 -0.3495  0.4729
10497SOL    HW136602   3.690   4.080   2.904  1.1728 -0.4244 -1.9665
10497SOL    HW236603   3.733   4.237   2.920  1.1090 -0.5014 -1.0091
10498SOL     OW36604   4.071   2.113   1.430 -0.0556  0.2636 -0.3078
10498SOL    HW136605   4.105   2.204   1.453  1.5654 -0.1691 -0.9558
10498SOL    HW236606   4.053   2.062   1.514  0.8160  0.5252  0.0417
10500SOL     OW36607   7.777   2.724   5.658 -0.1650 -0.5248 -0.5262
10500SOL    HW136608   7.821   2.799   5.708  1.1990 -0.1323 -2.2273
10500SOL    HW236609   7.841   2.690   5.589 -0.8238 -3.1879  0.1391
10501SOL     OW36610   8.336   4.483   1.309  0.1841 -0.1448 -0.5735
10501SOL    HW136611   8.421   4.431   1.317  0.2673 -0.1088 -1.2078
10501SOL    HW236612   8.263   4.422   1.277 -0.2244 -0.3664  0.7396
10502SOL     OW36613   8.930   9.308   4.244 -0.1975  0.9418 -0.2915
10502SOL    HW136614   9.000   9.361   4.194  0.5621  0.7815  0.5846
10502SOL    HW236615   8.938   9.327   4.341 -1.5812  1.1377 -0.2120
10503SOL     OW36616   1.445   0.714   6.220  0.5596 -0.3962 -0.0891
10503SOL    HW136617   1.422   0.786   6.285  2.1042  0.2806 -0.2701
10503SOL    HW236618   1.431   0.625   6.264 -0.7514  0.0010  0.3399
10505SOL     OW36619   2.483   4.979   2.794 -0.0207 -0.1748 -0.2187
10505SOL    HW136620   2.399   5.005   2.843  0.6539  0.3811  0.6451
10505SOL    HW236621   2.460   4.911   2.725 -1.5373  1.4862 -1.4110
10506SOL     OW36622   5.614   4.472   1.949 -0.0402  0.6652  0.0251
10506SOL    HW136623   5.534   4.491   1.892  0.7259 -0.3668 -1.4304
10506SOL    HW236624   5.618   4.374   1.969  0.4938  0.8134  0.6392
10507SOL     OW36625   0.465   8.830   2.511  0.3434 -0.2111  0.5773
10507SOL    HW136626   0.427   8.854   2.422  0.3267 -0.5303  0.4981
10507SOL    HW236627   0.558   8.795   2.500  0.6581  0.5427  0.7683
10508SOL     OW36628   3.853   8.631   4.267 -0.1412 -0.0444 -0.5499
10508SOL    HW136629   3.918   8.669   4.333 -0.2089 -2.4379  0.9470
10508SOL    HW236630   3.902   8.590   4.190  0.4154 -4.5912  2.0418
10509SOL     OW36631   3.682   6.481   3.405  0.2470  0.3873 -0.4305
10509SOL    HW136632   3.688   6.431   3.319 -0.3476  1.4073 -1.0728
10509SOL    HW236633   3.588   6.479   3.438  0.4396  0.1428  0.1152
10510SOL     OW36634   0.450   0.922   5.085  0.0561 -0.6480 -0.7620
10510SOL    HW136635   0.476   1.018   5.085 -0.8810 -0.3608 -3.0582
10510SOL    HW236636   0.351   0.914   5.073  0.0354 -1.8892  0.1443
10511SOL     OW36637   3.054   7.608   6.850  0.1800  0.4021  0.1091
10511SOL    HW136638   3.119   7.560   6.792 -1.9749 -4.5648  1.4890
10511SOL    HW236639   2.967   7.620   6.801 -0.0512  0.7464  0.5909
10515SOL     OW36640   3.411   0.485   6.347 -0.0727 -0.1193  0.0000
10515SOL    HW136641   3.365   0.407   6.389 -0.5141 -0.3616 -0.9194
10515SOL    HW236642   3.342   0.548   6.310  0.3230 -0.1914 -0.8559
10518SOL     OW36643   8.474   9.669   4.157 -0.9413 -0.1393 -0.0768
10518SOL    HW136644   8.431   9.579   4.167 -0.7231 -0.3408 -0.9436
10518SOL    HW236645   8.432   9.733   4.222 -0.3659 -1.1311  1.2777
10519SOL     OW36646   9.143   7.356   7.416 -0.2475  0.2804 -0.5291
10519SOL    HW136647   9.214   7.418   7.383  0.6218 -0.0994  0.5740
10519SOL    HW236648   9.177   7.262   7.412 -1.4748 -0.1188 -1.9914
10521SOL     OW36649   6.579   0.970   4.893 -0.5246 -0.0809  0.0747
10521SOL    HW136650   6.627   1.022   4.963 -2.6876  0.5946  1.1047
10521SOL    HW236651   6.538   1.033   4.826 -0.3960 -0.6056 -0.5004
10522SOL     OW36652   0.374   8.983   0.254  0.4665  0.6696 -0.4599
10522SOL    HW136653   0.340   8.899   0.212  1.0567  0.9471 -1.5023
10522SOL    HW236654   0.350   8.983   0.351 -0.6484 -0.1092 -0.7235
10523SOL     OW36655   2.242   0.836   5.746  0.4395 -0.2037 -0.0444
10523SOL    HW136656   2.328   0.881   5.773  0.6339 -0.9290  0.5759
10523SOL    HW236657   2.262   0.745   5.712 -0.0400 -0.1531 -0.4719
10525SOL     OW36658   2.001   0.473   1.080  0.0238 -0.3247 -0.2659
10525SOL    HW136659   1.982   0.397   1.142  1.6124 -0.3688  0.1744
10525SOL    HW236660   2.099   0.483   1.068 -0.2150  0.8497 -1.3416
10527SOL     OW36661   3.907   3.517   7.299 -0.3004  0.0005 -0.5519
10527SOL    HW136662   3.870   3.486   7.212  0.5705  2.3723 -1.8342
10527SOL    HW236663   4.005   3.538   7.289  0.8056 -3.4236  2.0326
10528SOL     OW36664   9.780   5.280   0.882  0.1857 -0.1071 -0.2403
10528SOL    HW136665   9.694   5.326   0.905 -0.1438 -0.7970 -0.0925
10528SOL    HW236666   9.761   5.193   0.838  0.8168 -0.0916 -0.5513
10530SOL     OW36667   5.731   7.925   4.726 -0.7604 -0.3673 -0.0238
10530SOL    HW136668   5.704   7.863   4.799  0.8790 -1.4835 -0.3386
10530SOL    HW236669   5.725   7.877   4.638  0.6286 -0.1352 -0.2552
10531SOL     OW36670   1.791   5.663   3.439  0.0712 -0.2359  0.3712
10531SOL    HW136671   1.834   5.574   3.422  0.1118 -0.0012 -0.8045
10531SOL    HW236672   1.725   5.683   3.367  1.4809  1.5500 -0.4713
10532SOL     OW36673   1.580   4.761   2.280  0.1761  0.2518 -0.6318
10532SOL    HW136674   1.671   4.732   2.308  0.3070  0.2774 -1.0290
10532SOL    HW236675   1.534   4.804   2.357 -0.0758 -1.1295 -0.0044
10533SOL     OW36676   0.045   8.908   7.744 -0.2660  0.0209 -0.3328
10533SOL    HW136677   0.037   8.878   7.649  0.7685 -1.1104 -0.0744
10533SOL    HW236678   0.051   9.008   7.746  0.3641  0.0250 -1.5069
10534SOL     OW36679   0.072   5.855   1.981  0.6747  0.0272 -0.5310
10534SOL    HW136680   0.027   5.839   2.069  0.5025  0.1141 -0.6023
10534SOL    HW236681   0.169   5.832   1.989  0.1566 -2.4156 -1.0366
10535SOL     OW36682   0.043   2.008   7.231 -0.2996 -0.1686 -0.3181
10535SOL    HW136683   0.134   2.036   7.201  0.1833 -0.6644  0.6679
10535SOL    HW236684   0.005   2.078   7.292 -1.2774  0.8350 -2.0223
10536SOL     OW36685   3.993   0.125   1.587  0.3171 -0.0739 -0.1177
10536SOL    HW136686   3.987   0.035   1.629 -1.9211  0.4458  0.7394
10536SOL    HW236687   3.909   0.144   1.536 -0.1041  2.3732  1.4360
10537SOL     OW36688   9.434   4.644   6.933 -0.1223 -0.4422 -0.8018
10537SOL    HW136689   9.422   4.653   6.834 -0.8747 -2.1352 -0.8682
10537SOL    HW236690   9.438   4.548   6.958  1.5739 -0.0219  0.6542
10538SOL     OW36691   9.997   2.343   1.644  0.0730 -0.4651 -0.2630
10538SOL    HW136692   9.983   2.269   1.708  0.9876 -0.5552 -0.1617
10538SOL    HW236693  10.048   2.417   1.688  0.0465 -0.2070 -0.6552
10539SOL     OW36694   9.942   6.104   1.630 -0.1392  0.0290 -0.1503
10539SOL    HW136695   9.963   6.009   1.607  2.3252  0.9673 -2.0327
10539SOL    HW236696   9.852   6.128   1.593 -1.0333 -1.7020  0.8296
10541SOL     OW36697   2.444   6.532   4.400  0.1582  0.1866 -0.0877
10541SOL    HW136698   2.527   6.569   4.442  0.7905 -1.4200  0.1270
10541SOL    HW236699   2.468   6.484   4.316 -0.5285 -0.3495  0.0180
10542SOL     OW36700   7.494   7.843   2.311  0.1582 -0.0910  0.4683
10542SOL    HW136701   7.543   7.917   2.266 -1.4500  1.0031  0.4752
10542SOL    HW236702   7.559   7.778   2.351  1.5725  0.4004 -1.0341
10543SOL     OW36703   0.982   1.071   6.889 -0.1926 -0.3283 -0.2445
10543SOL    HW136704   1.013   1.161   6.919 -0.3668 -0.2306 -0.3556
10543SOL    HW236705   0.884   1.061   6.909 -0.2232 -0.4076 -0.4276
10544SOL     OW36706   6.040   5.309   0.410  0.1724 -0.1820 -0.6935
10544SOL    HW136707   6.008   5.360   0.331 -0.7358 -2.0584 -1.5791
10544SOL    HW236708   6.104   5.238   0.381  1.9329  0.8261  0.5908
10546SOL     OW36709   8.108   4.245   4.172  0.0798 -0.2215  0.0262
10546SOL    HW136710   8.009   4.246   4.188  0.4385  0.3869  2.4858
10546SOL    HW236711   8.155   4.233   4.260  2.3079  3.6035 -0.5519
10549SOL     OW36712   6.671   0.860   5.374 -0.7112  0.0646 -0.3721
10549SOL    HW136713   6.632   0.842   5.465 -0.1821  0.2495 -0.1020
10549SOL    HW236714   6.612   0.923   5.324 -0.6242  0.5521  0.1332
10550SOL     OW36715   0.248   9.848   0.506  0.7484  0.2990 -0.3977
10550SOL    HW136716   0.206   9.779   0.447 -1.2903  1.3556 -0.2215
10550SOL    HW236717   0.210   9.840   0.598 -0.4087  2.4109 -0.6635
10551SOL     OW36718   0.623   4.231   3.543 -0.3220 -0.0595 -0.2899
10551SOL    HW136719   0.549   4.280   3.590  0.3370  0.8177 -0.1411
10551SOL    HW236720   0.679   4.183   3.610 -0.0102  0.3193 -0.2769
10552SOL     OW36721   1.014   2.034   7.196  0.1390 -0.4162 -0.0888
10552SOL    HW136722   1.042   1.953   7.247  1.8832  0.2843  0.1170
10552SOL    HW236723   0.984   2.105   7.261 -0.9386 -0.7216 -0.2420
10553SOL     OW36724   4.744   4.413   1.410 -0.3553  0.3185  0.3039
10553SOL    HW136725   4.722   4.341   1.476 -1.8203  0.5215  0.0581
10553SOL    HW236726   4.761   4.499   1.459  2.2782 -0.3840  0.6568
10554SOL     OW36727   6.641   9.195   6.550 -0.1049 -0.1180  0.0217
10554SOL    HW136728   6.679   9.242   6.470  0.1682  0.3611  0.4290
10554SOL    HW236729   6.672   9.241   6.633 -1.4246  0.1596  0.3728
10555SOL     OW36730   0.327   2.097   1.377  0.5389  0.0657 -0.1091
10555SOL    HW136731   0.255   2.029   1.361  0.6795  0.0686 -0.7915
10555SOL    HW236732   0.287   2.188   1.377  0.3697 -0.0089  0.6719
10556SOL     OW36733   9.801   4.186   4.187 -0.1151 -0.0994 -0.9064
10556SOL    HW136734   9.877   4.221   4.131 -0.0137  0.4784 -0.4147
10556SOL    HW236735   9.769   4.258   4.248  0.1184 -0.8790  0.1455
10557SOL     OW36736   9.272   0.471   6.654 -0.0701  0.3306  0.1578
10557SOL    HW136737   9.277   0.508   6.747 -1.1105  0.9205 -0.0147
10557SOL    HW236738   9.198   0.404   6.649 -0.3647  0.6950 -0.3763
10558SOL     OW36739   8.656   2.077   5.080  0.2716 -0.4701  0.0841
10558SOL    HW136740   8.665   2.017   5.001  1.9812  1.2786 -1.1120
10558SOL    HW236741   8.711   2.042   5.156 -0.3455 -1.4550  0.0884
10559SOL     OW36742   4.860   3.796   6.674 -0.1258 -0.4932  0.2379
10559SOL    HW136743   4.867   3.754   6.584  0.4946  0.8377 -0.3491
10559SOL    HW236744   4.763   3.810   6.697 -0.2584  0.3763 -0.8044
10561SOL     OW36745   0.308   2.503   3.556  0.7762 -0.2314 -0.1913
10561SOL    HW136746   0.291   2.533   3.462  0.9169  2.3118  0.5680
10561SOL    HW236747   0.222   2.506   3.608  1.1683  0.7671  0.4077
10562SOL     OW36748   2.373   4.652   7.608  0.3155  0.6156  0.5758
10562SOL    HW136749   2.408   4.676   7.698 -0.3623  0.1567  0.9659
10562SOL    HW236750   2.317   4.569   7.615  1.1132 -0.0251 -0.4367
10563SOL     OW36751   2.741   1.911   1.727 -0.1473  0.0817 -0.4619
10563SOL    HW136752   2.734   1.830   1.786 -2.6797 -0.6515 -1.7045
10563SOL    HW236753   2.649   1.948   1.711  0.9972  3.6159  0.6033
10564SOL     OW36754   4.997   3.692   2.041 -0.1633  0.0848  0.4424
10564SOL    HW136755   5.000   3.791   2.026 -0.9977  0.2970  1.6705
10564SOL    HW236756   4.903   3.660   2.032  0.0521 -0.5448  0.4103
10565SOL     OW36757   4.410   8.671   1.104  0.3567 -0.0541  0.2721
10565SOL    HW136758   4.462   8.676   1.189 -0.6792  0.5119  0.8883
10565SOL    HW236759   4.393   8.576   1.080  0.8136 -0.2183  0.5985
10566SOL     OW36760   8.004   0.532   3.098  0.4066 -0.0012 -0.4372
10566SOL    HW136761   8.018   0.597   3.172 -0.6082  0.0565 -0.2937
10566SOL    HW236762   8.036   0.572   3.012 -0.9590  0.9930 -0.4748
10568SOL     OW36763   3.220   2.657   6.245 -0.2126 -0.4564  0.1984
10568SOL    HW136764   3.264   2.730   6.193 -0.6161  0.8884  1.6934
10568SOL    HW236765   3.289   2.603   6.292  0.0302 -0.4263 -0.1205
10569SOL     OW36766   5.684   9.058   4.380 -0.1059  0.1798  0.0809
10569SOL    HW136767   5.662   8.968   4.418 -1.7686 -0.0556 -1.3735
10569SOL    HW236768   5.750   9.104   4.440  0.9260 -2.0729  0.7424
10570SOL     OW36769   8.362   8.293   3.292  0.1086 -0.4693  0.5412
10570SOL    HW136770   8.269   8.264   3.315 -0.3966  0.3460 -0.4343
10570SOL    HW236771   8.376   8.387   3.322  0.1998 -0.1773 -0.3794
10571SOL     OW36772   0.202   7.620   6.842 -0.0388 -0.1843  0.0003
10571SOL    HW136773   0.219   7.646   6.937  0.1956 -1.0020  0.1881
10571SOL    HW236774   0.117   7.663   6.810  1.1476  2.0553 -0.2121
10572SOL     OW36775   8.977   2.228   4.393  0.0417  0.2688  0.2300
10572SOL    HW136776   9.071   2.196   4.385  0.2413  0.8463  0.1685
10572SOL    HW236777   8.964   2.307   4.333 -0.1944  0.8072  0.9698
10573SOL     OW36778   2.788   2.384   1.448 -0.0681 -0.2780 -0.0627
10573SOL    HW136779   2.708   2.351   1.400 -1.1863  0.0295  1.5328
10573SOL    HW236780   2.787   2.484   1.450  0.0689 -0.2823  0.4071
10574SOL     OW36781   3.971   2.408   6.591  0.0543 -0.3200  0.8145
10574SOL    HW136782   4.059   2.454   6.602 -0.2694  0.0906  1.7258
10574SOL    HW236783   3.897   2.471   6.613 -0.3977 -1.2850  2.1116
10577SOL     OW36784   6.825   9.800   2.269 -0.5858 -0.8294  0.1868
10577SOL    HW136785   6.825   9.705   2.238  0.1987 -0.3334 -1.4002
10577SOL    HW236786   6.897   9.813   2.337 -0.9704 -1.4726  0.7154
10578SOL     OW36787   7.282   7.469   7.332 -0.3015 -0.2334  0.6842
10578SOL    HW136788   7.251   7.551   7.285 -1.6914 -1.0747  0.1073
10578SOL    HW236789   7.287   7.393   7.267 -0.6406 -0.9973  1.5365
10579SOL     OW36790   1.371   8.590   3.796  0.6700 -0.2031 -0.0454
10579SOL    HW136791   1.446   8.652   3.770 -0.4528  0.5995 -1.5037
10579SOL    HW236792   1.357   8.594   3.895  2.5993 -0.4267  0.2539
10580SOL     OW36793   2.566   4.020   0.150 -0.4004 -0.7074 -0.1735
10580SOL    HW136794   2.574   3.961   0.070 -0.5010  0.9457 -1.4268
10580SOL    HW236795   2.500   4.093   0.132  0.9860  0.8081  0.6998
10581SOL     OW36796   7.578   6.621   4.158 -0.0017 -0.3542  0.4282
10581SOL    HW136797   7.585   6.606   4.256 -1.0267  0.3686  0.6129
10581SOL    HW236798   7.580   6.720   4.138  0.4992 -0.4993 -0.3023
10582SOL     OW36799   6.139   9.262   6.968 -0.2280 -0.5120  0.6945
10582SOL    HW136800   6.172   9.174   7.001 -0.7746  0.0440  2.7735
10582SOL    HW236801   6.216   9.320   6.942  0.1869 -1.0406  0.7563
10583SOL     OW36802   9.833   8.701   3.897 -0.1356  0.1751 -0.0428
10583SOL    HW136803   9.889   8.744   3.826 -0.1030 -0.2352 -0.2675
10583SOL    HW236804   9.781   8.625   3.857 -0.5050  0.2656  0.2628
10584SOL     OW36805   2.632   7.671   5.341 -0.0741 -0.0592  0.1277
10584SOL    HW136806   2.669   7.614   5.268  0.0684 -0.5502  0.5816
10584SOL    HW236807   2.590   7.613   5.410 -0.0960  0.3998  0.5002
10585SOL     OW36808   6.904   0.807   5.182 -0.2829  0.2052 -0.0242
10585SOL    HW136809   6.982   0.858   5.218 -0.5141  0.4530  0.1240
10585SOL    HW236810   6.826   0.815   5.245 -0.0315 -1.1058  0.4741
10586SOL     OW36811   6.048   1.633   3.597 -0.0271  0.2345  0.0151
10586SOL    HW136812   6.092   1.556   3.644  0.7802  1.2330  0.9030
10586SOL    HW236813   6.111   1.672   3.530 -0.2171  0.5233  0.0068
10588SOL     OW36814   4.583   6.989   1.452  0.4356 -0.3943 -0.0634
10588SOL    HW136815   4.607   7.064   1.513  1.0911 -1.4030  0.9331
10588SOL    HW236816   4.485   6.969   1.461  0.3820 -0.0574  0.1137
10589SOL     OW36817   2.148   2.909   7.466 -0.0260  0.0855  1.0078
10589SOL    HW136818   2.095   2.945   7.390  1.5306  0.1651 -0.0627
10589SOL    HW236819   2.206   2.981   7.503 -0.1586 -0.1749  1.7292
10590SOL     OW36820   4.110   8.384   6.451 -0.5699 -0.0841  0.2328
10590SOL    HW136821   4.041   8.391   6.378  0.4399 -0.5280 -0.7847
10590SOL    HW236822   4.157   8.296   6.443 -0.5699 -0.2114  1.5451
10591SOL     OW36823   1.577   9.232   1.918  0.4973 -0.3590 -0.9932
10591SOL    HW136824   1.546   9.196   1.830  0.4879 -0.9059 -0.7718
10591SOL    HW236825   1.504   9.224   1.986  0.5990 -0.2053 -0.8628
10592SOL     OW36826   4.823   5.548   7.856  0.4147  0.0224  0.2724
10592SOL    HW136827   4.798   5.570   7.951 -0.7014 -1.3402  0.3050
10592SOL    HW236828   4.922   5.540   7.849  0.5234  0.3308  1.2792
10593SOL     OW36829   0.925   0.851   7.663  0.2543  0.3538  0.3375
10593SOL    HW136830   0.984   0.788   7.714  0.9129  1.3333  0.7948
10593SOL    HW236831   0.905   0.930   7.720 -0.0345  0.8682 -0.4796
10594SOL     OW36832   9.002   1.044   0.718  0.1999 -0.0091 -0.2489
10594SOL    HW136833   9.079   1.045   0.782  0.1509  0.1279 -0.1918
10594SOL    HW236834   8.919   1.016   0.767  0.0478  0.6531 -0.1191
10597SOL     OW36835   9.203   5.930   1.811  0.0748  0.5637 -0.1462
10597SOL    HW136836   9.223   5.926   1.713 -0.4212 -0.2994 -0.2160
10597SOL    HW236837   9.260   6.000   1.854  0.7262  0.5227 -0.9399
10599SOL     OW36838   4.469   0.763   5.096 -0.1121 -0.1131 -0.4724
10599SOL    HW136839   4.526   0.772   5.178 -1.1968 -2.0871  0.5506
10599SOL    HW236840   4.522   0.791   5.016  0.6491  2.8145  0.9782
10600SOL     OW36841   9.791   3.310   7.403  0.2131 -0.5043  0.1990
10600SOL    HW136842   9.830   3.384   7.348 -3.0372  0.8023 -0.4611
10600SOL    HW236843   9.771   3.232   7.344 -0.5894 -0.1947  0.0634
10601SOL     OW36844   7.497   2.589   0.702 -0.0873 -0.3575 -0.1778
10601SOL    HW136845   7.482   2.496   0.736 -0.7014  0.2512  1.2615
10601SOL    HW236846   7.521   2.585   0.605 -0.0364 -2.0190 -0.1195
10602SOL     OW36847   9.175   3.554   1.771  0.0193 -0.8507 -0.3666
10602SOL    HW136848   9.164   3.630   1.706 -1.9845  0.4312  1.4177
10602SOL    HW236849   9.176   3.467   1.721 -4.0135 -0.0740 -1.9876
10604SOL     OW36850   6.820   5.860   2.345  0.1229 -0.5456 -0.6231
10604SOL    HW136851   6.746   5.828   2.285 -0.7656  0.4467 -0.0612
10604SOL    HW236852   6.891   5.904   2.290 -2.0878  3.0441 -0.6885
10605SOL     OW36853   2.688   1.576   0.698  0.8386 -0.0993  0.6417
10605SOL    HW136854   2.635   1.523   0.764  0.8378 -0.8231  0.0823
10605SOL    HW236855   2.689   1.527   0.610 -0.1875  1.4306 -0.2571
10607SOL     OW36856   0.739   1.610   3.170 -0.3867  0.6868  0.6080
10607SOL    HW136857   0.830   1.575   3.149 -1.0879 -0.8411  0.0441
10607SOL    HW236858   0.698   1.648   3.087 -1.4849 -1.4875  0.1250
10610SOL     OW36859   6.411   8.369   6.295  0.4927  0.4492 -0.3052
10610SOL    HW136860   6.346   8.315   6.242  1.0074  1.1483 -1.7029
10610SOL    HW236861   6.431   8.323   6.381  1.0942 -1.7023 -1.5519
10611SOL     OW36862   1.507   9.754   0.849 -0.5736 -0.5331  0.4005
10611SOL    HW136863   1.425   9.738   0.793  0.1367 -0.3221 -0.7222
10611SOL    HW236864   1.586   9.709   0.805  0.0863  0.0573  0.9731
10612SOL     OW36865   2.771   8.707   5.773  0.0973 -0.4342  0.4982
10612SOL    HW136866   2.834   8.649   5.720 -1.0656 -1.2876  0.0386
10612SOL    HW236867   2.698   8.650   5.810  0.5821  0.2378  2.5660
10613SOL     OW36868   4.276   3.891   7.352  0.3487  0.6508  0.2384
10613SOL    HW136869   4.286   3.852   7.444 -0.0132 -0.0034  0.0058
10613SOL    HW236870   4.335   3.842   7.288 -1.0346 -0.3528 -0.2958
10614SOL     OW36871   9.481   1.916   6.506  0.3088  0.3546  0.1534
10614SOL    HW136872   9.501   1.984   6.436 -0.0623  0.3863  0.0754
10614SOL    HW236873   9.383   1.919   6.529 -0.0363 -1.2250 -0.9943
10616SOL     OW36874   0.172   0.156   3.922 -0.3703 -0.1495  0.1701
10616SOL    HW136875   0.201   0.062   3.901  1.3639  0.2109  0.9032
10616SOL    HW236876   0.178   0.171   4.021 -1.7333  0.3829  0.1743
10617SOL     OW36877   4.024   3.265   1.081 -0.3013  0.5792  0.2969
10617SOL    HW136878   4.040   3.294   1.175 -0.7114  1.3282  0.1394
10617SOL    HW236879   3.961   3.187   1.080  0.7923 -0.3218  0.7235
10619SOL     OW36880   9.493   3.200   3.080  0.0000  0.0063 -0.1516
10619SOL    HW136881   9.572   3.231   3.132 -0.3054 -0.1415  0.3981
10619SOL    HW236882   9.517   3.197   2.983  0.5839  0.2278 -0.0163
10620SOL     OW36883   5.616   9.518   5.609 -0.2909 -0.0965 -0.2522
10620SOL    HW136884   5.592   9.532   5.705 -0.0936  0.6978 -0.3136
10620SOL    HW236885   5.702   9.564   5.589 -0.0104 -0.7874 -0.6584
10621SOL     OW36886   7.016   8.448   7.009  0.5129  0.2690  0.1102
10621SOL    HW136887   7.065   8.398   6.937  0.4504 -0.3840  0.5141
10621SOL    HW236888   7.024   8.397   7.095 -0.8729  0.1553  0.1739
10622SOL     OW36889   4.977   7.943   5.577  0.0528 -0.0178  0.3065
10622SOL    HW136890   4.942   7.997   5.654  2.0088 -1.2536  2.1298
10622SOL    HW236891   4.906   7.880   5.546  0.3999 -2.3022  3.7700
10624SOL     OW36892   3.575   5.940   3.746  0.7336  0.2476 -0.1856
10624SOL    HW136893   3.672   5.955   3.728  1.2284 -0.0816  2.0978
10624SOL    HW236894   3.553   5.843   3.732  0.8937  0.1817  0.0177
10625SOL     OW36895   5.759   9.588   4.581  0.7079 -0.4085  0.1509
10625SOL    HW136896   5.780   9.519   4.511  0.7165  0.6526 -0.9067
10625SOL    HW236897   5.739   9.675   4.537 -1.2045 -0.1917  1.3738
10626SOL     OW36898   0.169   8.701   2.051 -0.5264 -0.0177  0.0293
10626SOL    HW136899   0.101   8.765   2.087 -0.2432 -0.0870  0.6789
10626SOL    HW236900   0.203   8.735   1.963 -0.7227  0.4888  0.1473
10628SOL     OW36901   9.720   5.853   3.571 -0.4825  0.9773 -0.2771
10628SOL    HW136902   9.636   5.902   3.545 -0.6620  0.0136 -1.5046
10628SOL    HW236903   9.696   5.762   3.605 -0.2323  2.0512  2.9825
10629SOL     OW36904   4.784   8.483   5.069 -0.1748 -0.4628  0.1501
10629SOL    HW136905   4.808   8.397   5.115 -1.6068 -0.5149  0.8061
10629SOL    HW236906   4.840   8.557   5.106  1.0873 -1.1009 -0.4368
10630SOL     OW36907   6.045   7.931   2.622  0.1939 -0.1029 -0.6821
10630SOL    HW136908   6.064   8.015   2.674  0.6736 -1.1950  0.9398
10630SOL    HW236909   6.130   7.882   2.606 -0.4535 -1.8099  1.0231
10633SOL     OW36910   3.906   0.915   7.053  0.1156 -0.2756 -0.2481
10633SOL    HW136911   3.898   0.980   6.977  2.3804 -1.6741 -1.7684
10633SOL    HW236912   4.000   0.916   7.087 -0.4200 -1.0603  1.2700
10635SOL     OW36913   2.098   3.225   5.938 -0.3983 -0.0260  0.5558
10635SOL    HW136914   2.114   3.316   5.975  0.3474  0.6458 -1.3601
10635SOL    HW236915   2.165   3.161   5.976 -1.3289  0.0554  2.3999
10636SOL     OW36916   3.964   8.766   7.549  0.5474  0.2660  0.0675
10636SOL    HW136917   3.913   8.834   7.602  1.1031  0.6613  0.0951
10636SOL    HW236918   4.047   8.740   7.598 -0.2034 -1.2373  0.5500
10637SOL     OW36919   7.223   8.858   5.782 -0.1489  0.0628 -0.1931
10637SOL    HW136920   7.304   8.848   5.841  0.1154  0.3833 -0.4918
10637SOL    HW236921   7.147   8.805   5.819 -0.1122  0.5997  0.6742
10638SOL     OW36922   0.279   1.222   1.613 -0.2800 -0.5235  1.0259
10638SOL    HW136923   0.353   1.282   1.585 -0.8788  0.6764  1.9760
10638SOL    HW236924   0.274   1.143   1.551  1.3802 -0.3017  0.5963
10640SOL     OW36925   0.434   0.245   1.907  0.1447 -0.6420 -0.1668
10640SOL    HW136926   0.396   0.323   1.858  1.0372 -0.2078 -0.1737
10640SOL    HW236927   0.378   0.226   1.988  1.1247  1.3441  0.9959
10641SOL     OW36928   5.988   0.390   1.524 -0.1558  0.2489  0.0212
10641SOL    HW136929   5.954   0.376   1.616  0.9612  0.8933  0.5463
10641SOL    HW236930   6.048   0.314   1.498 -0.3234  0.1596 -0.1088
10643SOL     OW36931   3.738   7.118   4.114 -0.4157  0.0286  0.2728
10643SOL    HW136932   3.659   7.120   4.053 -0.4843 -0.0434  0.3592
10643SOL    HW236933   3.742   7.202   4.167  0.9582  1.1059 -1.5071
10644SOL     OW36934   6.721   4.132   0.705 -0.2663  0.1172  0.5596
10644SOL    HW136935   6.818   4.155   0.695 -0.2073 -0.6143 -0.6632
10644SOL    HW236936   6.678   4.195   0.769  0.8825  0.8368  0.6316
10645SOL     OW36937   7.967   7.182   5.097  0.1773 -0.0991 -0.3475
10645SOL    HW136938   7.948   7.155   5.003 -0.6750 -1.4655  0.1967
10645SOL    HW236939   7.919   7.120   5.159  0.9206  0.6513  0.9861
10646SOL     OW36940   7.665   9.955   4.620  0.1404 -0.5473  0.3907
10646SOL    HW136941   7.672   9.879   4.556  1.6228  0.9316 -1.2613
10646SOL    HW236942   7.569   9.979   4.634 -0.1634 -0.2342 -2.0927
10647SOL     OW36943   8.851   4.185   5.984  0.4721  0.3268 -0.1564
10647SOL    HW136944   8.751   4.193   5.984  0.6678  3.4814 -0.0625
10647SOL    HW236945   8.883   4.175   5.890  0.1219  0.3988 -0.2860
10648SOL     OW36946   0.764   9.654   4.807  0.1147  0.0005  0.1274
10648SOL    HW136947   0.741   9.616   4.718  1.2542 -1.8444  0.5933
10648SOL    HW236948   0.848   9.708   4.800 -1.2825  2.1139 -0.4544
10649SOL     OW36949   6.001   0.838   2.931  0.1723 -0.0321  0.3225
10649SOL    HW136950   5.966   0.836   2.837 -1.5454 -0.6297  0.9615
10649SOL    HW236951   6.000   0.745   2.969  0.4497  0.2713  1.0813
10650SOL     OW36952   9.708   6.068   5.307 -0.4989  0.8148 -0.2504
10650SOL    HW136953   9.761   6.043   5.226 -0.1941 -0.1473  0.2453
10650SOL    HW236954   9.758   6.137   5.359  0.2987 -0.1204  0.2382
10652SOL     OW36955   2.546   4.284   7.541  0.2040 -0.1937  0.2619
10652SOL    HW136956   2.620   4.239   7.590  0.1776  0.6016  1.0531
10652SOL    HW236957   2.462   4.277   7.594 -0.1854 -0.7161 -0.4275
10653SOL     OW36958   9.464   3.640   2.964  0.3674 -0.1790 -0.2124
10653SOL    HW136959   9.436   3.724   3.011  0.4717  0.0434 -0.5415
10653SOL    HW236960   9.553   3.610   2.999  0.0426 -0.5056  0.3484
10654SOL     OW36961   7.342   5.971   5.985  0.1983 -0.0588  0.3109
10654SOL    HW136962   7.325   6.065   6.015 -2.0774 -0.4124  0.2252
10654SOL    HW236963   7.371   5.916   6.063  0.2023  0.4057  0.6385
10655SOL     OW36964   0.163   4.554   5.355  0.3596 -0.5612  0.4102
10655SOL    HW136965   0.099   4.597   5.418  1.0483 -0.1375  0.8253
10655SOL    HW236966   0.218   4.487   5.404 -0.2601 -1.4552 -0.0966
10656SOL     OW36967   0.901   6.896   2.657  0.1955 -0.0948  0.4561
10656SOL    HW136968   0.905   6.881   2.756  0.4276 -0.6109  0.3671
10656SOL    HW236969   0.885   6.994   2.639 -3.6953 -0.5245  1.0775
10658SOL     OW36970   1.049   9.869   1.533 -0.0474 -0.8746 -0.7091
10658SOL    HW136971   1.101   9.790   1.565  1.2934 -0.3839 -1.6177
10658SOL    HW236972   0.996   9.908   1.608  0.6028 -1.6250  0.1403
10659SOL     OW36973   4.875   5.534   0.359  0.3220 -0.0910  0.0590
10659SOL    HW136974   4.931   5.611   0.390 -0.0160 -0.5013  1.7284
10659SOL    HW236975   4.932   5.453   0.349  0.6058  0.2606 -1.3355
10660SOL     OW36976   1.415   6.245   0.101  0.2804  0.2830 -0.3752
10660SOL    HW136977   1.378   6.335   0.123 -1.2227 -0.5900  0.8305
10660SOL    HW236978   1.488   6.221   0.165 -1.3665 -0.5798  1.2346
10661SOL     OW36979   9.352   6.666   1.486 -0.0157 -0.1511  0.1193
10661SOL    HW136980   9.339   6.570   1.510 -0.2825  0.0642  0.8447
10661SOL    HW236981   9.377   6.718   1.568  0.8088  0.2758 -0.3996
10662SOL     OW36982   6.851   8.731   3.809  0.1037 -0.3573 -0.2462
10662SOL    HW136983   6.844   8.801   3.880 -1.0488 -0.2385 -0.4692
10662SOL    HW236984   6.878   8.774   3.723 -0.3080 -0.2316 -0.3125
10663SOL     OW36985   2.055   8.388   4.941  0.5355  0.1278  0.1527
10663SOL    HW136986   2.144   8.355   4.907  1.7760  1.1534  2.2714
10663SOL    HW236987   2.056   8.386   5.041 -1.1127  2.0412  0.2163
10664SOL     OW36988   1.514   8.366   5.469 -0.1949  0.0854 -0.3582
10664SOL    HW136989   1.586   8.429   5.500  0.3003 -0.9137  0.5349
10664SOL    HW236990   1.520   8.356   5.369  0.8026  0.1461 -0.3139
10665SOL     OW36991   4.213   5.458   1.185 -0.4027 -0.1090  0.0837
10665SOL    HW136992   4.216   5.475   1.283  0.0948  0.2332  0.0149
10665SOL    HW236993   4.215   5.360   1.167  1.7705 -0.1471  0.3629
10667SOL     OW36994   7.705   4.809   1.216 -0.1193  0.3184 -0.5228
10667SOL    HW136995   7.770   4.736   1.196  0.2770  0.5291 -0.0260
10667SOL    HW236996   7.675   4.852   1.130 -0.8106 -0.8089 -0.8496
10668SOL     OW36997   9.789   3.656   6.354 -0.2751 -0.5300 -0.2713
10668SOL    HW136998   9.837   3.744   6.353 -0.6060 -0.3437 -2.3518
10668SOL    HW236999   9.840   3.589   6.300  0.0984 -1.7065  1.5042
10669SOL     OW37000   9.776   0.303   5.631  0.1134 -0.0520  0.4495
10669SOL    HW137001   9.828   0.235   5.683 -0.7696  0.7109  2.3457
10669SOL    HW237002   9.824   0.322   5.545  1.2460 -1.8099  0.6648
10670SOL     OW37003   0.653   2.248   2.909  0.2879  0.4657  0.3495
10670SOL    HW137004   0.661   2.346   2.926 -0.2466  0.6146 -0.2171
10670SOL    HW237005   0.561   2.228   2.875 -0.0215 -0.4219  1.6959
10671SOL     OW37006   9.584   4.266   0.099 -0.2947  0.0891 -0.4642
10671SOL    HW137007   9.653   4.205   0.060  0.1074  0.1732  0.1162
10671SOL    HW237008   9.531   4.217   0.168  0.9761  0.7980  1.0414
10673SOL     OW37009   2.714   0.587   6.764 -0.2637 -0.5117  0.6475
10673SOL    HW137010   2.770   0.506   6.786  0.2030 -1.2236 -2.8073
10673SOL    HW237011   2.637   0.592   6.826  0.0937 -3.2686  1.3767
10674SOL     OW37012   4.501   2.355   7.491  0.1048  0.5548  0.0975
10674SOL    HW137013   4.531   2.361   7.587  1.0015 -1.1169 -0.0567
10674SOL    HW237014   4.437   2.279   7.481 -0.9934  1.5340 -0.3934
10675SOL     OW37015   4.049   5.071   0.813  0.0908 -0.1515  0.2077
10675SOL    HW137016   3.956   5.105   0.826  0.6177  1.2356  0.5051
10675SOL    HW237017   4.086   5.107   0.728  0.7172  0.1504  0.6018
10676SOL     OW37018   1.605   6.234   2.696  0.1121  0.0686  0.6203
10676SOL    HW137019   1.648   6.150   2.730  0.3700 -0.0905 -0.0945
10676SOL    HW237020   1.614   6.306   2.765  1.3195 -0.0251  0.5725
10678SOL     OW37021   0.975   8.752   2.366  0.0237  0.6037  0.3052
10678SOL    HW137022   0.993   8.668   2.416  2.2917  0.7806 -0.1599
10678SOL    HW237023   0.926   8.731   2.281  0.7366 -0.2547  0.1086
10679SOL     OW37024   8.895   7.526   0.248 -0.1353  0.2407 -0.2935
10679SOL    HW137025   8.805   7.507   0.289  0.2879 -0.6164  0.2552
10679SOL    HW237026   8.920   7.451   0.187  0.4836  0.1648  0.0418
10680SOL     OW37027   0.913   6.696   0.659  0.4671  0.2031  0.0815
10680SOL    HW137028   0.865   6.609   0.644  1.4561 -0.2917 -0.2812
10680SOL    HW237029   0.970   6.688   0.741 -0.0109  0.7655  0.4704
10682SOL     OW37030   9.304   7.524   7.289  0.3526 -0.1825  0.2181
10682SOL    HW137031   9.310   7.529   7.190  0.7419 -0.3313  0.2349
10682SOL    HW237032   9.298   7.617   7.327  1.4058 -0.0816  0.1369
10683SOL     OW37033   3.488   2.279   0.899  0.0866 -0.1016  0.0797
10683SOL    HW137034   3.414   2.309   0.839  0.5617 -0.6979 -0.8123
10683SOL    HW237035   3.466   2.188   0.936  1.0985 -1.0070 -1.4774
10684SOL     OW37036   1.148   0.506   3.217  0.3842 -0.2688  0.1470
10684SOL    HW137037   1.239   0.491   3.178 -0.0674  0.1216 -1.0683
10684SOL    HW237038   1.096   0.421   3.214 -0.6033  0.4069 -2.6249
10688SOL     OW37039   4.584   3.682   7.258  0.1528 -0.0657 -0.3747
10688SOL    HW137040   4.533   3.603   7.292 -0.5556  0.8629  0.7791
10688SOL    HW237041   4.655   3.707   7.324  1.0419 -0.3486 -1.2098
10689SOL     OW37042   7.626   7.280   5.846 -0.0894 -0.2125  0.0478
10689SOL    HW137043   7.604   7.326   5.932 -0.5891 -1.3757  0.5491
10689SOL    HW237044   7.680   7.198   5.864 -2.3338 -1.8711 -0.5058
10690SOL     OW37045   1.371   2.913   0.302  0.4561  0.2795 -0.1899
10690SOL    HW137046   1.410   2.840   0.245 -2.0337 -1.4676  0.2463
10690SOL    HW237047   1.355   2.994   0.246  2.2722  0.1420 -0.9317
10691SOL     OW37048   0.312   1.955   6.560 -0.1894  0.1798 -0.1090
10691SOL    HW137049   0.382   2.024   6.576  0.4403 -0.2302 -1.0611
10691SOL    HW237050   0.260   1.979   6.477 -0.8306  0.2040  0.2955
10693SOL     OW37051   2.754   2.737   6.582 -0.1929  0.1661 -0.3071
10693SOL    HW137052   2.825   2.668   6.566 -1.0381 -0.7338 -0.2436
10693SOL    HW237053   2.670   2.710   6.536 -1.3007 -0.1556  1.8315
10694SOL     OW37054   1.232   6.070   0.239 -0.4068  0.4298  0.3598
10694SOL    HW137055   1.271   6.126   0.166  0.9722 -0.2638  0.5402
10694SOL    HW237056   1.143   6.035   0.211  0.0635  0.2606 -0.9599
10695SOL     OW37057   1.523   1.865   7.418  0.4279 -0.3776 -0.6672
10695SOL    HW137058   1.468   1.810   7.482  1.8467  0.4107  1.2783
10695SOL    HW237059   1.611   1.821   7.404  1.0675  0.7108 -0.1196
10696SOL     OW37060   0.727   2.383   0.378  0.1408 -0.2175  0.4682
10696SOL    HW137061   0.815   2.372   0.424  0.3836  1.3905  0.4129
10696SOL    HW237062   0.686   2.470   0.405  0.0991  0.5645 -1.9964
10697SOL     OW37063   4.108   0.564   4.505 -0.0899 -0.0278 -0.8091
10697SOL    HW137064   4.108   0.489   4.570 -1.1238 -0.0872 -0.8677
10697SOL    HW237065   4.084   0.529   4.414  2.0394 -0.0713 -1.3898
10699SOL     OW37066   5.246   7.066   1.395 -0.1660  0.7496  0.2803
10699SOL    HW137067   5.266   7.007   1.317  0.0824 -0.8714  1.5216
10699SOL    HW237068   5.241   7.010   1.478  1.0302  2.6070  1.6543
10700SOL     OW37069   3.838   9.370   1.615  0.5414  0.2148  0.2820
10700SOL    HW137070   3.915   9.398   1.559  0.4362 -0.4986 -0.2280
10700SOL    HW237071   3.848   9.408   1.707  1.4835  0.1466  0.2138
10702SOL     OW37072   1.584   1.338   0.550 -0.1705 -0.4484 -0.7299
10702SOL    HW137073   1.598   1.247   0.589 -1.2094 -0.0837  0.5254
10702SOL    HW237074   1.517   1.333   0.477 -1.1169 -0.4972  0.1410
10704SOL     OW37075   1.090   9.522   6.370 -0.2007  0.4941  0.0559
10704SOL    HW137076   1.065   9.461   6.295 -0.6605  1.0405 -0.2483
10704SOL    HW237077   1.183   9.555   6.357 -0.7893  1.7603 -1.0887
10705SOL     OW37078   4.325   4.551   2.606 -0.2283  0.3441 -0.1631
10705SOL    HW137079   4.227   4.555   2.623 -0.0037  1.1967  1.0060
10705SOL    HW237080   4.353   4.457   2.591 -1.1545  0.0463 -0.0238
10708SOL     OW37081   3.908   5.456   1.569 -0.1749  0.3478  0.3403
10708SOL    HW137082   3.892   5.544   1.525 -1.8162  0.8031  1.8034
10708SOL    HW237083   3.930   5.470   1.665  2.2699 -0.7060 -0.0243
10709SOL     OW37084   8.012   4.395   3.077  0.3496 -0.3938 -0.1912
10709SOL    HW137085   7.982   4.476   3.126 -0.7540 -0.9615  0.1036
10709SOL    HW237086   7.933   4.335   3.060  0.9738 -0.9286 -1.2890
10710SOL     OW37087   6.423   7.000   4.363 -0.1303  0.2507  0.0818
10710SOL    HW137088   6.419   7.100   4.368  0.8886  0.3462 -0.6274
10710SOL    HW237089   6.500   6.967   4.419 -0.2944 -0.1120  0.0963
10712SOL     OW37090   9.465   2.841   5.658  0.3989  0.4916  0.0100
10712SOL    HW137091   9.564   2.852   5.665  0.3361  0.8379  0.3860
10712SOL    HW237092   9.431   2.792   5.738  0.1963  0.8695  0.1574
10714SOL     OW37093   9.800   1.163   7.333 -0.6791 -0.8082  0.4504
10714SOL    HW137094   9.863   1.242   7.329 -1.1903 -0.3892  0.6315
10714SOL    HW237095   9.706   1.196   7.331 -0.9538 -1.5481 -2.9239
10715SOL     OW37096   0.920   5.900   2.867  0.2585  0.0954 -0.1622
10715SOL    HW137097   0.880   5.953   2.942 -0.3071  0.1721 -0.5161
10715SOL    HW237098   0.860   5.823   2.845  0.5394 -0.0604 -0.3796
10716SOL     OW37099   9.788   0.177   6.951  0.4893 -0.3853  0.0439
10716SOL    HW137100   9.749   0.266   6.928 -0.4724 -1.0187 -0.7855
10716SOL    HW237101   9.820   0.131   6.868  0.7205 -0.9488  0.4375
10718SOL     OW37102   9.959   0.953   1.961 -0.4342  0.2578  0.5793
10718SOL    HW137103   9.882   1.015   1.976  0.7109  1.6894  0.7399
10718SOL    HW237104  10.022   0.994   1.895  0.6227 -0.4736  1.1199
10719SOL     OW37105   2.160   1.934   4.432  0.3838  0.5736  0.0418
10719SOL    HW137106   2.189   2.030   4.429 -0.9381  1.0027  0.4967
10719SOL    HW237107   2.061   1.930   4.440  0.4736 -0.8405  0.5170
10720SOL     OW37108   7.475   9.399   7.602  0.5946  0.1405  0.1274
10720SOL    HW137109   7.430   9.348   7.528  0.5874 -2.2511  1.7197
10720SOL    HW237110   7.405   9.444   7.658  0.4963  0.6388 -0.3995
10722SOL     OW37111   7.126   0.875   0.228  0.4545 -0.7654 -0.1409
10722SOL    HW137112   7.220   0.895   0.253 -0.6605  2.7475  1.5584
10722SOL    HW237113   7.086   0.812   0.295  0.6917  0.2216  0.9541
10723SOL     OW37114   6.553   8.376   2.069 -0.0913  0.0397 -0.0043
10723SOL    HW137115   6.520   8.467   2.095  0.7458  0.3657 -0.0821
10723SOL    HW237116   6.487   8.307   2.100 -0.5891  0.6476  0.3044
10725SOL     OW37117   9.142   5.401   3.891 -0.1869 -0.0738 -0.3023
10725SOL    HW137118   9.222   5.400   3.950  0.3042 -0.4922 -0.9648
10725SOL    HW237119   9.103   5.493   3.889  0.6803  0.3006 -0.5066
10726SOL     OW37120   9.172   6.593   4.832 -0.8519 -0.1790  0.5796
10726SOL    HW137121   9.207   6.684   4.810 -1.8935  0.0491 -0.1979
10726SOL    HW237122   9.074   6.599   4.852 -1.0358 -1.1993  0.0367
10727SOL     OW37123   5.026   6.243   0.103 -0.9210 -0.0470 -0.7593
10727SOL    HW137124   5.013   6.262   0.200  1.7362  1.8036 -0.7132
10727SOL    HW237125   4.972   6.307   0.048 -0.2949  0.7206 -0.4971
10728SOL     OW37126   2.320   7.150   6.743  0.2200  0.1678 -0.5616
10728SOL    HW137127   2.274   7.096   6.673 -2.6210  0.8272  0.7220
10728SOL    HW237128   2.343   7.240   6.706 -1.0229  0.4112 -0.7790
10732SOL     OW37129   9.707   2.904   0.434 -0.4753 -0.6420 -0.0867
10732SOL    HW137130   9.718   2.882   0.338 -0.0649 -1.8938  0.2348
10732SOL    HW237131   9.763   2.983   0.457  2.6305 -2.7605 -0.0004
10733SOL     OW37132   0.328   8.092   0.298 -0.0028 -0.3067 -0.4304
10733SOL    HW137133   0.314   8.181   0.254  1.4617 -0.2481 -0.8369
10733SOL    HW237134   0.245   8.037   0.291 -1.0335  1.1483  0.1176
10734SOL     OW37135   6.457   9.799   4.522 -0.2603 -0.0348  0.2086
10734SOL    HW137136   6.492   9.892   4.511 -0.6467 -0.0670 -1.4036
10734SOL    HW237137   6.413   9.790   4.611 -0.2126  1.3160  0.3751
10735SOL     OW37138   3.260   2.297   2.357  0.1682 -0.1213 -0.2840
10735SOL    HW137139   3.307   2.230   2.300  0.4094  0.6834 -1.0538
10735SOL    HW237140   3.163   2.297   2.336  0.3800  0.7368 -1.2754
10736SOL     OW37141   5.964   1.027   0.299  0.6128 -0.1771  0.2100
10736SOL    HW137142   5.974   0.939   0.346 -0.0921 -1.2755 -1.6345
10736SOL    HW237143   5.994   1.101   0.359  1.4724 -1.7009  1.6927
10737SOL     OW37144   7.143   6.636   4.134 -0.1777  0.3023 -0.1326
10737SOL    HW137145   7.188   6.653   4.047  1.3644 -1.3240  0.3056
10737SOL    HW237146   7.207   6.592   4.197 -2.0710 -1.1565  0.8656
10739SOL     OW37147   6.137   0.134   1.514 -0.1511  0.5685  0.1205
10739SOL    HW137148   6.198   0.152   1.591  0.2381 -2.1954  0.5260
10739SOL    HW237149   6.191   0.117   1.431 -0.4505  0.3298 -0.0286
10741SOL     OW37150   0.202   9.800   3.354 -0.0991 -0.2526 -0.3639
10741SOL    HW137151   0.254   9.773   3.435 -0.7575  1.7258  0.7390
10741SOL    HW237152   0.206   9.899   3.343 -0.4971 -0.4464 -2.4316
10742SOL     OW37153   1.708   8.526   4.292 -0.0836 -0.2690 -0.0581
10742SOL    HW137154   1.610   8.509   4.302 -0.0297 -0.7933 -0.3652
10742SOL    HW237155   1.727   8.623   4.307 -0.7987  0.0333 -1.0154
10743SOL     OW37156   6.577   1.144   1.166  0.3444 -0.4063  0.3959
10743SOL    HW137157   6.592   1.060   1.115 -1.0369 -0.1136 -0.5084
10743SOL    HW237158   6.609   1.222   1.111 -1.7961 -0.0252 -0.3754
10745SOL     OW37159   0.496   6.999   2.100 -0.9381 -0.2682  0.1140
10745SOL    HW137160   0.555   6.938   2.153 -1.4621 -1.3501 -0.5301
10745SOL    HW237161   0.544   7.085   2.082 -0.2001 -0.4756  1.0394
10746SOL     OW37162   5.173   0.389   1.827  0.1966 -0.2798  0.1315
10746SOL    HW137163   5.075   0.407   1.819 -0.0075 -0.4544  1.9797
10746SOL    HW237164   5.202   0.329   1.752 -0.9624  0.3171 -0.8119
10747SOL     OW37165   3.852   4.332   5.620 -0.1231 -0.3977 -0.5157
10747SOL    HW137166   3.937   4.384   5.610  0.4012 -0.8993  1.1591
10747SOL    HW237167   3.845   4.265   5.546  0.2124  0.6095 -1.4873
10749SOL     OW37168   0.081   4.776   0.185 -0.1621 -0.0360  0.1835
10749SOL    HW137169  -0.015   4.790   0.159 -0.5312 -1.7497  0.6093
10749SOL    HW237170   0.098   4.679   0.200  1.5461  0.3053  0.5202
10750SOL     OW37171   9.641   5.988   5.655 -0.5685  0.4304 -0.8384
10750SOL    HW137172   9.722   6.044   5.634  0.2500  0.2700  1.6059
10750SOL    HW237173   9.667   5.892   5.657 -0.7796  0.3859  0.0655
10751SOL     OW37174   0.135   7.477   1.075 -0.2027 -0.4186 -0.0354
10751SOL    HW137175   0.223   7.520   1.095 -0.1985 -0.2330 -0.4442
10751SOL    HW237176   0.150   7.387   1.035 -0.1313  0.8814 -3.0331
10755SOL     OW37177   4.149   8.817   4.942 -0.0921  0.2506  0.1629
10755SOL    HW137178   4.229   8.764   4.918 -0.1422  1.0413 -1.8053
10755SOL    HW237179   4.170   8.875   5.021  1.2376  0.3851 -0.2867
10756SOL     OW37180   4.991   7.532   4.565 -0.3045 -0.1089 -0.7077
10756SOL    HW137181   5.041   7.446   4.573  1.6824  1.0971  0.4478
10756SOL    HW237182   4.893   7.516   4.578  0.2681 -1.8798  1.9209
10758SOL     OW37183   3.834   2.630   3.288  0.0874  0.5884  0.2556
10758SOL    HW137184   3.818   2.714   3.339  0.9055  0.8712  0.0616
10758SOL    HW237185   3.875   2.561   3.348  1.0797  0.9316 -0.0146
10759SOL     OW37186   3.507   0.899   5.239 -0.0069 -0.0291 -0.0943
10759SOL    HW137187   3.445   0.932   5.311 -0.4185 -0.8297 -0.0756
10759SOL    HW237188   3.599   0.889   5.277  0.1425  1.1228 -0.1096
10760SOL     OW37189   1.722   6.128   0.730  0.0240 -0.3789 -0.3161
10760SOL    HW137190   1.740   6.032   0.753  1.1182 -0.4533 -1.3982
10760SOL    HW237191   1.775   6.187   0.790  1.1924 -0.5207 -1.1891
10762SOL     OW37192   4.920   1.529   0.821 -0.1225 -0.3850 -0.6584
10762SOL    HW137193   4.892   1.621   0.792 -1.4763 -0.1228  1.3976
10762SOL    HW237194   4.868   1.461   0.769 -0.3785  0.0338 -0.9544
10763SOL     OW37195   1.828   8.226   7.569 -0.5893  0.2096 -0.1706
10763SOL    HW137196   1.778   8.281   7.636 -0.8729 -2.4424  1.9128
10763SOL    HW237197   1.769   8.206   7.491 -1.8160 -0.4738  0.9259
10764SOL     OW37198   3.813   8.454   1.257 -0.2846  0.2343 -0.1433
10764SOL    HW137199   3.754   8.529   1.225  1.1725  1.1456 -0.7655
10764SOL    HW237200   3.829   8.464   1.355 -1.6122 -0.3501  0.1502
10765SOL     OW37201   0.672   9.468   3.236  0.3348 -0.4336  0.0016
10765SOL    HW137202   0.604   9.516   3.291 -0.3440 -0.6733 -0.6290
10765SOL    HW237203   0.752   9.446   3.293  0.4144  0.9441  0.4349
10766SOL     OW37204   1.451   2.858   1.554 -0.2335 -0.0360  0.0200
10766SOL    HW137205   1.539   2.841   1.509 -0.3353 -0.8762  0.1381
10766SOL    HW237206   1.412   2.944   1.519 -1.3694 -1.7538 -3.1309
10767SOL     OW37207   9.162   0.842   6.438  0.0264 -0.1694 -0.4016
10767SOL    HW137208   9.126   0.925   6.482 -0.5306 -1.0828  0.9136
10767SOL    HW237209   9.085   0.782   6.414  0.4156 -0.2190 -1.5216
10768SOL     OW37210   9.940   8.831   1.578 -0.1972 -0.0891 -0.1610
10768SOL    HW137211   9.876   8.887   1.631  0.4435  0.7227 -0.2315
10768SOL    HW237212   9.996   8.890   1.520  0.7649 -0.7686  0.0683
10770SOL     OW37213   2.389   2.292   0.387 -0.0769  0.0424  0.5844
10770SOL    HW137214   2.332   2.214   0.412  1.5005 -0.6748  2.0100
10770SOL    HW237215   2.383   2.363   0.457  0.1107  0.3389  0.3095
10772SOL     OW37216   0.873   6.497   2.436 -0.7070 -0.6747 -0.1257
10772SOL    HW137217   0.893   6.572   2.373  0.8711 -1.0600 -0.0940
10772SOL    HW237218   0.820   6.532   2.513 -1.5269  0.0502 -0.9972
10773SOL     OW37219   3.964   6.114   2.897  0.4991  0.2187 -0.3014
10773SOL    HW137220   3.932   6.144   2.987 -0.2264  0.3457 -0.5939
10773SOL    HW237221   4.017   6.187   2.855 -0.6954  0.8679 -0.7264
10774SOL     OW37222   7.783   7.464   1.426 -0.3409  0.2208 -0.3579
10774SOL    HW137223   7.797   7.527   1.349 -1.2641 -0.0692 -0.7689
10774SOL    HW237224   7.863   7.467   1.486  0.2744  0.6530 -1.1824
10775SOL     OW37225   1.579   7.324   4.817  0.1760  0.0540  0.2947
10775SOL    HW137226   1.511   7.262   4.780 -1.3272  0.3970  2.3717
10775SOL    HW237227   1.643   7.274   4.875  0.6516 -0.0084 -0.2900
10777SOL     OW37228   8.197   3.309   2.552 -0.1585 -0.1717 -0.0031
10777SOL    HW137229   8.261   3.280   2.481  0.6900  0.3163  0.5483
10777SOL    HW237230   8.185   3.235   2.618 -0.5943 -0.4635 -0.4122
10780SOL     OW37231   7.221   8.676   4.391 -0.1432 -0.4795  0.2095
10780SOL    HW137232   7.125   8.647   4.395 -0.5636  0.7501 -0.5439
10780SOL    HW237233   7.225   8.774   4.369  1.2518 -0.2103  1.5631
10781SOL     OW37234   5.978   9.253   2.951  0.8211 -0.6365  0.1274
10781SOL    HW137235   5.890   9.245   2.904  0.3763  1.6498  0.5315
10781SOL    HW237236   6.048   9.281   2.886  0.9854 -1.1068  0.0951
10783SOL     OW37237   0.249   8.044   1.266 -0.7984 -0.3746 -0.2537
10783SOL    HW137238   0.319   7.979   1.235 -0.7470 -0.6897  0.5257
10783SOL    HW237239   0.163   7.995   1.280 -0.7316 -0.2868  0.4360
10784SOL     OW37240   6.670   2.243   5.169  0.2608 -0.1810  0.0532
10784SOL    HW137241   6.734   2.262   5.094 -0.2789 -0.1690 -0.4079
10784SOL    HW237242   6.598   2.182   5.136  0.1667 -0.3844  0.6358
10785SOL     OW37243   9.168   3.775   1.618 -0.6014  0.3355  0.1192
10785SOL    HW137244   9.240   3.765   1.550 -0.5557  1.9495 -0.0924
10785SOL    HW237245   9.180   3.861   1.666 -0.8288 -0.6420  1.9601
10788SOL     OW37246   2.641   8.193   4.630 -0.2825 -0.1014 -0.0825
10788SOL    HW137247   2.713   8.260   4.649 -1.3775  1.1824 -0.3966
10788SOL    HW237248   2.613   8.149   4.715  1.0134 -0.7622  0.0116
10789SOL     OW37249   0.028   5.503   5.198 -0.1901  0.0763  0.1847
10789SOL    HW137250   0.043   5.506   5.099 -1.6433 -1.7209 -0.1116
10789SOL    HW237251   0.063   5.587   5.239  0.4582  0.8361 -1.8456
10790SOL     OW37252   4.290   8.682   6.809  0.0408  0.6118 -0.2064
10790SOL    HW137253   4.356   8.639   6.871 -2.1665 -1.3737  0.8360
10790SOL    HW237254   4.260   8.616   6.741 -1.7836  1.1231  0.0762
10792SOL     OW37255   0.080   5.710   0.198  0.0923  0.3467 -0.0649
10792SOL    HW137256   0.058   5.790   0.141  0.3060  0.3344 -0.1657
10792SOL    HW237257   0.068   5.733   0.294 -1.1146  0.1098 -0.1451
10793SOL     OW37258   8.547   2.781   4.876  0.6141 -0.1222  0.1333
10793SOL    HW137259   8.479   2.849   4.903  0.1857 -1.1547  1.7120
10793SOL    HW237260   8.571   2.794   4.780  0.0414  1.8248  0.2377
10794SOL     OW37261   6.957   4.145   2.729  0.0322 -0.5603 -0.2222
10794SOL    HW137262   6.867   4.104   2.747 -0.7241  1.0567 -0.2005
10794SOL    HW237263   7.013   4.081   2.676 -0.6396 -2.1224  0.9177
10795SOL     OW37264   7.407   6.606   5.874 -0.1996  0.0554  0.2873
10795SOL    HW137265   7.401   6.677   5.803 -0.7203  0.5339  0.8109
10795SOL    HW237266   7.503   6.588   5.894  0.0203 -1.4576 -1.9174
10796SOL     OW37267   8.701   9.350   6.801  0.1054 -0.3174  0.5472
10796SOL    HW137268   8.646   9.268   6.786  1.4409 -1.0272 -0.5608
10796SOL    HW237269   8.758   9.337   6.882  0.4984 -0.5713  0.2276
10797SOL     OW37270   0.043   0.298   3.459 -0.2527 -0.2118  1.0011
10797SOL    HW137271  -0.057   0.295   3.459 -0.2754  0.6080 -0.0023
10797SOL    HW237272   0.075   0.348   3.379  1.0938 -4.5419 -1.3522
10798SOL     OW37273   7.838   6.705   2.444  0.2760 -0.0282 -0.1521
10798SOL    HW137274   7.899   6.680   2.368  1.2856 -2.2471  1.3423
10798SOL    HW237275   7.847   6.803   2.462  1.6519  0.1260 -1.4824
10799SOL     OW37276   0.236   5.141   1.421 -0.6930  0.2320  0.3193
10799SOL    HW137277   0.180   5.197   1.361 -1.2286 -0.0515  0.5497
10799SOL    HW237278   0.259   5.055   1.376 -0.0965  0.5262  0.0670
10800SOL     OW37279   4.761   5.167   3.139 -0.3251  0.4410  0.1485
10800SOL    HW137280   4.776   5.264   3.119 -0.0110 -0.4021 -4.2356
10800SOL    HW237281   4.846   5.116   3.124 -1.2576 -0.9288 -0.6492
10801SOL     OW37282   0.526   5.688   1.040 -0.1019 -0.4887 -0.3734
10801SOL    HW137283   0.513   5.656   1.134  0.8104  0.6726  0.1643
10801SOL    HW237284   0.508   5.613   0.976 -1.1600 -1.1709  0.6997
10802SOL     OW37285   1.038   9.612   3.793 -0.0031 -0.5943 -0.0981
10802SOL    HW137286   1.105   9.539   3.804  0.7657 -0.0556 -1.1176
10802SOL    HW237287   0.966   9.602   3.862  1.9296 -0.2524  2.0158
10803SOL     OW37288   8.638   0.783   6.020  0.3049 -0.6100  0.0323
10803SOL    HW137289   8.727   0.742   6.040  0.2715  0.2373  1.9901
10803SOL    HW237290   8.651   0.870   5.972  0.4924 -0.9832 -0.5979
10804SOL     OW37291   7.628   5.225   1.700  0.0710 -0.0779 -0.2700
10804SOL    HW137292   7.555   5.161   1.724 -0.5261  0.1274 -1.4699
10804SOL    HW237293   7.712   5.175   1.680  0.1321 -0.3515  0.6560
10805SOL     OW37294   8.832   7.486   2.925  0.3371 -0.0511  0.1912
10805SOL    HW137295   8.893   7.532   2.861 -1.2785  0.4235 -1.0497
10805SOL    HW237296   8.757   7.547   2.950 -0.1002 -0.9069  1.0311
10806SOL     OW37297   0.484   4.935   3.900  0.1907 -0.9907  0.0680
10806SOL    HW137298   0.405   4.995   3.886  1.0393  0.1806  0.2584
10806SOL    HW237299   0.514   4.899   3.811 -0.1085 -0.8587 -0.0877
10807SOL     OW37300   6.660   1.613   3.536 -0.2355 -0.2586 -0.1966
10807SOL    HW137301   6.589   1.671   3.578 -0.3779 -0.6577  0.1174
10807SOL    HW237302   6.624   1.574   3.451 -1.8213 -3.6088  1.9419
10808SOL     OW37303   3.783   2.089   5.899 -0.3182  0.3140 -0.0063
10808SOL    HW137304   3.718   2.047   5.962 -0.1338 -0.7495 -0.5039
10808SOL    HW237305   3.863   2.121   5.949  0.6925 -2.2344  0.0987
10809SOL     OW37306   3.280   6.221   1.704  0.0775 -0.1214 -0.0575
10809SOL    HW137307   3.351   6.275   1.659 -0.6665 -0.0101 -1.1129
10809SOL    HW237308   3.209   6.196   1.637 -0.5456 -0.7854  0.8356
10810SOL     OW37309   9.242   0.141   2.699 -0.3362  0.1846 -0.1286
10810SOL    HW137310   9.253   0.199   2.780  1.5771  0.9090 -0.8634
10810SOL    HW237311   9.311   0.069   2.700  0.3789  0.8183 -1.6019
10811SOL     OW37312   3.456   6.905   4.941  0.6074 -0.4936 -0.1438
10811SOL    HW137313   3.523   6.848   4.893 -0.0887  0.1990 -1.9676
10811SOL    HW237314   3.501   6.951   5.017  1.8172 -1.3033 -0.3438
10812SOL     OW37315   3.158   4.502   0.841 -0.2934  0.4835 -0.0137
10812SOL    HW137316   3.221   4.466   0.773 -1.1153 -0.8983 -0.0758
10812SOL    HW237317   3.128   4.428   0.901 -1.0467  1.3134  0.6529
10817SOL     OW37318   6.391   7.303   4.410  0.4397 -0.2015 -0.3649
10817SOL    HW137319   6.389   7.381   4.472 -1.6730 -0.0086 -0.6386
10817SOL    HW237320   6.341   7.325   4.326  0.3921 -1.6046 -0.7255
10822SOL     OW37321   1.006   5.024   1.548  0.7084  0.5206  0.3307
10822SOL    HW137322   0.931   4.963   1.524  0.6436  0.3241  1.0176
10822SOL    HW237323   1.079   5.015   1.480  0.5658 -0.0822  0.2538
10825SOL     OW37324   9.143   6.826   6.972 -0.3460 -0.0079  0.1521
10825SOL    HW137325   9.213   6.818   6.901  0.9037  1.2526  1.2198
10825SOL    HW237326   9.056   6.793   6.936  0.5663 -0.6607 -1.5201
10826SOL     OW37327   8.242   9.667   7.907  0.5620 -0.1610  0.1977
10826SOL    HW137328   8.212   9.726   7.831  0.3308 -0.3758  0.1220
10826SOL    HW237329   8.339   9.681   7.923  0.2949  1.0099  0.8518
10827SOL     OW37330   6.260   2.028   5.782 -0.0029  0.8870  0.1578
10827SOL    HW137331   6.244   2.003   5.686 -2.7738  1.3012  0.4755
10827SOL    HW237332   6.308   2.116   5.785 -1.6539  1.8557 -0.8693
10828SOL     OW37333   2.026   9.796   6.183  0.6988  0.0456  0.1124
10828SOL    HW137334   2.004   9.848   6.265 -1.6642  0.0408 -0.4642
10828SOL    HW237335   2.054   9.858   6.110 -2.2785  0.6030 -0.6270
10829SOL     OW37336   6.354   9.762   6.724 -0.3032 -0.4573  0.0073
10829SOL    HW137337   6.417   9.835   6.750 -0.1933 -0.4918 -0.1620
10829SOL    HW237338   6.406   9.681   6.696 -0.4164 -1.3452  2.2306
10830SOL     OW37339   0.298   1.208   5.198 -0.0897 -0.1447 -0.1151
10830SOL    HW137340   0.295   1.307   5.203 -0.9290 -0.1974  0.4005
10830SOL    HW237341   0.305   1.169   5.290  1.0177 -0.5404 -0.3552
10831SOL     OW37342   2.738   9.577   7.910  0.0822 -0.2059  0.0081
10831SOL    HW137343   2.721   9.627   7.995  0.0716  1.0443 -0.7188
10831SOL    HW237344   2.736   9.641   7.833  3.0983 -0.7896 -0.6308
10832SOL     OW37345   0.628   0.271   2.643  0.0347  0.3936 -0.5978
10832SOL    HW137346   0.725   0.276   2.667 -0.1885 -1.2622  0.6837
10832SOL    HW237347   0.578   0.343   2.690  0.1599 -0.6682  1.1948
10833SOL     OW37348   0.295   0.861   0.536  0.2018  0.0438 -0.4331
10833SOL    HW137349   0.303   0.950   0.490 -0.6033  0.4429  0.1710
10833SOL    HW237350   0.317   0.788   0.471  0.3924  0.6597 -1.0775
10834SOL     OW37351   3.212   7.671   5.507  0.7293 -0.3781  0.0977
10834SOL    HW137352   3.188   7.767   5.490  1.5372 -0.2183 -0.1138
10834SOL    HW237353   3.276   7.667   5.584  3.1422 -0.5034 -1.8707
10835SOL     OW37354   2.590   1.689   0.064  0.6041  0.2419  0.4021
10835SOL    HW137355   2.599   1.741  -0.021 -0.7724  0.5051  0.3969
10835SOL    HW237356   2.662   1.717   0.128 -0.7773  3.0447  0.8244
10837SOL     OW37357   1.310   5.130   7.256  0.3732  0.6127  0.3335
10837SOL    HW137358   1.291   5.075   7.175  1.5524  1.4820 -0.5636
10837SOL    HW237359   1.409   5.140   7.266  0.2937 -0.7376  2.7495
10838SOL     OW37360   2.860   0.094   4.587  0.4556 -0.1410 -0.2265
10838SOL    HW137361   2.773   0.136   4.561 -0.2782 -1.2860  0.3637
10838SOL    HW237362   2.892   0.034   4.514 -0.9900 -2.3965  0.9383
10839SOL     OW37363   3.771   5.206   5.901  0.2687 -0.4948 -0.5203
10839SOL    HW137364   3.839   5.134   5.911 -0.4407 -1.0900  0.0224
10839SOL    HW237365   3.680   5.170   5.923 -0.2081  0.3242 -1.1232
10841SOL     OW37366   8.964   6.654   1.708  0.5863 -0.1249  0.2133
10841SOL    HW137367   9.037   6.586   1.700 -0.0580 -0.8626  0.6321
10841SOL    HW237368   8.992   6.724   1.774  0.7181 -0.6639  0.7333
10843SOL     OW37369   7.781   1.104   5.170 -0.2448  0.1597  0.4035
10843SOL    HW137370   7.761   1.125   5.074  0.4725 -0.4907  0.1030
10843SOL    HW237371   7.879   1.115   5.186 -0.2254 -0.6478  0.8313
10845SOL     OW37372   6.791   0.863   1.439 -0.0964  0.0744 -0.5455
10845SOL    HW137373   6.721   0.930   1.413  0.2438 -0.1046 -1.9654
10845SOL    HW237374   6.796   0.857   1.539  0.3020  2.6356 -0.3730
10846SOL     OW37375   3.847   5.306   4.053  0.3461 -0.0453  0.1365
10846SOL    HW137376   3.894   5.221   4.028 -1.0961 -0.6393 -0.6010
10846SOL    HW237377   3.782   5.330   3.981 -1.0968  0.2866  1.5360
10847SOL     OW37378   3.404   7.162   4.547 -0.1303  0.3153 -0.4222
10847SOL    HW137379   3.398   7.254   4.586 -0.4700 -0.4785  1.4408
10847SOL    HW237380   3.322   7.144   4.491  0.2726  1.3902 -1.3762
10848SOL     OW37381   2.089   1.876   5.819  0.2313  0.1539 -0.1808
10848SOL    HW137382   2.133   1.792   5.849 -0.7283 -0.1721  0.3426
10848SOL    HW237383   2.001   1.854   5.777  0.3792  0.8278 -0.8642
10851SOL     OW37384   7.816   9.262   4.634 -0.6307 -0.2466  0.3777
10851SOL    HW137385   7.830   9.166   4.655  1.7452  0.3829  1.8363
10851SOL    HW237386   7.750   9.270   4.560 -0.9529 -2.9844  0.3126
10852SOL     OW37387   4.258   2.817   3.878 -0.4001 -0.2091  0.6869
10852SOL    HW137388   4.277   2.914   3.892 -0.5149 -0.3699  2.0332
10852SOL    HW237389   4.210   2.804   3.791 -0.6699  0.9721  0.6570
10853SOL     OW37390   1.603   5.750   3.267  0.1366  1.1763 -0.7607
10853SOL    HW137391   1.608   5.847   3.290 -0.4701  1.1511 -0.5170
10853SOL    HW237392   1.521   5.733   3.213 -0.3486  0.6125  0.1401
10854SOL     OW37393   2.453   9.417   0.463 -0.0046  0.4431  0.2678
10854SOL    HW137394   2.478   9.505   0.424  1.4215 -0.5284 -1.0863
10854SOL    HW237395   2.516   9.346   0.430 -1.8958 -1.3182  0.2738
10856SOL     OW37396   0.606   5.325   7.525  0.1418 -0.3625 -0.2017
10856SOL    HW137397   0.648   5.238   7.547  0.5060  0.1457  1.1297
10856SOL    HW237398   0.563   5.319   7.435  1.4608 -1.4454 -0.7753
10859SOL     OW37399   0.164   9.988   5.392 -0.2363 -0.1971 -0.3357
10859SOL    HW137400   0.233  10.039   5.342 -0.5481  1.8240  1.2505
10859SOL    HW237401   0.133  10.041   5.471 -1.9245 -2.0484  0.2974
10860SOL     OW37402   2.781   5.336   1.370 -0.4355 -0.5474  0.3240
10860SOL    HW137403   2.876   5.348   1.343 -0.1983 -0.7090  1.0837
10860SOL    HW237404   2.771   5.254   1.426 -0.9801 -0.4244  0.4176
10863SOL     OW37405   9.480   6.236   3.916 -0.3232 -0.2720  0.6219
10863SOL    HW137406   9.550   6.220   3.986 -0.2570  0.9242  0.8244
10863SOL    HW237407   9.522   6.229   3.825 -0.6731 -3.2065  0.6226
10864SOL     OW37408   4.823   8.805   5.985 -0.0383  0.0486 -0.1662
10864SOL    HW137409   4.888   8.878   5.960  1.4173 -1.1924 -0.0712
10864SOL    HW237410   4.766   8.783   5.906  0.5982  0.1748 -0.6638
10865SOL     OW37411   5.714   4.081   1.118 -0.1508 -0.5207  0.1508
10865SOL    HW137412   5.745   4.059   1.026  1.1429 -1.1706  0.7395
10865SOL    HW237413   5.728   4.003   1.178 -0.8858 -0.0616  0.9322
10866SOL     OW37414   9.973   4.295   5.807  0.2654  0.8616 -0.3769
10866SOL    HW137415   9.895   4.237   5.829  1.3947 -0.6180 -0.1881
10866SOL    HW237416   9.949   4.391   5.821 -1.5767  0.4319 -0.5355
10867SOL     OW37417   6.267   9.446   5.857 -0.0410 -0.0507  0.2374
10867SOL    HW137418   6.270   9.470   5.954 -0.2176  0.9916 -0.0018
10867SOL    HW237419   6.215   9.362   5.845  0.9840 -0.8314  1.1613
10868SOL     OW37420   0.414   6.767   1.301  0.1005 -0.4550 -0.0190
10868SOL    HW137421   0.435   6.693   1.237 -0.6065 -1.5911  1.0501
10868SOL    HW237422   0.315   6.780   1.305  0.2961  1.8940 -1.6877
10869SOL     OW37423   3.524   9.072   2.895  0.3244  0.1195 -0.5039
10869SOL    HW137424   3.513   8.973   2.904  0.7395 -0.0542 -1.8937
10869SOL    HW237425   3.553   9.110   2.983  0.5630 -1.0468 -0.0700
10870SOL     OW37426   0.986   2.358   7.804 -0.0826  0.0834 -0.4257
10870SOL    HW137427   1.046   2.280   7.822  0.4682  0.5289 -0.3036
10870SOL    HW237428   1.039   2.443   7.811 -0.8135  0.5068  0.0832
10871SOL     OW37429   3.047   3.270   4.328 -0.2912  0.0429  0.3763
10871SOL    HW137430   3.079   3.339   4.393 -0.8008 -0.0805  0.7699
10871SOL    HW237431   3.125   3.219   4.291  0.1892  1.6822 -0.8908
10872SOL     OW37432   2.051   1.729   0.313 -0.0904 -0.2325 -0.2771
10872SOL    HW137433   1.966   1.772   0.284  0.3273 -0.6748 -2.2296
10872SOL    HW237434   2.037   1.631   0.326  0.2733 -0.4391 -1.3473
10873SOL     OW37435   3.220   6.944   5.798 -0.9207  0.4339 -0.2622
10873SOL    HW137436   3.235   6.965   5.701  0.4407  0.7975  0.0133
10873SOL    HW237437   3.196   7.028   5.847 -1.7047  0.2341 -0.2959
10874SOL     OW37438   4.453   5.807   4.002 -0.3069  0.0627 -0.0624
10874SOL    HW137439   4.465   5.710   3.983  0.9402 -0.0094  1.0520
10874SOL    HW237440   4.486   5.861   3.925 -0.2445 -0.3695 -0.3376
10875SOL     OW37441   8.711   9.550   4.280  0.3488  0.2770 -0.4117
10875SOL    HW137442   8.653   9.586   4.207  0.6098  1.3436 -0.1015
10875SOL    HW237443   8.759   9.468   4.248  0.7266  0.9378 -1.5365
10876SOL     OW37444   0.894   1.071   7.830  0.2730 -0.2026  0.5462
10876SOL    HW137445   0.875   1.155   7.779 -0.9638 -1.1971 -0.6730
10876SOL    HW237446   0.858   1.080   7.922  0.7733  0.8640  0.6545
10877SOL     OW37447   9.973   5.559   3.819  0.3781  0.2165 -0.2570
10877SOL    HW137448  10.038   5.558   3.743 -0.5973 -1.2510 -1.0987
10877SOL    HW237449   9.950   5.653   3.842  0.4110  0.6769 -2.0174
10878SOL     OW37450   4.288   4.427   2.185 -0.1217 -0.4814 -0.4494
10878SOL    HW137451   4.320   4.482   2.262 -1.3811 -1.3597  0.7404
10878SOL    HW237452   4.293   4.481   2.101  0.1436  0.9077  0.4412
10879SOL     OW37453   3.758   9.322   6.107  0.3903  0.1714 -0.1810
10879SOL    HW137454   3.848   9.338   6.065 -0.8207  3.7009 -1.7183
10879SOL    HW237455   3.730   9.228   6.092  3.2559 -0.6304 -0.8096
10880SOL     OW37456   6.636   4.705   0.006  0.0341 -0.1094 -0.0487
10880SOL    HW137457   6.665   4.645   0.081 -0.7372 -2.2707 -1.4277
10880SOL    HW237458   6.570   4.657  -0.051 -0.1091  1.8541 -1.5917
10881SOL     OW37459   4.553   5.298   3.329 -0.2426 -0.1424  0.0639
10881SOL    HW137460   4.588   5.232   3.395  0.6319 -0.1132 -0.3663
10881SOL    HW237461   4.544   5.253   3.240  1.7195  0.7004 -0.5689
10883SOL     OW37462   1.307   6.719   1.576  0.1832 -0.1627 -0.4354
10883SOL    HW137463   1.238   6.700   1.646 -0.8859  0.2262 -1.3681
10883SOL    HW237464   1.318   6.818   1.565  2.2215 -0.2120  0.9908
10884SOL     OW37465   9.588   1.447   3.357  0.4672  0.2304 -0.3202
10884SOL    HW137466   9.591   1.495   3.444 -0.6075  1.7438 -1.0810
10884SOL    HW237467   9.617   1.509   3.284 -0.8026 -0.3039 -1.3000
10885SOL     OW37468   1.006   2.648   4.937  0.0908  0.0796 -0.0970
10885SOL    HW137469   1.067   2.629   5.015  0.2339 -0.4241 -0.3332
10885SOL    HW237470   1.052   2.711   4.874 -0.0525  0.5461  0.2557
10886SOL     OW37471   5.429   4.183   7.666  0.2791  0.3220 -0.3452
10886SOL    HW137472   5.410   4.254   7.599 -1.3008 -0.2405 -0.5122
10886SOL    HW237473   5.348   4.125   7.678  1.2056 -0.8325  0.5323
10887SOL     OW37474   3.159   3.258   5.956  0.3396 -0.4595  0.5660
10887SOL    HW137475   3.202   3.199   6.023  0.2296 -0.9130  0.2416
10887SOL    HW237476   3.172   3.220   5.864  0.7355  0.3026  0.2992
10888SOL     OW37477   7.665   3.152   4.580 -0.1611  0.3877 -0.3245
10888SOL    HW137478   7.592   3.207   4.539  0.8643  2.8464  1.0054
10888SOL    HW237479   7.738   3.139   4.513 -0.6947  0.0495 -0.8543
10889SOL     OW37480   7.899   3.367   0.946 -0.0138 -1.0723 -0.5588
10889SOL    HW137481   7.847   3.316   1.015 -1.4607 -0.6030 -1.2897
10889SOL    HW237482   7.856   3.456   0.930  0.6929 -0.9015 -1.5896
10890SOL     OW37483   7.804   7.931   4.298  0.3642  0.3612 -0.0935
10890SOL    HW137484   7.752   7.882   4.228  1.7196 -2.1449  0.6064
10890SOL    HW237485   7.867   7.868   4.343 -0.9020  1.7654  3.8355
10892SOL     OW37486   0.616   6.437   4.904 -0.5516 -0.1620 -0.1267
10892SOL    HW137487   0.651   6.526   4.932 -1.2927 -0.4692  1.8050
10892SOL    HW237488   0.516   6.439   4.901 -0.5398 -0.4649 -1.7120
10893SOL     OW37489   4.250   9.377   4.499  1.3920  0.3409  0.3682
10893SOL    HW137490   4.192   9.452   4.530  2.1267  0.4589  1.4816
10893SOL    HW237491   4.346   9.405   4.505  1.6337 -0.4097  0.0212
10894SOL     OW37492   0.367   5.247   1.014  0.1117 -0.0368 -0.6904
10894SOL    HW137493   0.312   5.241   1.098  0.4386  2.0970 -0.2771
10894SOL    HW237494   0.320   5.201   0.940 -1.8960  1.0768 -0.1539
10896SOL     OW37495   0.217   6.827   5.014 -0.5578 -0.5195 -0.4396
10896SOL    HW137496   0.148   6.803   5.082 -0.1068  0.4562  0.3625
10896SOL    HW237497   0.171   6.862   4.932 -1.0516 -0.7754 -0.2756
10897SOL     OW37498   0.133   8.648   6.779  0.4246  0.9444  0.2257
10897SOL    HW137499   0.117   8.741   6.745 -0.1260  0.7027 -0.1777
10897SOL    HW237500   0.047   8.609   6.811  0.1339 -0.4364 -2.1264
10898SOL     OW37501   8.261   5.324   5.175 -0.1939  0.4326 -0.5161
10898SOL    HW137502   8.210   5.241   5.201  0.8503 -0.6067 -1.7229
10898SOL    HW237503   8.200   5.387   5.127 -0.0742 -1.3365 -3.0611
10899SOL     OW37504   7.363   5.823   7.233 -0.1096  0.1366  0.2540
10899SOL    HW137505   7.417   5.878   7.295 -1.8087  0.9250  1.0621
10899SOL    HW237506   7.338   5.877   7.152 -1.0333  0.2881  0.6332
10900SOL     OW37507   2.406   8.453   0.909  0.1133 -0.2830  0.3434
10900SOL    HW137508   2.423   8.427   1.004 -0.8129 -2.3541 -0.0097
10900SOL    HW237509   2.491   8.482   0.866  0.1720  2.7069  2.3732
10901SOL     OW37510   0.917   2.727   7.933 -0.7285  0.1715 -0.0480
10901SOL    HW137511   0.987   2.657   7.914 -0.6435  0.3439 -0.3705
10901SOL    HW237512   0.944   2.813   7.891 -0.9172  0.3576  0.2127
10903SOL     OW37513   7.956   1.013   4.850  0.5903  0.7755 -0.2935
10903SOL    HW137514   7.887   1.053   4.909  0.4120  0.0036  0.0351
10903SOL    HW237515   7.953   0.913   4.858 -1.4453  0.4647 -3.8144
10905SOL     OW37516   3.392   1.890   0.752  0.5405  0.0056  0.2404
10905SOL    HW137517   3.383   1.946   0.669 -0.4656  1.2361  1.1567
10905SOL    HW237518   3.319   1.822   0.754  0.9660 -0.4693 -0.2092
10906SOL     OW37519   1.743   7.956   6.461  0.2423  0.2887  0.6956
10906SOL    HW137520   1.829   7.958   6.513  1.7333  0.0977 -1.6734
10906SOL    HW237521   1.741   8.033   6.398 -1.5018  0.4764  0.9656
10907SOL     OW37522   8.043   8.701   2.862 -0.3701  0.1528  0.0640
10907SOL    HW137523   7.988   8.780   2.835  0.2578  0.1424 -1.2539
10907SOL    HW237524   8.034   8.687   2.961 -1.4780  1.1043  0.1084
10908SOL     OW37525   3.403   1.733   4.775  0.2471  0.0207  0.7950
10908SOL    HW137526   3.491   1.762   4.738  0.1326  0.7217  1.0741
10908SOL    HW237527   3.418   1.675   4.855  0.4681 -0.4514  0.4134
10909SOL     OW37528   3.264   8.303   6.984 -0.5096 -0.3584 -0.1680
10909SOL    HW137529   3.345   8.247   6.964 -1.5309 -2.1649  0.6296
10909SOL    HW237530   3.195   8.287   6.913 -0.3996  0.7287 -0.5241
10910SOL     OW37531   0.011   5.182   5.658 -0.2819 -0.1093 -0.2388
10910SOL    HW137532   0.095   5.218   5.699  0.0975 -0.0599 -1.0469
10910SOL    HW237533  -0.012   5.238   5.578 -1.5470  0.3960  0.4712
10911SOL     OW37534   2.397   2.080   1.390  1.2820 -0.0892  0.1121
10911SOL    HW137535   2.363   2.070   1.297 -1.0328  1.8016  0.7059
10911SOL    HW237536   2.409   1.989   1.431 -0.4389 -0.8663 -1.0651
10912SOL     OW37537   8.362   2.893   3.713 -0.2962 -0.2258 -0.0162
10912SOL    HW137538   8.271   2.907   3.674 -0.3659 -2.2587 -0.6481
10912SOL    HW237539   8.415   2.831   3.654  2.4143  2.8847 -0.9691
10913SOL     OW37540   1.417   5.606   7.668 -0.0543 -0.3432 -0.3569
10913SOL    HW137541   1.324   5.582   7.696  0.1251 -0.5652  0.0401
10913SOL    HW237542   1.438   5.561   7.581 -0.2703 -0.3955 -0.3830
10914SOL     OW37543   1.591   0.012   1.562 -0.4322  0.0638  0.3094
10914SOL    HW137544   1.542  -0.075   1.563  0.2710 -0.3415  0.0180
10914SOL    HW237545   1.560   0.069   1.638 -1.1876 -0.2773  0.2576
10915SOL     OW37546   2.147   2.117   1.234 -0.5562  0.0382 -0.5542
10915SOL    HW137547   2.099   2.171   1.303  1.1661 -0.6582  1.2370
10915SOL    HW237548   2.152   2.022   1.263  3.0498  0.3195  0.0100
10918SOL     OW37549   0.061   8.492   7.852  0.2443  0.3814  0.3418
10918SOL    HW137550   0.064   8.408   7.797  2.7731  0.3351  0.4779
10918SOL    HW237551  -0.033   8.510   7.880 -0.6013 -1.4153 -1.2037
10919SOL     OW37552   0.959   7.948   6.520  0.2342 -0.0985  0.2604
10919SOL    HW137553   1.046   7.990   6.545 -0.0378  0.8909 -0.4099
10919SOL    HW237554   0.975   7.858   6.481  1.0649  0.5862 -1.0166
10920SOL     OW37555   9.649   5.386   2.047  0.1599 -0.0753  0.8371
10920SOL    HW137556   9.662   5.326   2.126  1.6127 -1.5641 -0.4970
10920SOL    HW237557   9.720   5.456   2.047 -0.0676  0.1591  1.0429
10922SOL     OW37558   9.494   9.790   2.442  0.0810 -0.2658  0.1048
10922SOL    HW137559   9.472   9.833   2.354  1.5225  0.0220 -0.1316
10922SOL    HW237560   9.469   9.852   2.516  1.1163  0.5173 -0.1965
10923SOL     OW37561   9.071   6.196   3.060  0.8254  0.0092  0.1818
10923SOL    HW137562   9.154   6.146   3.081 -0.5468 -2.3052  0.2099
10923SOL    HW237563   9.069   6.218   2.962  1.4254  0.0310  0.1727
10924SOL     OW37564   0.142   5.995   3.845  0.2895 -0.0207  0.3162
10924SOL    HW137565   0.123   6.091   3.863 -0.1477  0.0178 -0.3472
10924SOL    HW237566   0.238   5.975   3.866  0.1939  0.3955  1.1288
10925SOL     OW37567   3.510   0.005   4.142  0.2046 -0.1994  0.2118
10925SOL    HW137568   3.537  -0.090   4.160  1.2629  0.2241  0.9224
10925SOL    HW237569   3.516   0.058   4.227  1.9183  1.0409 -0.6578
10926SOL     OW37570   6.715   7.972   7.273  0.0389 -1.0193  0.0331
10926SOL    HW137571   6.814   7.962   7.268  0.0987  0.2714 -1.3966
10926SOL    HW237572   6.676   7.975   7.181 -1.1121  0.6235  0.5481
10927SOL     OW37573   5.639   9.639   6.987  0.5758 -0.0435 -0.0229
10927SOL    HW137574   5.735   9.637   7.015  0.3698  0.3266  0.7280
10927SOL    HW237575   5.616   9.555   6.939  1.2653 -0.1504 -0.1744
10928SOL     OW37576   7.262   5.265   2.721 -0.1832 -0.1940 -0.4311
10928SOL    HW137577   7.292   5.253   2.626  0.8590  1.2581 -0.2988
10928SOL    HW237578   7.289   5.356   2.753 -2.0886  0.0087  0.6852
10929SOL     OW37579   2.843   5.087   5.491  0.3375 -0.0292  0.0453
10929SOL    HW137580   2.907   5.090   5.567  0.3246  0.6047  0.0379
10929SOL    HW237581   2.779   5.164   5.498 -0.9616 -1.1179  0.5232
10930SOL     OW37582   4.327   2.180   1.200 -0.2086 -0.0398 -0.3776
10930SOL    HW137583   4.306   2.276   1.177  2.8396  0.4072 -1.4736
10930SOL    HW237584   4.290   2.159   1.291 -0.6406  2.2709  0.0154
10931SOL     OW37585   9.623   9.721   4.386 -0.8284  0.6860  0.0915
10931SOL    HW137586   9.691   9.763   4.327 -1.2371  0.5892 -0.4442
10931SOL    HW237587   9.652   9.730   4.482 -0.6592  1.7311 -0.0507
10932SOL     OW37588   5.114   8.791   2.797  0.5332 -0.4857  0.3801
10932SOL    HW137589   5.178   8.867   2.788 -1.7176  1.6401  1.9361
10932SOL    HW237590   5.081   8.764   2.706  1.7107  0.0474 -0.2121
10933SOL     OW37591   7.715   2.416   2.631  0.8604  0.2426 -0.4306
10933SOL    HW137592   7.757   2.348   2.691 -1.0696  1.0153  1.8977
10933SOL    HW237593   7.786   2.471   2.587  2.3318 -0.6644  0.7691
10934SOL     OW37594   2.792   4.003   2.353 -0.0274 -0.4339  0.1018
10934SOL    HW137595   2.717   3.950   2.391  0.6594 -1.5419 -0.0617
10934SOL    HW237596   2.763   4.098   2.339 -1.6978 -1.0707 -0.8820
10935SOL     OW37597   6.835   7.878   3.497  0.1494 -0.1337 -0.0906
10935SOL    HW137598   6.920   7.858   3.546  0.3003 -0.0280 -0.3087
10935SOL    HW237599   6.766   7.910   3.563  0.4900  0.4374 -0.0090
10936SOL     OW37600   4.958   7.135   2.282 -0.0577 -0.5473 -0.0783
10936SOL    HW137601   5.005   7.057   2.242 -2.7450 -1.5241 -1.4610
10936SOL    HW237602   4.960   7.212   2.217  0.2654 -0.3554  0.1595
10937SOL     OW37603   6.602   7.359   2.911 -0.3107  0.0934  0.1136
10937SOL    HW137604   6.540   7.294   2.868 -0.1136  0.2593 -0.4152
10937SOL    HW237605   6.672   7.309   2.962 -0.3158 -0.0999 -0.0698
10940SOL     OW37606   2.662   4.100   4.375  0.1335 -0.3793 -0.3915
10940SOL    HW137607   2.571   4.057   4.375 -0.2516  0.4256  0.5915
10940SOL    HW237608   2.671   4.157   4.294 -0.2618 -0.4210 -0.4683
10941SOL     OW37609   7.399   3.191   2.476  0.1012  0.4827 -0.2787
10941SOL    HW137610   7.381   3.256   2.402  1.6769  0.6039 -0.5730
10941SOL    HW237611   7.390   3.236   2.564 -0.5235  0.6603 -0.4325
10944SOL     OW37612   8.845   3.786   4.409  0.3866 -0.2109  0.5727
10944SOL    HW137613   8.759   3.735   4.417  0.5407 -0.5787 -0.0659
10944SOL    HW237614   8.909   3.734   4.353  0.3568  0.9524 -0.5424
10945SOL     OW37615   8.761   5.071   2.379 -0.3909  0.3103 -0.5899
10945SOL    HW137616   8.839   5.122   2.342  0.3791 -0.9239 -0.6937
10945SOL    HW237617   8.736   4.998   2.315 -2.6187  1.6197 -1.2970
10947SOL     OW37618   2.750   2.300   7.357 -0.1330  0.4722  0.2640
10947SOL    HW137619   2.798   2.358   7.423  1.5533  0.1876 -0.6829
10947SOL    HW237620   2.777   2.204   7.371 -1.8849  0.0509  0.9491
10948SOL     OW37621   9.665   2.257   7.179 -0.6672  0.3935  0.4321
10948SOL    HW137622   9.744   2.270   7.119  0.4905  0.9933  2.0490
10948SOL    HW237623   9.584   2.295   7.136  0.3093  1.5814 -0.3988
10949SOL     OW37624   3.345   2.837   6.063 -0.4118 -0.3058  0.3414
10949SOL    HW137625   3.357   2.750   6.016  0.7742 -0.4664  0.9395
10949SOL    HW237626   3.392   2.909   6.013 -0.2928 -0.2405  0.5463
10950SOL     OW37627   6.031   2.412   0.537 -0.4985  0.1330 -0.1170
10950SOL    HW137628   6.085   2.337   0.499 -1.2858 -1.8301  2.5236
10950SOL    HW237629   5.961   2.439   0.471  0.3030 -0.8900 -1.4179
10951SOL     OW37630   2.482   1.680   5.991  0.2827  0.6852  0.2976
10951SOL    HW137631   2.493   1.581   5.990  0.8765  0.7555 -0.0926
10951SOL    HW237632   2.389   1.704   5.962  0.1501  0.2485  0.3624
10952SOL     OW37633   9.040   2.390   3.397  0.2160 -0.2628 -0.6639
10952SOL    HW137634   9.077   2.437   3.477  0.3913 -2.2612  0.4633
10952SOL    HW237635   8.941   2.377   3.409 -0.2064  1.5886 -1.9015
10953SOL     OW37636   0.294   3.698   5.641  0.3340  0.5270  0.2436
10953SOL    HW137637   0.296   3.796   5.619 -2.1110  0.9639  1.7978
10953SOL    HW237638   0.227   3.652   5.584 -1.9680  0.6564  2.7515
10954SOL     OW37639   0.069   1.989   5.787 -0.2441  0.1993  0.3033
10954SOL    HW137640  -0.021   1.997   5.744 -0.6743 -0.3019  1.0810
10954SOL    HW237641   0.094   1.892   5.793 -1.0781  0.0959  2.9085
10955SOL     OW37642   4.206   8.052   4.548 -0.6722 -0.3488  0.0794
10955SOL    HW137643   4.170   8.087   4.635 -1.4036 -1.4500  0.2210
10955SOL    HW237644   4.158   8.097   4.472 -0.8216 -0.2256  0.2459
10956SOL     OW37645   3.641   2.787   2.610 -0.2892  0.2391  0.3720
10956SOL    HW137646   3.555   2.774   2.559 -0.4025  1.5727  0.2122
10956SOL    HW237647   3.684   2.873   2.582  0.0247  0.6308  1.9977
10957SOL     OW37648   9.167   7.890   2.876 -0.0727  0.3464  0.6068
10957SOL    HW137649   9.247   7.950   2.871 -1.3103  1.9684  0.1213
10957SOL    HW237650   9.116   7.908   2.960 -0.8736  0.5109  0.0897
10958SOL     OW37651   2.139   8.255   2.692  0.0788 -0.2136  0.3773
10958SOL    HW137652   2.056   8.305   2.716 -0.0504  0.5460 -1.5456
10958SOL    HW237653   2.137   8.165   2.735 -1.2022  0.2205  1.2667
10959SOL     OW37654   6.156   0.377   1.988 -0.1389 -0.5813 -0.0362
10959SOL    HW137655   6.184   0.442   1.917 -0.2289 -0.7665 -0.2420
10959SOL    HW237656   6.208   0.395   2.071  0.5552 -0.8854 -0.3999
10960SOL     OW37657   2.365   2.384   7.645  0.3174  0.2683  0.3378
10960SOL    HW137658   2.361   2.439   7.561 -0.8211 -0.7780 -0.3127
10960SOL    HW237659   2.292   2.412   7.707 -1.5340 -1.8062 -0.8357
10962SOL     OW37660   7.188   9.939   2.854 -0.2700 -0.6487  0.1297
10962SOL    HW137661   7.252   9.891   2.915  0.7377  0.5021 -0.0123
10962SOL    HW237662   7.138  10.009   2.906 -1.4402 -1.5514  0.2428
10963SOL     OW37663   1.262   8.340   3.750  0.2712 -0.2276  0.1704
10963SOL    HW137664   1.280   8.333   3.652  0.0448  0.0427  0.1079
10963SOL    HW237665   1.272   8.436   3.778  1.0110 -0.4069  0.5424
10964SOL     OW37666   8.297   7.141   2.383  0.3612 -0.3201  0.4561
10964SOL    HW137667   8.306   7.168   2.288 -1.0981 -1.7534 -0.1056
10964SOL    HW237668   8.359   7.065   2.402 -1.4199 -1.9531 -0.1360
10965SOL     OW37669   4.553   4.747   0.463 -0.0700 -0.1762  0.1277
10965SOL    HW137670   4.530   4.676   0.397  0.1650 -0.3894  0.2737
10965SOL    HW237671   4.516   4.723   0.553 -1.5707  0.7821 -0.2202
10967SOL     OW37672   0.641   9.359   6.666  0.4196 -0.4384 -0.5456
10967SOL    HW137673   0.651   9.394   6.572 -0.8355  0.7005 -0.2652
10967SOL    HW237674   0.724   9.379   6.718 -0.0493  1.6791 -0.5504
10968SOL     OW37675   5.815   7.772   2.708 -0.0411  1.1676  0.1679
10968SOL    HW137676   5.879   7.831   2.657  1.7133 -0.0869  0.8544
10968SOL    HW237677   5.820   7.795   2.805 -1.9398  2.2228  0.0479
10971SOL     OW37678   2.540   1.436   4.773 -0.2632  0.2077 -0.2812
10971SOL    HW137679   2.580   1.527   4.776  0.9331 -0.3175  0.2695
10971SOL    HW237680   2.610   1.368   4.796 -0.5329 -1.0350 -2.9038
10973SOL     OW37681   7.242   5.381   1.416  0.1608  0.0491  0.2562
10973SOL    HW137682   7.282   5.445   1.482  0.9815 -0.5459  0.3545
10973SOL    HW237683   7.198   5.306   1.465 -1.7803  1.1071  0.1561
10974SOL     OW37684   3.041   3.896   2.190 -0.1428  0.4126  0.5108
10974SOL    HW137685   3.136   3.883   2.216 -0.4008 -1.4313  0.6637
10974SOL    HW237686   3.008   3.812   2.145 -1.4739  1.2954 -0.1804
10975SOL     OW37687   9.480   3.767   2.615  0.1868  0.0239 -0.0789
10975SOL    HW137688   9.573   3.802   2.616  0.3158 -0.3042 -0.4302
10975SOL    HW237689   9.443   3.765   2.708 -0.1158  1.8573 -0.1528
10976SOL     OW37690   0.303   5.278   0.660 -0.0714 -0.5464 -0.2425
10976SOL    HW137691   0.267   5.301   0.570 -1.2835  0.2726  0.4477
10976SOL    HW237692   0.351   5.190   0.655  0.1128 -0.3736 -1.7384
10977SOL     OW37693   3.269   3.287   6.702  0.2587 -0.4992 -0.1944
10977SOL    HW137694   3.178   3.328   6.715  0.5254 -0.6994  2.5691
10977SOL    HW237695   3.321   3.341   6.636 -1.8776 -0.4352 -1.8858
10979SOL     OW37696   3.726   3.016   4.108  0.2394 -0.1429  0.2993
10979SOL    HW137697   3.690   3.100   4.147 -0.2058 -0.0834 -0.2340
10979SOL    HW237698   3.666   2.940   4.132 -1.2207  0.2236 -2.0347
10981SOL     OW37699   4.127   1.793   6.599 -0.2902  0.6024 -0.3646
10981SOL    HW137700   4.041   1.810   6.647 -0.0341  1.6830 -0.2843
10981SOL    HW237701   4.200   1.848   6.639 -0.0389  1.3986 -1.8649
10983SOL     OW37702   8.560   7.649   5.664 -0.0527 -0.5660  0.3612
10983SOL    HW137703   8.547   7.583   5.590 -0.1821  0.2813 -0.3781
10983SOL    HW237704   8.593   7.736   5.627 -1.9313  0.4759  1.0375
10986SOL     OW37705   1.480   3.152   4.681  0.2926  0.0106  0.0426
10986SOL    HW137706   1.495   3.084   4.609 -1.1495 -0.2360 -0.0293
10986SOL    HW237707   1.566   3.167   4.731  0.5041 -2.2577  0.4101
10987SOL     OW37708   8.492   1.119   0.270 -0.4768  0.2830  0.0661
10987SOL    HW137709   8.471   1.037   0.217 -1.1406  1.0963 -0.9487
10987SOL    HW237710   8.498   1.095   0.367 -2.5908 -0.6475 -0.0010
10988SOL     OW37711   4.810   1.895   4.687  0.0664  0.0493  0.1380
10988SOL    HW137712   4.751   1.858   4.615  0.7077 -0.0990 -0.3143
10988SOL    HW237713   4.754   1.919   4.767 -0.5678 -0.3547 -0.1800
10989SOL     OW37714   6.003   5.787   0.103  0.0521 -0.7706 -1.1050
10989SOL    HW137715   5.930   5.850   0.078  0.2611 -0.4129 -0.8229
10989SOL    HW237716   6.038   5.741   0.021  0.6361  0.2784 -1.4538
10990SOL     OW37717   4.836   9.770   1.650  0.1300 -0.6458 -0.9133
10990SOL    HW137718   4.919   9.824   1.640  0.2273 -0.3638  1.0748
10990SOL    HW237719   4.759   9.818   1.607  0.3140  0.8604  0.3869
10991SOL     OW37720   9.871   3.132   4.203 -0.1453 -0.1747 -0.4826
10991SOL    HW137721   9.852   3.175   4.291  0.6062  0.5575 -0.6732
10991SOL    HW237722   9.833   3.039   4.202  0.3032 -0.3702  0.7917
10992SOL     OW37723   2.647   0.602   3.352  0.3201  0.6148  0.1501
10992SOL    HW137724   2.626   0.618   3.256 -0.1514 -0.0407  0.1426
10992SOL    HW237725   2.577   0.645   3.410 -0.0602 -0.0302  0.1694
10993SOL     OW37726   0.231   2.744   4.231  0.0722  0.0016 -0.7575
10993SOL    HW137727   0.132   2.737   4.248  0.3465  0.3469  1.1224
10993SOL    HW237728   0.250   2.832   4.188 -0.3912  0.1232 -0.7251
10994SOL     OW37729   8.370   9.627   4.822 -0.5532  0.1081  0.2644
10994SOL    HW137730   8.311   9.546   4.817  0.3651 -0.9087  4.0643
10994SOL    HW237731   8.465   9.600   4.807 -0.5016  0.9093 -0.8920
10996SOL     OW37732   4.533   1.433   4.347 -0.1797  0.7183 -0.0914
10996SOL    HW137733   4.435   1.429   4.368 -0.0338 -0.3137  0.4401
10996SOL    HW237734   4.574   1.511   4.395 -0.2667 -0.3453  1.7651
10997SOL     OW37735   8.839   1.403   1.687  0.0477 -0.1674 -0.1247
10997SOL    HW137736   8.805   1.482   1.739  0.2815 -1.8881  2.8098
10997SOL    HW237737   8.926   1.425   1.645 -0.4338  1.4943 -0.2558
10999SOL     OW37738   1.497   8.527   7.434  0.7261 -0.0742  0.1168
10999SOL    HW137739   1.558   8.452   7.460 -1.0338 -0.9194  1.9521
10999SOL    HW237740   1.402   8.497   7.443  0.0157  1.5286 -1.7598
11000SOL     OW37741   1.331   5.563   7.009  0.1535  0.0666 -0.6880
11000SOL    HW137742   1.286   5.578   7.097 -0.6326  0.8055 -1.2029
11000SOL    HW237743   1.266   5.582   6.935  1.3085  1.1137 -1.4486
11001SOL     OW37744   1.898   7.147   3.555 -0.0263 -0.3214 -0.2899
11001SOL    HW137745   1.901   7.052   3.585  1.8484 -0.4913 -0.8998
11001SOL    HW237746   1.950   7.157   3.470  1.7356  1.6259  0.9461
11002SOL     OW37747   7.557   1.051   5.778  0.3972  0.1901 -0.3309
11002SOL    HW137748   7.643   1.040   5.829 -0.3949 -2.8907  0.4115
11002SOL    HW237749   7.568   1.017   5.685  0.4057  1.2243 -0.7157
11003SOL     OW37750   3.616   6.300   5.443 -0.6209 -0.2492 -0.4893
11003SOL    HW137751   3.621   6.265   5.349  1.5539 -2.7955  0.5236
11003SOL    HW237752   3.639   6.397   5.444 -1.6055  0.0344 -2.6867
11004SOL     OW37753   5.558   2.602   5.134  0.2321  0.1497 -0.1687
11004SOL    HW137754   5.519   2.682   5.181 -0.5467  0.7441 -1.7901
11004SOL    HW237755   5.657   2.599   5.151  0.3224  1.6417 -0.3132
11005SOL     OW37756   0.776   5.687   4.852  0.1391  0.3743  0.1501
11005SOL    HW137757   0.760   5.698   4.950  0.3459  2.9879 -0.0720
11005SOL    HW237758   0.863   5.639   4.838 -0.0697 -0.3422  1.2427
11007SOL     OW37759   8.446   1.127   5.797  0.6818 -0.1265 -0.1175
11007SOL    HW137760   8.442   1.127   5.698  0.4513 -0.1928 -0.1097
11007SOL    HW237761   8.361   1.088   5.834  0.9473 -0.5111  0.0977
11011SOL     OW37762   8.957   0.724   2.805  0.2266 -0.2061 -0.1640
11011SOL    HW137763   9.034   0.740   2.867  0.1210  0.1831 -0.1341
11011SOL    HW237764   8.877   0.697   2.858 -0.2419  1.4349  0.0049
11013SOL     OW37765   0.654   7.871   1.718  0.1820 -0.3410  0.8142
11013SOL    HW137766   0.672   7.792   1.659 -3.1466  0.0184 -0.8182
11013SOL    HW237767   0.658   7.843   1.814 -1.3048 -2.6153  0.2500
11014SOL     OW37768   5.142   9.720   4.769 -0.9071  0.0085  0.0915
11014SOL    HW137769   5.112   9.629   4.740 -1.5787 -0.0400  0.9191
11014SOL    HW237770   5.239   9.717   4.791 -0.7856 -0.3673 -0.4854
11015SOL     OW37771   3.739   0.217   7.128  0.6499  0.0937  0.0707
11015SOL    HW137772   3.702   0.136   7.174 -0.3929  1.0728  0.9803
11015SOL    HW237773   3.839   0.211   7.125  0.5834 -1.1642  0.2428
11016SOL     OW37774   7.652   0.352   0.973 -0.6185 -0.5755 -0.1153
11016SOL    HW137775   7.657   0.410   1.055 -1.0719  2.3594 -2.0813
11016SOL    HW237776   7.740   0.306   0.960  0.6157  1.5919  0.1700
11017SOL     OW37777   6.966   1.944   5.440 -0.1472  0.2451  0.5399
11017SOL    HW137778   6.954   2.037   5.474  1.1291  0.1847  1.1898
11017SOL    HW237779   6.920   1.879   5.501 -0.7868  0.4208  0.2474
11019SOL     OW37780   4.306   8.222   3.783 -0.3795 -0.1879 -0.2015
11019SOL    HW137781   4.395   8.194   3.820 -0.1217  0.6187 -0.1958
11019SOL    HW237782   4.276   8.156   3.715  0.2295 -0.4642 -0.2045
11020SOL     OW37783   3.383   8.104   1.567  0.2735  0.0025 -0.3965
11020SOL    HW137784   3.298   8.132   1.612 -0.0590 -1.3810 -0.1316
11020SOL    HW237785   3.387   8.143   1.476 -0.3470  0.5985 -0.1704
11021SOL     OW37786   8.040   7.089   6.494 -0.6447 -0.0820 -0.3106
11021SOL    HW137787   8.120   7.091   6.434  0.2337 -1.4358  0.7577
11021SOL    HW237788   8.036   7.173   6.547 -0.0175  0.0707 -0.4975
11022SOL     OW37789   3.822   1.505   0.362  0.1828  0.1038  0.0707
11022SOL    HW137790   3.730   1.514   0.324 -0.2470 -0.6606  0.8879
11022SOL    HW237791   3.816   1.461   0.452  1.3591 -0.0539  0.0793
11023SOL     OW37792   0.409   0.691   1.736  0.0955 -0.2343  0.1750
11023SOL    HW137793   0.367   0.782   1.732  0.0246 -0.2783 -0.0587
11023SOL    HW237794   0.488   0.688   1.675 -1.6721 -1.2638 -2.0976
11024SOL     OW37795   6.355   7.323   2.516 -0.1895 -0.3988 -0.2923
11024SOL    HW137796   6.361   7.306   2.615 -0.2165 -0.4496 -0.2992
11024SOL    HW237797   6.292   7.400   2.500 -0.2191 -0.4185 -0.2720
11025SOL     OW37798   2.935   6.451   4.777 -0.2536  0.3228 -0.2311
11025SOL    HW137799   2.905   6.417   4.688  0.7142  1.5155 -1.0363
11025SOL    HW237800   2.988   6.380   4.823 -0.9885 -0.3954 -0.4938
11026SOL     OW37801   3.406   4.247   7.728  0.1839 -0.6510 -0.3559
11026SOL    HW137802   3.432   4.168   7.672  0.7820 -1.2594  0.7535
11026SOL    HW237803   3.387   4.216   7.821 -0.3525  0.4179 -0.1046
11027SOL     OW37804   3.458   0.655   3.980 -0.2416 -0.0047 -0.0030
11027SOL    HW137805   3.445   0.660   3.881  0.8841  0.9545 -0.1152
11027SOL    HW237806   3.432   0.564   4.013 -0.2001 -0.4654 -1.2359
11028SOL     OW37807   3.517   9.896   6.673 -0.0328 -0.1148 -0.5451
11028SOL    HW137808   3.496   9.892   6.771  2.3666 -1.2182 -0.0391
11028SOL    HW237809   3.568   9.814   6.646  0.1345  0.6071 -2.5317
11030SOL     OW37810   8.743   4.021   6.524  0.2290 -0.6241  0.3369
11030SOL    HW137811   8.820   4.075   6.488 -0.2627 -1.1123 -1.4640
11030SOL    HW237812   8.667   4.083   6.546  0.1999 -0.4211 -0.3263
11031SOL     OW37813   5.812   1.610   0.843  0.6704 -0.5702 -0.1827
11031SOL    HW137814   5.780   1.576   0.932  2.0901 -0.9239  0.1991
11031SOL    HW237815   5.858   1.698   0.855  0.0079 -0.1383 -0.7160
11032SOL     OW37816   8.455   4.876   1.476  0.6624  0.3237 -0.2163
11032SOL    HW137817   8.546   4.858   1.514  0.4722 -0.3847 -0.0898
11032SOL    HW237818   8.425   4.967   1.504  0.3780 -0.3216  1.6907
11033SOL     OW37819   2.021   6.644   6.218 -0.1493  0.9577 -0.2000
11033SOL    HW137820   2.100   6.607   6.267 -2.0226 -0.5606  1.8085
11033SOL    HW237821   1.973   6.709   6.277 -0.5962  1.6035 -1.2605
11034SOL     OW37822   8.642   1.986   3.727  0.2380 -0.3255  0.6298
11034SOL    HW137823   8.552   1.952   3.754 -1.6461  2.9427 -1.2902
11034SOL    HW237824   8.663   1.955   3.635  0.2884  0.3517  0.4113
11035SOL     OW37825   5.887   9.965   2.596 -0.2640 -0.0769  0.3512
11035SOL    HW137826   5.945   9.913   2.533  0.5040 -0.2018  1.1490
11035SOL    HW237827   5.941  10.036   2.641 -1.1199  0.8694 -0.1121
11036SOL     OW37828   9.839   9.490   7.546 -0.1157  0.5485 -0.2973
11036SOL    HW137829   9.927   9.534   7.561  1.4760 -2.2914 -1.0336
11036SOL    HW237830   9.841   9.438   7.461 -2.0344 -0.7090  0.3744
11037SOL     OW37831   3.360   0.752   5.065  0.0936  0.6379  0.5510
11037SOL    HW137832   3.327   0.668   5.108  1.3487  0.0779  0.4424
11037SOL    HW237833   3.388   0.817   5.136 -0.3436  0.7543  0.6217
11038SOL     OW37834   0.765   1.306   4.927  0.3901  0.0041 -0.0719
11038SOL    HW137835   0.776   1.210   4.902  0.0287  0.3153 -1.4798
11038SOL    HW237836   0.680   1.341   4.887 -0.3209  0.4769  1.7823
11039SOL     OW37837   0.552   5.737   1.899 -0.6283 -0.6052 -0.1126
11039SOL    HW137838   0.563   5.827   1.942  1.9223  0.2674 -2.4762
11039SOL    HW237839   0.511   5.747   1.809 -2.0355 -2.0279  0.3412
11040SOL     OW37840   0.362   4.639   0.870  0.1474  0.4570 -0.2394
11040SOL    HW137841   0.340   4.683   0.783 -1.5119  0.0976 -0.0170
11040SOL    HW237842   0.341   4.541   0.865  1.0185  0.2291  0.2437
11041SOL     OW37843   4.773   7.003   2.649  0.2434  0.4892  0.4362
11041SOL    HW137844   4.846   7.055   2.605 -0.0089 -0.1776 -0.7778
11041SOL    HW237845   4.812   6.932   2.708  0.5924 -0.9674 -1.5115
11042SOL     OW37846   2.260   5.106   0.637 -0.2050 -0.0643  0.2089
11042SOL    HW137847   2.234   5.165   0.562 -0.7102 -1.7388 -0.9665
11042SOL    HW237848   2.183   5.098   0.701 -0.7884 -0.8895 -0.5797
11043SOL     OW37849   1.349   9.869   4.096 -0.2161 -0.0867 -0.2885
11043SOL    HW137850   1.430   9.914   4.134  0.4918 -1.4896 -0.0970
11043SOL    HW237851   1.358   9.770   4.107 -0.9947 -0.3851 -2.2013
11044SOL     OW37852   8.373   3.879   2.410 -0.2492 -0.5650  0.3104
11044SOL    HW137853   8.359   3.785   2.379  2.7022 -0.8869 -0.1362
11044SOL    HW237854   8.444   3.923   2.355 -0.8675  1.6199  1.1831
11045SOL     OW37855   0.008   0.843   0.055 -0.9328 -0.4136 -0.4436
11045SOL    HW137856   0.027   0.749   0.027  1.3031 -0.1139  0.0158
11045SOL    HW237857  -0.027   0.894  -0.024  0.1179 -1.0221 -1.3227
11047SOL     OW37858   3.257   1.298   3.320 -0.0217  0.5639 -0.3163
11047SOL    HW137859   3.191   1.223   3.327  0.2676  0.1568 -1.9201
11047SOL    HW237860   3.219   1.380   3.364 -1.4674  0.2556 -0.9861
11049SOL     OW37861   7.743   3.911   0.421  0.1583  0.4315 -0.0629
11049SOL    HW137862   7.805   3.843   0.460 -0.3902 -0.2685 -0.4169
11049SOL    HW237863   7.726   3.891   0.325 -2.0040 -0.4057  0.4706
11050SOL     OW37864   4.364   0.809   3.567  0.6741  0.7058 -0.3046
11050SOL    HW137865   4.347   0.880   3.499  0.4862 -1.3168 -2.4313
11050SOL    HW237866   4.455   0.821   3.606  1.5709  0.7586 -2.3605
11051SOL     OW37867   9.774   2.578   1.630  0.0509 -0.3575  0.1015
11051SOL    HW137868   9.801   2.491   1.588  0.2750 -1.0172  1.5775
11051SOL    HW237869   9.676   2.576   1.650  0.0534 -0.2734  0.1193
11052SOL     OW37870   5.661   1.447   1.032  0.2496 -0.2225  0.2014
11052SOL    HW137871   5.657   1.494   1.121 -2.0037  2.4470 -1.2480
11052SOL    HW237872   5.569   1.440   0.994  1.5403  1.8774 -3.5340
11053SOL     OW37873   3.685   4.420   2.559  0.4004  0.5676 -0.1803
11053SOL    HW137874   3.702   4.510   2.518  0.4823  0.2678 -0.8217
11053SOL    HW237875   3.773   4.379   2.585  0.7421 -0.9627 -3.4543
11054SOL     OW37876   5.224   1.826   7.806  0.4929 -0.2371  0.3621
11054SOL    HW137877   5.163   1.900   7.777  0.2772 -0.5806 -0.0616
11054SOL    HW237878   5.203   1.802   7.901  1.0979  0.7819  0.7601
11057SOL     OW37879   0.248   5.503   2.522 -0.1591  0.0183  0.4536
11057SOL    HW137880   0.220   5.417   2.480 -0.0639  0.5329 -0.6889
11057SOL    HW237881   0.231   5.578   2.459  0.7980  0.7113  1.0013
11058SOL     OW37882   9.742   7.621   3.577 -0.0923  0.1846  0.2710
11058SOL    HW137883   9.721   7.689   3.647  2.5892 -0.5107  1.8209
11058SOL    HW237884   9.815   7.655   3.517  0.0772 -0.6284  0.0104
11059SOL     OW37885   2.715   7.558   0.611  0.5598 -0.2998  0.2966
11059SOL    HW137886   2.759   7.644   0.637  0.9062 -0.4230  0.1146
11059SOL    HW237887   2.743   7.486   0.674 -0.3971 -0.0982  0.9709
11060SOL     OW37888   2.371   8.342   5.340 -0.8234 -0.1134 -0.0521
11060SOL    HW137889   2.398   8.383   5.427  1.1720  0.0990 -0.7510
11060SOL    HW237890   2.299   8.398   5.298  0.6326  1.7428 -0.1494
11061SOL     OW37891   3.147   2.344   6.122  0.0045  0.6258 -0.5016
11061SOL    HW137892   3.083   2.392   6.183 -0.8812 -2.8213  1.3931
11061SOL    HW237893   3.240   2.353   6.157 -0.6130 -2.1933  2.0831
11062SOL     OW37894   5.693   9.727   4.818  0.1966 -0.4876 -0.4905
11062SOL    HW137895   5.727   9.665   4.747 -0.5527 -1.8352  0.3094
11062SOL    HW237896   5.755   9.727   4.896 -0.1446 -0.7528 -0.2154
11063SOL     OW37897   8.380   7.653   1.342 -0.2178  0.2565 -0.1391
11063SOL    HW137898   8.402   7.633   1.247  0.4040 -0.1185  0.0815
11063SOL    HW237899   8.283   7.676   1.350 -0.0978  1.0907 -0.9907
11065SOL     OW37900   1.552   5.161   1.436 -0.0478  0.2321 -0.2337
11065SOL    HW137901   1.527   5.254   1.410 -0.7143 -0.1502 -0.9833
11065SOL    HW237902   1.616   5.123   1.368  0.2216  0.1463  0.0685
11066SOL     OW37903   3.999   2.739   6.207  0.1573 -0.2049  0.8090
11066SOL    HW137904   4.022   2.683   6.127  1.2814 -1.5318  2.0346
11066SOL    HW237905   3.909   2.712   6.241 -0.1735  0.1236  0.2079
11067SOL     OW37906   9.815   1.895   7.798 -0.7303  0.0868  0.2781
11067SOL    HW137907   9.811   1.841   7.882  3.1676 -0.8102 -0.0212
11067SOL    HW237908   9.768   1.845   7.725 -0.9008 -0.8955  1.0445
11068SOL     OW37909   8.285   9.081   3.428  0.0450  1.0985 -0.0438
11068SOL    HW137910   8.360   9.144   3.447  0.0823  0.7048  1.1865
11068SOL    HW237911   8.304   8.993   3.473 -0.9911  0.8951  0.0067
11070SOL     OW37912   9.123   7.899   0.489 -0.1100 -0.2085  0.2505
11070SOL    HW137913   9.163   7.895   0.581  1.2246 -1.2532 -0.3650
11070SOL    HW237914   9.101   7.807   0.457 -0.5853  0.1499 -0.4850
11071SOL     OW37915   2.377   6.534   7.833 -0.1282  0.1359  0.4893
11071SOL    HW137916   2.435   6.614   7.848 -0.4253 -0.0700  2.9456
11071SOL    HW237917   2.306   6.557   7.767  0.5374  1.5303  0.2261
11072SOL     OW37918   1.545   2.673   7.325 -0.6393 -0.0175  0.0363
11072SOL    HW137919   1.462   2.705   7.371  0.1767  1.4380  0.5679
11072SOL    HW237920   1.547   2.573   7.324 -2.9210 -0.0787 -0.9782
11073SOL     OW37921   7.884   1.014   5.652  0.0771  0.1713  0.9553
11073SOL    HW137922   7.807   0.994   5.712 -0.9900  1.3580  0.0118
11073SOL    HW237923   7.855   1.078   5.581  2.2925  1.6524  1.3608
11074SOL     OW37924   7.788   2.433   0.168 -0.4038 -0.0725 -0.2603
11074SOL    HW137925   7.831   2.388   0.090  0.1506 -0.4468  0.2529
11074SOL    HW237926   7.707   2.381   0.196 -0.8478  0.3032 -0.8589
11075SOL     OW37927   3.842   6.238   7.216 -0.4432 -0.6198  0.0246
11075SOL    HW137928   3.760   6.181   7.222  0.1846 -1.5941 -0.6575
11075SOL    HW237929   3.819   6.323   7.169 -1.4982 -0.0559  1.5097
11076SOL     OW37930   2.077   3.315   0.135  0.7726  0.2575 -0.1633
11076SOL    HW137931   1.997   3.324   0.195  1.5478 -0.8225  1.0717
11076SOL    HW237932   2.059   3.359   0.047 -0.8397  0.8061  0.4354
11077SOL     OW37933   7.214   8.105   2.835  0.3627  0.2693 -0.0458
11077SOL    HW137934   7.196   8.110   2.736 -0.7831 -1.0654  0.0838
11077SOL    HW237935   7.242   8.195   2.868  1.5239  0.5524 -1.7268
11078SOL     OW37936   7.611   2.203   0.145 -0.4889  0.0080  0.0153
11078SOL    HW137937   7.627   2.156   0.232 -0.3078  1.2431  0.6522
11078SOL    HW237938   7.681   2.175   0.079  0.7981  0.8722  0.9893
11079SOL     OW37939   8.808   6.055   3.070  0.2743  0.1602 -0.9569
11079SOL    HW137940   8.884   6.111   3.103 -0.8377  0.1188  1.7851
11079SOL    HW237941   8.819   5.961   3.102 -0.0878 -0.2499 -1.9840
11080SOL     OW37942   1.918   7.293   1.480  0.7000  0.1636 -0.2369
11080SOL    HW137943   2.013   7.293   1.447  0.5753  0.9540 -0.6234
11080SOL    HW237944   1.856   7.298   1.402  0.3700  0.7747  0.0625
11081SOL     OW37945   0.361   1.054   1.430 -0.1123  0.6417 -0.1872
11081SOL    HW137946   0.284   0.995   1.408 -1.1766  1.7405  0.5000
11081SOL    HW237947   0.432   1.043   1.361 -0.2768 -1.4474 -0.0405
11082SOL     OW37948   2.666   1.667   7.845  1.0971 -0.1838 -0.5939
11082SOL    HW137949   2.581   1.719   7.849  0.6930 -0.8982  0.4520
11082SOL    HW237950   2.696   1.658   7.750  1.1489  1.8889 -0.8101
11083SOL     OW37951   1.418   0.313   1.466  0.3600  0.9510  0.6101
11083SOL    HW137952   1.450   0.252   1.538  1.9761  0.7129 -0.2757
11083SOL    HW237953   1.459   0.404   1.479 -0.4543  1.2964  0.7889
11084SOL     OW37954   5.437   1.271   6.841  0.5171  0.2890  0.3067
11084SOL    HW137955   5.516   1.243   6.787  1.0714  1.2338  0.6176
11084SOL    HW237956   5.369   1.314   6.781  1.7370  2.6207  0.5484
11086SOL     OW37957   3.895   3.107   6.405  0.2791 -0.4784 -0.5154
11086SOL    HW137958   3.854   3.155   6.482  0.7106 -0.6999 -0.1426
11086SOL    HW237959   3.851   3.135   6.320  1.6227  1.8015 -0.4971
11087SOL     OW37960   9.455   5.005   2.114 -0.3241 -0.2451 -0.2209
11087SOL    HW137961   9.454   5.013   2.213  1.0954 -0.3193 -0.1989
11087SOL    HW237962   9.383   5.063   2.075 -1.5378 -0.9725  0.8850
11088SOL     OW37963   8.392   9.491   2.000  0.3930  0.3035  0.3939
11088SOL    HW137964   8.336   9.568   2.033 -0.7263  0.3179 -1.4540
11088SOL    HW237965   8.443   9.519   1.919  1.1839 -0.4480  0.6251
11089SOL     OW37966   2.278   5.307   2.682  0.0178 -0.2010  0.7875
11089SOL    HW137967   2.207   5.243   2.712 -0.8197  0.1634 -0.3877
11089SOL    HW237968   2.305   5.285   2.588 -0.0189  0.9387  0.5056
11090SOL     OW37969   7.559   7.407   4.822  0.5237  0.1374  0.2580
11090SOL    HW137970   7.592   7.438   4.912  0.6747 -1.2813  0.6983
11090SOL    HW237971   7.479   7.461   4.796  0.8218  0.9495  0.9748
11093SOL     OW37972   4.238   6.663   2.144 -0.5321  0.0404 -0.0278
11093SOL    HW137973   4.327   6.707   2.141 -1.0441  0.9766 -2.1376
11093SOL    HW237974   4.233   6.591   2.074 -1.7279  0.6006 -0.5397
11094SOL     OW37975   7.936   4.317   7.107 -0.4656  0.0456  0.2841
11094SOL    HW137976   7.888   4.369   7.036 -0.2756  0.1180  0.2069
11094SOL    HW237977   7.967   4.230   7.069  1.0023  0.7494 -0.1687
11095SOL     OW37978   2.089   6.408   2.985  0.4892 -0.1317  0.7161
11095SOL    HW137979   2.171   6.455   2.953 -0.2896  1.8689  1.5408
11095SOL    HW237980   2.051   6.457   3.064 -2.1564 -0.3381 -0.3835
11097SOL     OW37981   5.285   9.632   7.472 -0.0102  0.1293  0.0664
11097SOL    HW137982   5.258   9.566   7.402 -1.0018  0.8420 -0.2340
11097SOL    HW237983   5.262   9.724   7.441  0.5592  0.5367  0.8566
11098SOL     OW37984   4.905   4.588   0.498  0.0635 -0.3677  0.5345
11098SOL    HW137985   4.920   4.655   0.424 -1.0153  0.6685  1.2425
11098SOL    HW237986   4.878   4.636   0.581 -0.6170 -1.6914  1.0876
11099SOL     OW37987   2.554   9.553   0.112  0.0093  0.4080  0.1296
11099SOL    HW137988   2.595   9.581   0.025  0.7307  0.5012  0.4917
11099SOL    HW237989   2.581   9.617   0.183 -0.5847  0.3336  0.4241
11100SOL     OW37990   6.353   9.938   5.407  0.0738 -0.2072  0.5012
11100SOL    HW137991   6.275  10.000   5.419  0.0411 -0.0789 -0.3060
11100SOL    HW237992   6.436   9.992   5.391 -0.0904 -0.3671 -0.9896
11101SOL     OW37993   6.580   3.732   0.781 -0.4350 -0.2624 -0.0618
11101SOL    HW137994   6.493   3.760   0.821  0.0367  1.8209 -0.4548
11101SOL    HW237995   6.563   3.665   0.709 -1.4526 -2.3195  2.0051
11102SOL     OW37996   7.020   7.253   5.555 -0.0386  0.3009  0.3284
11102SOL    HW137997   6.962   7.334   5.544  0.2985  0.8212  2.1841
11102SOL    HW237998   7.065   7.233   5.469 -2.4928  0.2396 -1.0068
11103SOL     OW37999   5.376   0.737   4.197  0.1928  0.7902  0.2749
11103SOL    HW138000   5.354   0.674   4.122  1.2471  1.3458 -0.5041
11103SOL    HW238001   5.404   0.685   4.277  2.0684  0.2848 -0.6899
11104SOL     OW38002   9.242   2.749   0.522  1.0800  0.2455 -0.1851
11104SOL    HW138003   9.321   2.800   0.555  1.9022 -0.9022 -0.3457
11104SOL    HW238004   9.268   2.696   0.441  0.4832 -1.1049  0.4938
11105SOL     OW38005   0.414   4.182   2.243 -0.2058  0.2337 -0.2781
11105SOL    HW138006   0.511   4.205   2.248 -0.4888  1.2770  0.5203
11105SOL    HW238007   0.400   4.112   2.173  1.2698 -0.7126  0.3469
11107SOL     OW38008   1.514   7.488   6.915 -0.1980 -0.2077 -0.1495
11107SOL    HW138009   1.534   7.390   6.912 -2.3197 -0.6170 -1.8246
11107SOL    HW238010   1.419   7.502   6.944  0.1879  1.3900  0.4357
11108SOL     OW38011   7.699   6.899   6.116 -0.0351 -0.5045 -0.3815
11108SOL    HW138012   7.721   6.934   6.208 -0.6530 -2.5765  0.5922
11108SOL    HW238013   7.725   6.967   6.048 -0.4540  1.4854  1.3812
11109SOL     OW38014   6.009   0.642   7.346 -0.0368 -0.3639 -0.6578
11109SOL    HW138015   5.965   0.566   7.393  0.4033  0.1630  0.6239
11109SOL    HW238016   6.098   0.614   7.313  0.3225 -0.2771  0.2260
11110SOL     OW38017   5.707   9.296   5.976  0.2853 -0.2526  1.4944
11110SOL    HW138018   5.709   9.229   6.050 -0.1778 -0.1397  1.6111
11110SOL    HW238019   5.764   9.264   5.901 -1.5279 -1.7429  0.7254
11111SOL     OW38020   7.956   8.540   5.525 -0.0494  0.3504 -0.6814
11111SOL    HW138021   7.995   8.455   5.490  1.1985  1.0087 -0.9290
11111SOL    HW238022   7.892   8.578   5.458 -0.1653 -0.0982 -0.8214
11112SOL     OW38023   4.357   8.432   0.918 -0.4642 -0.1346 -0.8655
11112SOL    HW138024   4.347   8.350   0.861  0.2212 -0.0401 -1.1263
11112SOL    HW238025   4.357   8.513   0.859 -2.4218  0.1597 -0.5105
11113SOL     OW38026   7.875   3.963   0.744 -0.0478  0.2525 -0.6290
11113SOL    HW138027   7.928   4.006   0.671  0.1227 -0.5252 -0.9716
11113SOL    HW238028   7.937   3.935   0.817 -0.4040  2.4763  0.5516
11114SOL     OW38029   0.800   5.042   7.340  0.4331  0.5229 -0.0677
11114SOL    HW138030   0.855   5.009   7.417 -1.0215  0.5391  1.0081
11114SOL    HW238031   0.719   4.984   7.330  0.8937  0.1653 -1.9863
11116SOL     OW38032   2.820   4.268   6.075  0.2147 -0.6092  0.1773
11116SOL    HW138033   2.758   4.332   6.122  0.5658  1.2660 -1.8755
11116SOL    HW238034   2.912   4.276   6.113  0.4999  0.9175 -0.7953
11119SOL     OW38035   1.353   1.346   5.067 -0.5131  0.9266  0.7915
11119SOL    HW138036   1.303   1.299   4.995  0.7475 -0.0472  0.5286
11119SOL    HW238037   1.408   1.419   5.028  2.0053 -1.1104  0.4101
11120SOL     OW38038   7.831   5.387   2.126 -0.2135  0.4085 -0.8180
11120SOL    HW138039   7.852   5.479   2.094  0.4936  0.6673  0.3662
11120SOL    HW238040   7.861   5.321   2.058  0.7920  0.9741 -0.9318
11121SOL     OW38041   3.205   8.635   0.414  0.3414 -0.1691 -0.1026
11121SOL    HW138042   3.150   8.710   0.450 -0.6050  0.3257 -2.5046
11121SOL    HW238043   3.276   8.611   0.480 -0.6992  1.3864  1.6140
11122SOL     OW38044   8.855   2.377   7.133  0.0976  0.1441  0.3510
11122SOL    HW138045   8.945   2.343   7.158 -0.3986 -0.3940  1.4319
11122SOL    HW238046   8.788   2.350   7.202 -0.9772  0.1648 -0.6577
11124SOL     OW38047   9.292   4.916   3.842 -0.4689 -0.5798  0.4463
11124SOL    HW138048   9.199   4.905   3.876 -0.4317  0.9800  1.0957
11124SOL    HW238049   9.314   5.013   3.837  0.1430 -0.8167 -2.3883
11125SOL     OW38050   5.232   9.810   7.182  0.0356 -0.1677 -0.1719
11125SOL    HW138051   5.205   9.812   7.086 -0.7167  0.0700  0.0383
11125SOL    HW238052   5.328   9.783   7.190  1.0844  3.0703 -1.2126
11126SOL     OW38053   5.400   1.979   7.538  0.2724  0.5090 -0.0787
11126SOL    HW138054   5.420   2.028   7.622 -1.7842 -0.7169  1.1737
11126SOL    HW238055   5.416   1.881   7.551 -1.5250  0.1138 -0.5777
11127SOL     OW38056   8.561   8.687   7.309  0.2813  0.4982 -0.0442
11127SOL    HW138057   8.497   8.714   7.381  0.2318  0.1241  0.0574
11127SOL    HW238058   8.598   8.596   7.330 -0.6008 -0.1130 -1.0602
11129SOL     OW38059   0.773   0.963   1.462 -0.3732  0.8852  0.2755
11129SOL    HW138060   0.864   1.006   1.463 -0.3382  0.8741 -0.9102
11129SOL    HW238061   0.717   1.006   1.390 -0.8689  0.0195  0.1412
11130SOL     OW38062   1.377   2.963   7.346  0.2399 -0.5318  0.3205
11130SOL    HW138063   1.306   2.971   7.276  0.7385 -0.2424 -0.1492
11130SOL    HW238064   1.334   2.954   7.436 -0.4150 -2.4257 -0.1734
11131SOL     OW38065   0.649   3.782   2.944  0.7947  0.4035 -0.0933
11131SOL    HW138066   0.709   3.804   3.021  0.4338 -2.0808  0.9201
11131SOL    HW238067   0.659   3.686   2.920 -1.7361  0.2932 -0.8235
11133SOL     OW38068   4.392   4.116   1.482  0.2281  0.4058  0.2934
11133SOL    HW138069   4.296   4.087   1.487  0.6803 -0.9102  1.3120
11133SOL    HW238070   4.442   4.057   1.419  0.6817  0.2476  0.7979
11134SOL     OW38071   9.457   0.613   7.063  0.4697  0.5057 -0.5371
11134SOL    HW138072   9.375   0.574   7.022  0.7583 -0.1524 -0.4993
11134SOL    HW238073   9.452   0.605   7.162  1.2544 -0.9392 -0.5931
11135SOL     OW38074   1.520   2.125   4.462  0.1923 -0.0976  0.7210
11135SOL    HW138075   1.499   2.180   4.542  1.4460 -0.8721  1.5966
11135SOL    HW238076   1.489   2.031   4.477 -1.0236  0.1003 -0.3606
11136SOL     OW38077   0.049   7.562   4.175  0.2006 -0.5202 -0.1241
11136SOL    HW138078   0.044   7.548   4.076  4.0914 -3.1056 -0.0560
11136SOL    HW238079   0.017   7.480   4.222  0.1507 -0.0004  0.7569
11137SOL     OW38080   0.069   9.247   1.502  0.1843  0.0671 -0.1137
11137SOL    HW138081   0.067   9.248   1.602  2.4296 -1.2623 -0.0286
11137SOL    HW238082   0.051   9.154   1.469  0.3070  0.3242 -0.9232
11138SOL     OW38083   0.333   5.901   2.550 -0.2823 -0.5089 -0.4752
11138SOL    HW138084   0.267   5.867   2.483  1.2036 -1.3276 -1.5350
11138SOL    HW238085   0.422   5.914   2.507  0.2463  0.7042  0.9199
11139SOL     OW38086   0.647   6.232   5.357 -1.0230 -0.4272  0.3550
11139SOL    HW138087   0.548   6.241   5.348 -1.0153 -1.3151 -0.7978
11139SOL    HW238088   0.688   6.230   5.266  0.0966  0.3277  0.8390
11140SOL     OW38089   3.848   2.179   3.838  0.0945  0.2629  0.5323
11140SOL    HW138090   3.858   2.137   3.747 -0.4121 -1.7094  1.3709
11140SOL    HW238091   3.877   2.114   3.908 -3.1078  0.3455  2.0298
11141SOL     OW38092   2.378   4.513   4.600  0.1139 -0.0794  0.3079
11141SOL    HW138093   2.408   4.600   4.561  2.7886 -0.9132  0.4096
11141SOL    HW238094   2.327   4.531   4.684 -2.8960  1.5534 -1.7729
11143SOL     OW38095   3.055   0.741   0.850  0.0506 -0.3210 -0.8118
11143SOL    HW138096   2.977   0.752   0.789  0.7674 -0.2318 -1.7202
11143SOL    HW238097   3.140   0.754   0.799  0.6981 -1.5870 -0.0975
11144SOL     OW38098   6.243   1.751   4.980  0.5174  0.1785  0.7126
11144SOL    HW138099   6.309   1.679   4.959 -2.0429 -2.6239  1.8948
11144SOL    HW238100   6.150   1.714   4.977 -1.1625  4.2059 -1.7920
11145SOL     OW38101   2.995   2.252   1.301 -0.2136 -0.2631 -0.2688
11145SOL    HW138102   3.030   2.176   1.355  0.7869  0.1908 -0.2761
11145SOL    HW238103   2.920   2.296   1.350  0.0902 -0.4145  0.3297
11147SOL     OW38104   7.676   7.927   5.956 -0.8775 -0.3897 -0.0034
11147SOL    HW138105   7.764   7.965   5.930 -1.2427 -0.3738 -1.2520
11147SOL    HW238106   7.659   7.944   6.054 -0.2791  1.1380 -0.1593
11148SOL     OW38107   4.625   4.923   4.215  0.7746  0.0978 -0.5910
11148SOL    HW138108   4.580   4.950   4.130 -2.4529  1.5486  1.4698
11148SOL    HW238109   4.636   4.823   4.217 -2.5296 -0.3353 -1.1483
11150SOL     OW38110   8.122   2.285   5.482  0.3373  0.1614  0.0842
11150SOL    HW138111   8.205   2.258   5.532  0.0843 -0.8831 -0.0527
11150SOL    HW238112   8.130   2.255   5.387 -0.5849 -0.7630  0.2841
11152SOL     OW38113   1.709   3.395   1.161  0.2204  0.0776 -0.6720
11152SOL    HW138114   1.737   3.377   1.255  0.7711 -0.1730 -0.8775
11152SOL    HW238115   1.618   3.437   1.160 -1.3022 -3.0752 -0.1975
11154SOL     OW38116   0.434   5.835   4.604 -0.3897 -0.0037 -0.0781
11154SOL    HW138117   0.363   5.804   4.541  0.5061 -0.5945 -0.8061
11154SOL    HW238118   0.435   5.776   4.685 -1.8808  1.0647  0.7498
11155SOL     OW38119   0.865   7.673   7.655  0.6186 -0.2699 -0.1384
11155SOL    HW138120   0.775   7.631   7.666  0.7908 -0.4991  0.4613
11155SOL    HW238121   0.892   7.715   7.742  0.4281  1.1266 -0.7332
11156SOL     OW38122   8.282   9.420   5.664 -0.2382  0.0768 -0.0446
11156SOL    HW138123   8.282   9.348   5.594  0.1264  0.9554 -0.9706
11156SOL    HW238124   8.304   9.507   5.621 -2.2968  1.0304  0.7883
11157SOL     OW38125   1.266   6.245   4.735 -0.2068  0.1525  1.1610
11157SOL    HW138126   1.201   6.315   4.763 -0.2958 -0.7885  3.4421
11157SOL    HW238127   1.222   6.155   4.738  0.6554 -0.2860  0.8837
11158SOL     OW38128   8.279   7.915   0.336 -0.1554 -0.0618 -0.7234
11158SOL    HW138129   8.246   7.850   0.404  1.4624  0.2880  0.4166
11158SOL    HW238130   8.283   7.870   0.247 -1.3192 -0.8190 -0.4048
11159SOL     OW38131   7.619   3.967   7.113 -0.2091  0.6497 -0.0527
11159SOL    HW138132   7.570   3.935   7.031  0.3710  0.5426 -0.3647
11159SOL    HW238133   7.716   3.978   7.091  0.0990 -0.2107  0.8603
11160SOL     OW38134   8.959   2.163   5.041 -0.1740  0.4385  0.6172
11160SOL    HW138135   8.910   2.166   5.128  1.0518  2.2261  1.2801
11160SOL    HW238136   8.941   2.247   4.991  1.8228  0.9110  0.6684
11161SOL     OW38137   0.104   3.186   1.964  0.2506 -0.2368  0.1141
11161SOL    HW138138   0.011   3.220   1.948  0.4159  0.7553  1.2269
11161SOL    HW238139   0.162   3.262   1.995  1.1644 -1.0870  0.4854
11162SOL     OW38140   9.133   9.135   0.069  0.2171  0.3840  0.0476
11162SOL    HW138141   9.196   9.144  -0.008 -1.2811  1.7910 -1.0517
11162SOL    HW238142   9.048   9.094   0.037 -0.6472  1.5541  0.8042
11163SOL     OW38143   2.919   2.612   1.218  0.3176  0.3467  0.0624
11163SOL    HW138144   2.833   2.614   1.269  0.4480  3.6209  0.2114
11163SOL    HW238145   2.995   2.629   1.280  0.7448  1.1823 -0.6765
11164SOL     OW38146   8.389   5.974   0.908 -0.5005  0.7267 -0.7475
11164SOL    HW138147   8.310   5.932   0.953 -0.1491 -0.4000 -1.1767
11164SOL    HW238148   8.440   5.905   0.859 -0.0662  1.7102 -1.7021
11165SOL     OW38149   9.639   4.250   6.067  0.4972 -0.3065 -0.2203
11165SOL    HW138150   9.714   4.302   6.107 -0.3918  0.7415  0.1042
11165SOL    HW238151   9.566   4.238   6.135 -0.6415  0.7279 -1.2269
11169SOL     OW38152   6.349   2.309   3.471 -0.2095  0.6237 -0.0956
11169SOL    HW138153   6.431   2.365   3.478 -0.3444  0.9623 -1.1454
11169SOL    HW238154   6.282   2.355   3.413 -1.8795  1.2216  2.2334
11170SOL     OW38155   3.535   3.772   6.874 -0.1637 -0.1639 -0.3526
11170SOL    HW138156   3.586   3.717   6.808  0.2380 -0.4021  0.1652
11170SOL    HW238157   3.538   3.868   6.846  0.3011 -0.2190 -0.4885
11171SOL     OW38158   1.451   6.167   2.506 -0.1167 -0.1366 -0.7598
11171SOL    HW138159   1.524   6.174   2.574 -0.2292 -0.3925 -0.6066
11171SOL    HW238160   1.385   6.240   2.520  0.3260  0.3417 -1.1643
11172SOL     OW38161   0.653   8.887   3.877  0.0839  0.0445  0.4070
11172SOL    HW138162   0.675   8.790   3.866  0.5221  0.0811  0.9619
11172SOL    HW238163   0.733   8.936   3.910  0.1063  0.7485 -0.6691
11173SOL     OW38164   6.351   9.349   6.795 -0.3588  0.1456 -0.2772
11173SOL    HW138165   6.448   9.370   6.781 -0.3248 -0.1340 -0.4654
11173SOL    HW238166   6.304   9.348   6.707 -0.3882 -0.4214 -0.2577
11174SOL     OW38167   8.143   4.793   3.966  0.0236  1.0179 -0.0752
11174SOL    HW138168   8.147   4.743   4.052  0.6545  0.9946 -0.1166
11174SOL    HW238169   8.132   4.729   3.890  2.9405  0.7511 -0.3254
11175SOL     OW38170   8.256   9.531   1.197 -0.0129  0.1553 -0.0235
11175SOL    HW138171   8.195   9.455   1.173 -0.5923  1.1963 -1.9627
11175SOL    HW238172   8.205   9.617   1.196  1.2024  0.8870 -0.3837
11176SOL     OW38173   2.906   0.931   2.269  0.1867  0.0455 -0.0860
11176SOL    HW138174   2.842   0.956   2.196  1.8668 -1.5946 -2.1806
11176SOL    HW238175   2.986   0.991   2.265  0.3738 -0.1793  0.2770
11177SOL     OW38176   1.046   7.816   0.940 -0.1488 -0.4496  0.1786
11177SOL    HW138177   1.119   7.785   0.879 -0.9105 -1.5311 -0.2038
11177SOL    HW238178   0.958   7.806   0.894 -0.6142 -0.0483  0.9825
11178SOL     OW38179   8.263   9.472   5.916 -0.1271 -0.6035  0.0840
11178SOL    HW138180   8.251   9.451   5.819 -1.2887 -0.3627  0.1774
11178SOL    HW238181   8.294   9.567   5.926  0.4226 -0.7605 -0.0626
11179SOL     OW38182   0.720   3.751   5.517  0.4167  0.1295 -0.2884
11179SOL    HW138183   0.800   3.691   5.518  1.8326  1.9874 -0.2829
11179SOL    HW238184   0.657   3.724   5.591  1.2692 -1.0203  0.0313
11180SOL     OW38185   3.423   2.592   0.226 -0.0339  0.8463 -0.0326
11180SOL    HW138186   3.441   2.550   0.137  0.4199  0.4974  0.2248
11180SOL    HW238187   3.445   2.527   0.299 -1.5892  0.6744  0.3148
11181SOL     OW38188   1.716   8.048   2.507 -0.0513  0.8650  0.5433
11181SOL    HW138189   1.674   8.001   2.584  0.2530  1.4554  1.0741
11181SOL    HW238190   1.647   8.068   2.437 -0.1097 -0.7461  0.1136
11183SOL     OW38191   9.019   7.350   7.160  0.0073  0.1309  0.1573
11183SOL    HW138192   9.043   7.391   7.248  0.0314  1.2870 -0.3775
11183SOL    HW238193   9.009   7.423   7.091  0.3404 -0.7875 -0.8727
11184SOL     OW38194   1.421   0.695   1.626  0.5480  0.3555  0.2696
11184SOL    HW138195   1.438   0.790   1.652  0.6184  0.6904 -0.9937
11184SOL    HW238196   1.331   0.667   1.660 -0.5546  1.6755 -1.5169
11185SOL     OW38197   2.961   0.435   2.783  0.5924  0.0200 -0.5835
11185SOL    HW138198   2.967   0.518   2.840  1.3397 -0.7551  0.4814
11185SOL    HW238199   3.026   0.441   2.708  1.3372 -0.0127  0.0467
11186SOL     OW38200   6.060   0.228   4.110 -0.2605 -0.4434  0.4469
11186SOL    HW138201   6.016   0.317   4.117 -0.1405 -0.3947  0.5763
11186SOL    HW238202   6.121   0.214   4.188  0.5506 -0.1808 -0.1241
11187SOL     OW38203   3.423   9.342   6.031  0.0519  0.8901 -0.0744
11187SOL    HW138204   3.506   9.285   6.034  0.0252  0.8353 -0.3206
11187SOL    HW238205   3.427   9.401   5.951 -0.4860  0.3729 -0.4790
11188SOL     OW38206   1.844   2.764   5.146  0.3419 -0.7388 -0.3900
11188SOL    HW138207   1.853   2.735   5.242 -2.1347  0.6180  0.2844
11188SOL    HW238208   1.915   2.831   5.125  0.1699 -0.1529  0.8584
11189SOL     OW38209   1.303   8.431   2.963 -0.5008 -0.1608 -0.3711
11189SOL    HW138210   1.390   8.480   2.968 -0.8476  0.2802  1.5589
11189SOL    HW238211   1.228   8.497   2.954 -0.8572 -0.4042  0.8035
11190SOL     OW38212   6.773   5.317   6.666  0.3257  0.1843 -0.1953
11190SOL    HW138213   6.846   5.256   6.635  0.9898 -0.1520  1.9633
11190SOL    HW238214   6.813   5.400   6.704 -0.4972  0.9399 -0.9860
11191SOL     OW38215   8.724   5.434   6.368  0.0829 -0.2498 -0.4022
11191SOL    HW138216   8.797   5.489   6.328  0.4486  0.5458  1.2874
11191SOL    HW238217   8.764   5.352   6.411 -0.1037 -0.1918 -0.1198
11192SOL     OW38218   7.333   4.944   3.664  1.0134 -0.1333 -0.0844
11192SOL    HW138219   7.343   5.032   3.617 -0.3965  0.5952  0.9490
11192SOL    HW238220   7.409   4.932   3.729  0.2026  1.2276  1.1645
11194SOL     OW38221   3.423   7.739   3.486  0.0650  0.7160 -0.1066
11194SOL    HW138222   3.462   7.797   3.414  1.3643  0.7061  0.5630
11194SOL    HW238223   3.480   7.658   3.497 -0.5740  0.3332  0.3990
11197SOL     OW38224   1.184   7.759   2.030 -0.2363  0.0665 -0.5029
11197SOL    HW138225   1.094   7.790   2.000 -1.2564 -2.2323  0.0706
11197SOL    HW238226   1.241   7.839   2.051 -2.9755  1.5846  1.6404
11198SOL     OW38227   7.201   7.370   3.887  0.0111  0.5368  0.2327
11198SOL    HW138228   7.203   7.465   3.857 -0.1205  0.2259 -0.7993
11198SOL    HW238229   7.108   7.335   3.878 -0.1035  0.5313  1.3440
11199SOL     OW38230   7.633   1.141   7.521 -0.2992  0.5163 -0.0859
11199SOL    HW138231   7.557   1.080   7.542  0.1854  0.1668  0.6817
11199SOL    HW238232   7.703   1.132   7.591  1.3043 -0.5419 -1.8034
11200SOL     OW38233   9.294   7.687   2.374  0.1788  0.3166  0.2489
11200SOL    HW138234   9.222   7.670   2.306  2.9297  1.6468 -3.1974
11200SOL    HW238235   9.278   7.776   2.417 -0.5222  0.3830 -0.1342
11202SOL     OW38236   1.916   5.939   5.032 -0.6638  0.0699  0.3714
11202SOL    HW138237   1.993   5.876   5.019 -0.5725  0.4545 -1.0363
11202SOL    HW238238   1.931   6.022   4.979 -1.8630  0.3092  0.3741
11204SOL     OW38239   9.777   2.349   4.409  0.4438 -0.2014  0.0997
11204SOL    HW138240   9.760   2.254   4.382  2.0121 -0.0789 -1.3955
11204SOL    HW238241   9.875   2.370   4.398  0.0262  1.7550 -0.1183
11205SOL     OW38242   2.385   3.738   1.297 -0.0287  0.1664  0.3409
11205SOL    HW138243   2.298   3.689   1.306 -0.2354  0.7883  2.0663
11205SOL    HW238244   2.398   3.797   1.377  1.6796  0.5717 -0.2097
11206SOL     OW38245   4.535   6.096   0.711  0.4423  0.4422  0.6609
11206SOL    HW138246   4.462   6.138   0.765  1.6010 -0.3473  2.8952
11206SOL    HW238247   4.562   6.159   0.638 -2.3235  0.8043 -0.1139
11207SOL     OW38248   2.819   5.502   4.149  0.7542  0.1205 -0.4447
11207SOL    HW138249   2.910   5.461   4.156  1.1369  0.8705 -0.9759
11207SOL    HW238250   2.817   5.566   4.072 -0.2753 -0.0286 -0.5495
11208SOL     OW38251   4.230   1.496   3.417  0.0472 -0.2763  0.1594
11208SOL    HW138252   4.322   1.532   3.436 -1.3970  2.7648  1.6776
11208SOL    HW238253   4.183   1.556   3.353 -1.3952 -1.0605  0.4488
11209SOL     OW38254   4.860   1.484   5.173  0.1927 -0.5094  0.2331
11209SOL    HW138255   4.825   1.577   5.180 -0.5031 -0.6257 -1.4717
11209SOL    HW238256   4.944   1.476   5.228  0.0618  1.0015  0.6904
11210SOL     OW38257   4.262   0.205   0.464 -0.0359  0.3606  0.3261
11210SOL    HW138258   4.284   0.116   0.504  0.2136  0.6287  0.8036
11210SOL    HW238259   4.306   0.214   0.375 -1.7334 -0.7980 -0.6594
11211SOL     OW38260   8.369   9.247   6.024  0.2330  0.8628 -0.1363
11211SOL    HW138261   8.343   9.340   5.997 -0.1239  0.8726  0.2314
11211SOL    HW238262   8.301   9.211   6.088  0.1698  0.1995 -0.5771
11212SOL     OW38263   4.437   3.640   6.474 -0.1272 -0.1522  0.2965
11212SOL    HW138264   4.481   3.554   6.500 -1.2156 -0.6881  0.4000
11212SOL    HW238265   4.340   3.624   6.455 -0.3181  1.0322  0.1970
11213SOL     OW38266   8.085   9.607   1.902 -0.1856  0.1539 -0.0640
11213SOL    HW138267   8.014   9.538   1.914  0.0553 -0.3155 -1.2028
11213SOL    HW238268   8.113   9.643   1.991  0.1377 -1.7026  0.6090
11215SOL     OW38269   6.472   9.517   4.559 -0.5291 -0.2583  0.4083
11215SOL    HW138270   6.542   9.496   4.490 -0.9994 -1.5427  0.3172
11215SOL    HW238271   6.470   9.616   4.574  2.0603 -0.2964  1.2031
11216SOL     OW38272   9.098   1.157   1.194  0.0216 -0.0193 -0.3655
11216SOL    HW138273   9.074   1.222   1.122  0.2956 -0.5668 -0.9574
11216SOL    HW238274   9.152   1.083   1.155 -0.8600 -0.9566  0.1769
11218SOL     OW38275   8.009   2.920   5.727 -0.7104  0.5792  0.3212
11218SOL    HW138276   8.040   2.963   5.812 -0.3404 -0.4463  0.7143
11218SOL    HW238277   7.955   2.986   5.675  0.3250  1.7026  0.6350
11219SOL     OW38278   8.907   2.173   6.260  0.5805 -0.5315  0.1672
11219SOL    HW138279   8.864   2.221   6.183  1.5336 -1.2392 -0.8115
11219SOL    HW238280   8.851   2.095   6.287 -0.7595  0.8507  1.4845
11220SOL     OW38281   2.662   4.563   0.577 -0.5654 -0.3674  0.0070
11220SOL    HW138282   2.655   4.642   0.516  0.0842  0.5316  1.0687
11220SOL    HW238283   2.755   4.558   0.614  0.0804 -3.0130 -1.8750
11221SOL     OW38284   8.742   8.523   4.843 -0.0567 -0.1292 -0.1770
11221SOL    HW138285   8.734   8.442   4.785 -0.2041 -0.4558  0.2973
11221SOL    HW238286   8.663   8.582   4.827 -0.1171 -0.2358 -0.2816
11222SOL     OW38287   8.587   0.770   5.596 -0.0473 -0.0810 -0.0207
11222SOL    HW138288   8.578   0.674   5.621  0.7821 -0.2062 -0.1735
11222SOL    HW238289   8.606   0.777   5.498  0.5991  0.1965  0.1214
11224SOL     OW38290   0.149   8.087   0.028  0.9577 -0.1343  0.6701
11224SOL    HW138291   0.131   8.066   0.124 -0.1492  0.7319  0.6683
11224SOL    HW238292   0.158   8.002  -0.024  0.9327 -0.6051  1.4266
11225SOL     OW38293   8.573   5.766   3.261 -0.0436 -0.6720 -0.0252
11225SOL    HW138294   8.662   5.762   3.217  0.2537 -0.9398  0.6056
11225SOL    HW238295   8.509   5.816   3.202  0.7919  0.4375 -0.0107
11226SOL     OW38296   0.235   3.535   5.947  0.3708  0.1833 -0.4252
11226SOL    HW138297   0.175   3.611   5.924 -0.8587 -0.8161 -0.6081
11226SOL    HW238298   0.321   3.570   5.985  0.4101  1.6817 -1.8440
11227SOL     OW38299   1.991   6.827   3.787  0.0365 -0.0493 -0.3913
11227SOL    HW138300   2.027   6.735   3.774  2.2781  0.9273 -1.4333
11227SOL    HW238301   1.949   6.834   3.877  2.0111 -1.4254  0.6732
11228SOL     OW38302   8.003   1.664   3.133  0.3751 -0.8081 -0.1547
11228SOL    HW138303   8.029   1.747   3.183  2.5255 -2.1180  0.9485
11228SOL    HW238304   8.030   1.674   3.037 -0.7842  0.3760 -0.3759
11229SOL     OW38305   1.106   5.288   7.344 -0.2482  0.1537 -0.3792
11229SOL    HW138306   1.022   5.259   7.299 -0.7914 -0.1838  0.8195
11229SOL    HW238307   1.184   5.242   7.303 -0.7914 -0.5772 -0.5954
11230SOL     OW38308   2.284   1.427   5.587  0.2166  0.3873 -0.4005
11230SOL    HW138309   2.301   1.407   5.490 -0.5022 -0.8657 -0.2722
11230SOL    HW238310   2.215   1.499   5.594  1.6703  1.8538 -0.8362
11231SOL     OW38311   9.389   8.021   3.736 -0.0381 -0.0825 -0.8266
11231SOL    HW138312   9.312   8.058   3.788  0.3992  0.3703 -0.5011
11231SOL    HW238313   9.475   8.051   3.777  0.3225 -1.8689 -0.2830
11232SOL     OW38314   5.560   7.632   2.722  0.2637  0.6414  0.0607
11232SOL    HW138315   5.655   7.663   2.711 -0.2251  2.3091  0.3426
11232SOL    HW238316   5.510   7.647   2.636  0.1771  0.0224  0.0005
11233SOL     OW38317   9.041   1.169   4.099  0.2595  0.0659  0.2247
11233SOL    HW138318   8.955   1.147   4.144 -0.0458  0.7074 -0.0339
11233SOL    HW238319   9.029   1.161   4.000  0.0591  1.6424  0.1096
11234SOL     OW38320   2.240   2.815   3.328  0.1011 -0.0687 -0.0574
11234SOL    HW138321   2.253   2.889   3.394  0.3772  1.3691 -1.6962
11234SOL    HW238322   2.166   2.755   3.359  0.1660  0.6420  1.5006
11236SOL     OW38323   1.100   9.770   0.780 -0.0375  0.4251  0.5792
11236SOL    HW138324   1.160   9.705   0.734 -0.8964 -1.1589  1.6327
11236SOL    HW238325   1.155   9.835   0.832  0.8532  0.9155 -0.9499
11237SOL     OW38326   0.279   5.085   1.851  0.1340  0.2897  0.1275
11237SOL    HW138327   0.280   5.016   1.923  0.4590  1.9236  1.7422
11237SOL    HW238328   0.237   5.048   1.768 -0.7839 -1.4313  1.3499
11239SOL     OW38329   0.084   8.785   3.340  0.0092  0.5276 -0.2826
11239SOL    HW138330   0.027   8.756   3.416 -0.8014  0.7341 -0.8125
11239SOL    HW238331   0.061   8.731   3.259  2.7578 -1.6244  0.2855
11240SOL     OW38332   8.639   2.492   2.596 -0.3823 -0.1801 -0.1657
11240SOL    HW138333   8.641   2.394   2.613  0.2015  0.0422  1.1056
11240SOL    HW238334   8.690   2.513   2.512  0.5017 -0.8465  0.1971
11241SOL     OW38335   6.657   0.411   6.267 -0.9755 -0.5631 -0.0407
11241SOL    HW138336   6.703   0.500   6.263 -1.9152 -0.0951 -0.5820
11241SOL    HW238337   6.722   0.339   6.243 -0.3198  0.0097 -0.0114
11242SOL     OW38338   5.189   8.016   5.421  0.4541 -0.1007  0.1151
11242SOL    HW138339   5.116   8.006   5.489 -0.7477  0.6260 -1.0514
11242SOL    HW238340   5.169   7.959   5.342  0.6903  0.7815 -0.5870
11243SOL     OW38341   3.295   6.625   7.723  0.3853 -0.2818 -0.2043
11243SOL    HW138342   3.326   6.551   7.782  0.5263 -1.3628 -1.6149
11243SOL    HW238343   3.301   6.712   7.772 -1.4976 -1.3989  2.0656
11246SOL     OW38344   2.459   3.074   0.034 -0.3616  0.0182  0.7002
11246SOL    HW138345   2.491   3.062   0.128  1.2159  0.0924  0.1915
11246SOL    HW238346   2.537   3.098  -0.025 -1.3991  0.3875 -0.5456
11247SOL     OW38347   5.055   4.685   7.299 -0.1789 -0.1843 -0.7274
11247SOL    HW138348   5.147   4.686   7.260  0.0819 -3.4854 -0.2915
11247SOL    HW238349   5.002   4.611   7.259 -2.1965  0.7578  0.1142
11248SOL     OW38350   6.857   8.879   5.694  0.0542  0.3673  0.2170
11248SOL    HW138351   6.871   8.861   5.792 -0.1223 -1.9671 -0.1562
11248SOL    HW238352   6.897   8.967   5.670  0.0704  0.9775  2.4057
11249SOL     OW38353   2.545   4.286   0.514  0.0580  0.2374 -0.4678
11249SOL    HW138354   2.595   4.367   0.543 -1.1603  1.2925 -1.2212
11249SOL    HW238355   2.553   4.214   0.583 -0.2140  1.5898  0.9935
11250SOL     OW38356   3.642   6.933   3.404 -0.1756  0.1830 -0.7224
11250SOL    HW138357   3.575   6.860   3.393 -1.0192  1.0920 -1.7420
11250SOL    HW238358   3.630   6.976   3.493  0.5550 -1.1329  0.0296
11252SOL     OW38359   3.581   8.137   3.324  0.3847  0.2482  0.6547
11252SOL    HW138360   3.503   8.159   3.382 -0.5350  0.3714 -0.6005
11252SOL    HW238361   3.582   8.198   3.245  0.3616 -1.3120 -0.5739
11253SOL     OW38362   3.839   1.122   5.039  0.3171 -0.1845  0.1616
11253SOL    HW138363   3.788   1.109   4.954  0.7675  0.2857 -0.1824
11253SOL    HW238364   3.791   1.187   5.098 -1.0818 -2.0916  1.1724
11254SOL     OW38365   4.093   1.754   7.052  0.3722  0.2284 -0.3675
11254SOL    HW138366   4.136   1.689   6.990 -1.0641 -0.2776 -0.8504
11254SOL    HW238367   4.143   1.841   7.049  0.4762  0.1287 -2.0315
11256SOL     OW38368   3.172   7.252   4.072  0.3180  0.1271 -0.5931
11256SOL    HW138369   3.087   7.303   4.085 -0.7896 -0.8647 -3.3351
11256SOL    HW238370   3.249   7.315   4.068 -0.6719  1.3418 -1.0724
11257SOL     OW38371   8.914   0.892   3.248  0.9042  0.6206 -0.2416
11257SOL    HW138372   8.849   0.874   3.174  0.0655 -0.7246  0.7984
11257SOL    HW238373   9.005   0.865   3.219  0.8820  1.7965 -1.4370
11258SOL     OW38374   0.039   2.552   1.338 -0.0520 -0.1828  0.3321
11258SOL    HW138375  -0.048   2.507   1.320 -0.4658  0.4131  0.8357
11258SOL    HW238376   0.023   2.647   1.364  0.7752  0.0665 -0.0507
11259SOL     OW38377   9.889   4.047   5.022 -0.0015 -0.0621 -0.2715
11259SOL    HW138378   9.903   3.995   4.937  0.9771 -0.0652 -0.1160
11259SOL    HW238379   9.845   3.989   5.090  1.2377 -0.7603 -0.0399
11260SOL     OW38380   9.565   8.757   7.369 -0.2130  0.4532 -0.1782
11260SOL    HW138381   9.575   8.847   7.411  0.3090  0.6097 -0.6314
11260SOL    HW238382   9.514   8.765   7.284  0.1118  0.3671 -0.3825
11262SOL     OW38383   3.824   6.850   5.225  0.0344 -0.3463 -0.1506
11262SOL    HW138384   3.778   6.774   5.180  0.5285 -0.2827 -0.7616
11262SOL    HW238385   3.824   6.930   5.165 -1.5292  0.5064  0.9518
11263SOL     OW38386   2.769   2.024   0.837 -0.5489 -0.2378 -0.0433
11263SOL    HW138387   2.839   2.047   0.904  0.0054 -0.2334 -0.6106
11263SOL    HW238388   2.678   2.033   0.877 -0.2763  1.3025  0.2240
11264SOL     OW38389   8.691   4.439   4.553  0.6793  0.4243 -0.4323
11264SOL    HW138390   8.787   4.465   4.541  0.5130  2.0300  1.4557
11264SOL    HW238391   8.635   4.487   4.485  0.8907  1.6817  0.2711
11265SOL     OW38392   0.704   5.387   1.201 -0.2914 -0.0382 -0.3340
11265SOL    HW138393   0.695   5.359   1.105  2.1358  1.2545 -0.9780
11265SOL    HW238394   0.800   5.381   1.228 -0.4452  2.8651  0.9818
11267SOL     OW38395   0.293   7.056   3.005 -0.0554 -0.0567  0.5658
11267SOL    HW138396   0.197   7.063   3.035 -0.6771  0.0162 -1.3391
11267SOL    HW238397   0.318   7.141   2.957  0.8177 -0.2596  0.6669
11268SOL     OW38398   0.572   8.164   1.543  0.2131 -0.0533  0.5328
11268SOL    HW138399   0.653   8.182   1.488 -0.8460  0.0475 -1.0360
11268SOL    HW238400   0.543   8.070   1.530  0.4607 -0.2835  1.6140
11269SOL     OW38401   8.701   0.464   1.260 -0.9716  0.5743  0.1267
11269SOL    HW138402   8.725   0.395   1.192 -0.7114  0.9927 -0.2109
11269SOL    HW238403   8.738   0.552   1.232 -1.4720  0.8897  0.4612
11270SOL     OW38404   2.795   4.239   3.853  0.4583  0.1023  0.7029
11270SOL    HW138405   2.733   4.312   3.824  0.4546 -0.0790  0.2468
11270SOL    HW238406   2.777   4.157   3.799 -1.1986 -0.9955  2.8572
11272SOL     OW38407   1.242   6.005   7.122 -0.0084 -0.1965  0.9600
11272SOL    HW138408   1.252   6.015   7.221 -3.2420  1.2160  1.1918
11272SOL    HW238409   1.170   5.939   7.102  0.2618 -0.0800 -0.4325
11273SOL     OW38410   1.240   5.829   4.248  0.3095  0.5823 -0.2513
11273SOL    HW138411   1.218   5.771   4.327 -1.9023  1.0724 -0.4662
11273SOL    HW238412   1.284   5.773   4.177 -2.4964 -1.0968 -0.7734
11274SOL     OW38413   1.943   1.881   2.239  0.3177  0.2198 -0.1104
11274SOL    HW138414   2.022   1.833   2.201  0.1143  1.0655 -1.6369
11274SOL    HW238415   1.967   1.920   2.327  1.4675  0.0643 -0.3440
11275SOL     OW38416   7.242   9.314   1.766 -0.1528 -0.3179 -0.0141
11275SOL    HW138417   7.185   9.358   1.696  0.0885 -0.8486 -0.5454
11275SOL    HW238418   7.189   9.242   1.810 -0.0440 -0.5131 -0.1994
11276SOL     OW38419   5.291   8.437   6.084  0.0035  0.4574 -0.1783
11276SOL    HW138420   5.390   8.426   6.075 -0.2691 -1.9152 -0.5129
11276SOL    HW238421   5.246   8.396   6.005 -1.2654  1.2464  0.1342
11277SOL     OW38422   7.407   4.026   1.199  0.0054 -0.8660  0.4797
11277SOL    HW138423   7.497   3.998   1.167 -0.0858  0.2530 -0.7660
11277SOL    HW238424   7.338   4.004   1.130 -0.1857  1.5914 -0.1606
11278SOL     OW38425   3.856   3.029   4.893 -0.5355 -0.4992 -0.0620
11278SOL    HW138426   3.838   3.100   4.960 -0.3513  0.6932 -1.2636
11278SOL    HW238427   3.769   2.997   4.855 -0.7410 -2.1678  1.7237
11279SOL     OW38428   8.277   2.047   4.348 -0.4256  0.4349  0.0122
11279SOL    HW138429   8.263   2.012   4.256  0.3330  0.2216 -0.0228
11279SOL    HW238430   8.201   2.019   4.406 -1.5818  1.6833 -0.8612
11280SOL     OW38431   6.738   2.558   1.332  0.2162 -0.0774 -0.4185
11280SOL    HW138432   6.760   2.641   1.280 -1.5138 -0.2014 -1.3847
11280SOL    HW238433   6.802   2.548   1.408  1.9467  0.8382 -1.7279
11281SOL     OW38434   7.457   8.523   2.749  0.0012 -0.8459  0.0224
11281SOL    HW138435   7.556   8.534   2.737  0.2907 -0.3385  2.4577
11281SOL    HW238436   7.416   8.492   2.664  1.6446  2.9202 -2.2209
11282SOL     OW38437   3.528   7.088   2.794  0.9572  0.0348  0.4964
11282SOL    HW138438   3.613   7.050   2.756  1.4850  1.4670  0.2203
11282SOL    HW238439   3.463   7.014   2.809  1.3104 -0.7704 -1.7106
11283SOL     OW38440   3.027   0.176   2.231  0.2343  0.0752  0.3254
11283SOL    HW138441   2.968   0.102   2.197  0.8528 -0.5794  0.6518
11283SOL    HW238442   2.988   0.215   2.314  1.7378 -2.3930  2.2875
11285SOL     OW38443   3.511   6.184   3.434 -0.0853 -0.3032  0.1427
11285SOL    HW138444   3.426   6.231   3.414 -1.1127 -2.2886 -0.2413
11285SOL    HW238445   3.523   6.176   3.533 -0.7867 -0.7909  0.1895
11286SOL     OW38446   9.518   7.190   4.854  0.4105 -0.5255 -0.9763
11286SOL    HW138447   9.445   7.253   4.881  0.5422 -0.1423 -1.5141
11286SOL    HW238448   9.504   7.102   4.900  1.8470  0.7669  2.0949
11287SOL     OW38449   2.090   0.007   6.019  0.2860 -0.9190 -0.2407
11287SOL    HW138450   2.016   0.068   5.991  0.0951 -1.3297 -0.6345
11287SOL    HW238451   2.143   0.050   6.092  0.5312 -0.0155 -0.9371
11288SOL     OW38452   0.629   5.477   3.883 -0.1549 -0.2207  0.3381
11288SOL    HW138453   0.624   5.490   3.784 -0.4012 -0.2357  0.3479
11288SOL    HW238454   0.638   5.379   3.903  3.0925  0.0124  0.2114
11289SOL     OW38455   4.825   2.606   1.598  0.3837 -0.4253 -0.0094
11289SOL    HW138456   4.833   2.509   1.578  0.7402 -0.8528  2.1131
11289SOL    HW238457   4.916   2.645   1.612  0.2418  0.2278 -0.8482
11290SOL     OW38458   1.387   3.791   5.653 -0.5143  0.2149 -0.1506
11290SOL    HW138459   1.387   3.794   5.752 -0.6778  0.2454 -0.1509
11290SOL    HW238460   1.293   3.794   5.619 -0.3970  2.1968 -0.3744
11291SOL     OW38461   3.881   9.556   1.825 -0.0641  0.1954  0.0813
11291SOL    HW138462   3.784   9.577   1.812 -0.1685  0.5921  1.3877
11291SOL    HW238463   3.896   9.525   1.919  0.6198 -2.6334 -0.8984
11292SOL     OW38464   7.030   2.567   3.142  0.0791 -0.0528 -0.0207
11292SOL    HW138465   6.977   2.494   3.099 -0.8022  0.0171  0.9239
11292SOL    HW238466   7.016   2.653   3.092  1.9614 -0.7343 -1.7745
11294SOL     OW38467   0.113   9.552   6.388  0.2873 -0.1282  0.0187
11294SOL    HW138468   0.212   9.534   6.388  0.4621  0.6233 -2.5565
11294SOL    HW238469   0.076   9.529   6.298 -1.9626 -0.7191  1.0775
11296SOL     OW38470   9.772   7.560   4.582 -0.3909 -0.3372  0.1282
11296SOL    HW138471   9.794   7.514   4.668 -0.9066  0.6540  0.7961
11296SOL    HW238472   9.834   7.637   4.568  0.4707 -1.2173 -0.9897
11297SOL     OW38473   4.289   7.953   0.152 -0.4076 -0.1631  0.2925
11297SOL    HW138474   4.377   8.001   0.146 -0.4104 -0.3365 -1.3102
11297SOL    HW238475   4.301   7.857   0.128 -0.8394 -0.4520  1.1950
11298SOL     OW38476   8.667   3.781   6.435 -0.1398  0.0160  0.5290
11298SOL    HW138477   8.746   3.748   6.383  1.3781  1.5764  1.7600
11298SOL    HW238478   8.678   3.880   6.451 -0.8686 -0.3245  3.2772
11299SOL     OW38479   1.642   0.499   4.610  0.0165  0.4706 -0.5728
11299SOL    HW138480   1.688   0.532   4.693 -0.3025  1.6562 -0.8464
11299SOL    HW238481   1.674   0.552   4.532  0.9585 -1.2175 -1.3523
11302SOL     OW38482   5.919   4.379   7.940 -0.0176 -0.3665 -0.1681
11302SOL    HW138483   5.913   4.459   7.882  0.5155 -0.2730 -0.1012
11302SOL    HW238484   5.985   4.314   7.901 -0.2062 -0.6281 -0.0563
11303SOL     OW38485   2.306   3.415   2.084  0.2697 -0.0946 -0.8717
11303SOL    HW138486   2.213   3.395   2.051 -0.0451 -1.0758  0.5956
11303SOL    HW238487   2.371   3.358   2.035 -0.3237 -2.5043  1.0914
11304SOL     OW38488   0.081   9.698   2.241  0.7243  0.0376 -0.5819
11304SOL    HW138489   0.103   9.605   2.270 -0.9887 -0.6496 -1.3748
11304SOL    HW238490  -0.014   9.719   2.267  1.1207  1.5795 -0.3537
11305SOL     OW38491   2.027   3.228   1.409  0.3543  0.2718  0.2671
11305SOL    HW138492   2.065   3.202   1.321  2.0135  1.7809  0.5018
11305SOL    HW238493   2.094   3.210   1.481  0.3218  2.1463  0.7948
11307SOL     OW38494   5.350   6.714  10.085  0.6911  0.2983 -0.1512
11307SOL    HW138495   5.287   6.639  10.107  0.4084  0.4737 -0.3641
11307SOL    HW238496   5.374   6.710   9.988  0.7924  0.3951 -0.1301
11309SOL     OW38497   6.503   8.460   2.683 -0.4986 -0.3696  0.2508
11309SOL    HW138498   6.587   8.514   2.684 -0.6362 -0.1449  2.6681
11309SOL    HW238499   6.501   8.404   2.600  1.5294  0.3941 -0.3554
11310SOL     OW38500   6.984   2.305   3.060  0.1262  0.2367  0.3364
11310SOL    HW138501   6.960   2.277   3.153  0.7651  0.7325  0.6550
11310SOL    HW238502   7.066   2.256   3.031  0.4658  0.7639  0.3904
11311SOL     OW38503   0.906   4.141   3.641 -0.3234 -0.2224  0.4937
11311SOL    HW138504   0.931   4.112   3.548 -0.8418  0.9774 -0.0236
11311SOL    HW238505   0.950   4.080   3.707  0.1053 -1.0494 -0.5296
11313SOL     OW38506   9.844   0.632   5.440 -0.0621 -0.5219 -0.6379
11313SOL    HW138507   9.857   0.537   5.411 -1.7191 -0.4666 -1.6201
11313SOL    HW238508   9.873   0.642   5.535 -2.2733 -2.6082  0.2951
11315SOL     OW38509   7.063   5.561   2.714  0.3021 -0.5250 -0.0989
11315SOL    HW138510   7.044   5.578   2.618  1.1318  1.6279  0.0802
11315SOL    HW238511   7.159   5.535   2.725  0.9316  1.8825  0.3962
11316SOL     OW38512   8.965   3.319   3.623  0.3044 -0.1418  0.3821
11316SOL    HW138513   8.946   3.416   3.640  0.0882 -0.1177  0.0277
11316SOL    HW238514   9.061   3.308   3.598 -0.0333  0.2038 -1.1189
11317SOL     OW38515   3.328   9.998   2.614  0.2675  0.0159 -0.5537
11317SOL    HW138516   3.292  10.053   2.538 -0.7675 -0.3542 -0.3463
11317SOL    HW238517   3.255   9.938   2.649  0.7001  0.2762  0.8175
11318SOL     OW38518   7.499   2.283   0.470 -0.2313 -0.3628 -0.2366
11318SOL    HW138519   7.423   2.343   0.444 -0.2864 -0.5630 -0.5353
11318SOL    HW238520   7.584   2.336   0.471 -0.5190  0.0800  1.0255
11319SOL     OW38521   2.853   4.721   3.605  0.0808  0.0799 -0.1513
11319SOL    HW138522   2.944   4.718   3.563  0.6737 -2.5451  1.2469
11319SOL    HW238523   2.862   4.712   3.704 -1.6160  1.6930  0.1681
11321SOL     OW38524   1.119   6.107   5.236  0.1767  0.2989 -0.3399
11321SOL    HW138525   1.116   6.143   5.143  1.7511  0.3701 -0.3779
11321SOL    HW238526   1.172   6.169   5.294 -0.1064 -0.1600  0.4187
11322SOL     OW38527   1.626   7.638   1.088  0.0069  0.0224 -0.3555
11322SOL    HW138528   1.691   7.600   1.023 -1.9356 -0.5007 -2.0364
11322SOL    HW238529   1.617   7.576   1.166 -1.8102 -2.1894 -2.2388
11323SOL     OW38530   1.088   4.280   4.472  0.1445 -0.0841 -0.0717
11323SOL    HW138531   1.182   4.247   4.480  0.7371  0.6924 -3.0351
11323SOL    HW238532   1.025   4.203   4.478  1.0947 -0.8582  0.1328
11325SOL     OW38533   0.738   3.894   5.095 -0.0340 -0.5656  1.0398
11325SOL    HW138534   0.681   3.943   5.160 -1.0767 -0.0786 -0.2079
11325SOL    HW238535   0.681   3.865   5.017  1.4211 -0.0644 -0.2307
11326SOL     OW38536   8.427   7.202   3.560  0.0315  0.3923 -0.2149
11326SOL    HW138537   8.357   7.226   3.493  1.0044 -0.1501 -1.4486
11326SOL    HW238538   8.486   7.131   3.522  1.3041  0.9145  0.7569
11328SOL     OW38539   2.291   2.557   1.728  0.2003 -0.0397 -0.0242
11328SOL    HW138540   2.371   2.516   1.685  0.7202  0.8657  0.0729
11328SOL    HW238541   2.262   2.500   1.805  0.5285 -0.5609 -0.2803
11329SOL     OW38542   6.851   0.737   4.047 -0.1820  0.2134  0.1301
11329SOL    HW138543   6.893   0.674   4.112  0.0245 -0.4420 -0.6323
11329SOL    HW238544   6.912   0.814   4.031 -0.4811  0.6792  1.1496
11330SOL     OW38545   0.386   4.032   4.663 -0.1612  0.9311 -0.2202
11330SOL    HW138546   0.367   3.955   4.603 -0.1353  1.3178 -0.7248
11330SOL    HW238547   0.455   4.006   4.730 -0.1783  0.5069 -0.3664
11332SOL     OW38548   7.107   9.431   1.554 -0.2882 -0.5007  0.0189
11332SOL    HW138549   7.083   9.354   1.495 -1.3358  0.0248 -0.2455
11332SOL    HW238550   7.100   9.516   1.501  0.8410 -0.2149  0.3121
11333SOL     OW38551   3.161   8.389   3.870  0.2226 -0.0187 -0.6861
11333SOL    HW138552   3.082   8.341   3.831 -0.1506 -1.3694  1.6219
11333SOL    HW238553   3.245   8.348   3.835 -0.1072 -0.8564 -0.5279
11336SOL     OW38554   8.902   6.163   4.825 -0.8755  0.0299  0.6433
11336SOL    HW138555   8.969   6.213   4.881  0.3297 -0.1626 -0.5849
11336SOL    HW238556   8.820   6.146   4.878  0.2080 -0.0610  2.3184
11337SOL     OW38557   8.121   5.966   4.630  0.5937 -0.3005  0.0135
11337SOL    HW138558   8.160   5.885   4.673 -0.1378 -0.3608  0.5785
11337SOL    HW238559   8.112   6.039   4.698 -0.0821 -0.2216 -0.1555
11338SOL     OW38560   5.713   7.938   3.296 -0.2041 -0.4830  0.0561
11338SOL    HW138561   5.795   7.971   3.249  0.8783 -0.3340  2.0061
11338SOL    HW238562   5.691   7.845   3.264  1.2566 -0.8808  0.1773
11339SOL     OW38563   2.424   6.986   7.319 -0.0645 -0.0782  0.0744
11339SOL    HW138564   2.324   6.980   7.316 -0.1785  1.3287  0.6795
11339SOL    HW238565   2.457   6.941   7.401 -0.2892  0.3154  0.3872
11340SOL     OW38566   0.973   6.449   3.411  0.2407  0.0743  0.1061
11340SOL    HW138567   0.911   6.383   3.453 -1.9770  2.8079  1.3183
11340SOL    HW238568   1.007   6.413   3.324 -0.2012 -2.9763  1.1398
11341SOL     OW38569   8.223   2.307   7.896 -0.0136  0.4937 -0.1950
11341SOL    HW138570   8.317   2.274   7.896 -1.3242 -3.4585  0.7267
11341SOL    HW238571   8.204   2.355   7.982  0.5155 -0.6624  0.5737
11342SOL     OW38572   4.684   0.502   5.786  0.7599 -0.1051  0.2802
11342SOL    HW138573   4.712   0.466   5.875  1.0085 -0.1463  0.1876
11342SOL    HW238574   4.700   0.600   5.782 -0.1104  0.0519  0.6058
11344SOL     OW38575   7.571   9.581   7.418  0.2523  0.7414 -0.1292
11344SOL    HW138576   7.663   9.618   7.411  0.9515 -1.1668 -1.6372
11344SOL    HW238577   7.567   9.514   7.492  0.0649  0.8515 -0.0392
11345SOL     OW38578   9.643   0.382   5.263 -0.2712 -0.4256  0.0622
11345SOL    HW138579   9.643   0.469   5.214  2.3445 -1.3405 -1.6842
11345SOL    HW238580   9.572   0.383   5.334 -0.8545  2.7721 -0.5042
11346SOL     OW38581   5.352   4.655   1.616 -0.2570  0.2849 -0.4488
11346SOL    HW138582   5.340   4.682   1.520 -3.8904  0.5299  0.0202
11346SOL    HW238583   5.414   4.719   1.661  1.9853 -0.2008 -2.7733
11347SOL     OW38584   5.076   7.369   5.522 -0.2399  0.2490  0.3782
11347SOL    HW138585   5.006   7.346   5.455 -0.9853  1.8800  0.5787
11347SOL    HW238586   5.116   7.458   5.499  1.2183 -0.3062  0.7167
11348SOL     OW38587   2.430   2.946   6.301  0.4420 -0.6291 -0.4563
11348SOL    HW138588   2.458   3.021   6.242 -1.2773  0.5642  0.2136
11348SOL    HW238589   2.362   2.890   6.254  0.0136 -0.4160 -0.0954
11349SOL     OW38590   1.647   3.626   5.132  0.3900  0.8085  0.6796
11349SOL    HW138591   1.552   3.631   5.163  0.3718  1.1682  0.5674
11349SOL    HW238592   1.650   3.623   5.032  0.4678  0.0624  0.6994
11350SOL     OW38593   6.224   4.225   1.630  0.1220 -0.5327 -0.0476
11350SOL    HW138594   6.132   4.264   1.636  0.4196 -0.0984  2.2824
11350SOL    HW238595   6.269   4.258   1.546  0.3564  4.2394  1.7886
11351SOL     OW38596   1.681   1.720   5.847  0.3493 -0.2886  0.4236
11351SOL    HW138597   1.672   1.808   5.893  1.4748  1.7120 -2.9726
11351SOL    HW238598   1.595   1.697   5.801  0.5678 -0.1786 -0.0381
11352SOL     OW38599   8.743   7.007   4.649  0.4405  0.4779  0.4416
11352SOL    HW138600   8.798   6.979   4.570  0.5797 -0.6741  0.9398
11352SOL    HW238601   8.703   7.097   4.632  0.4406  0.2154 -0.9552
11354SOL     OW38602   2.733   3.536   5.780  0.0111 -0.3614  0.1998
11354SOL    HW138603   2.699   3.601   5.712  0.1420 -0.7343 -0.2228
11354SOL    HW238604   2.825   3.507   5.755  0.6548  0.6438  1.3352
11355SOL     OW38605   9.458   1.298   2.793 -0.4320 -0.0846 -1.0966
11355SOL    HW138606   9.362   1.305   2.818 -0.6308  0.8724 -2.0969
11355SOL    HW238607   9.466   1.284   2.694  0.3977 -1.9972 -0.7828
11357SOL     OW38608   3.660   0.492   7.723 -0.2016  0.0545  0.0290
11357SOL    HW138609   3.566   0.525   7.723 -0.3507 -0.3679 -0.4072
11357SOL    HW238610   3.682   0.455   7.633  0.4820  0.4430  0.0355
11358SOL     OW38611   7.114   2.137   3.747  0.0582 -0.0159 -0.0778
11358SOL    HW138612   7.022   2.107   3.771 -0.4526  0.7761 -1.0330
11358SOL    HW238613   7.110   2.197   3.667  1.5398 -1.1334 -1.0189
11359SOL     OW38614   0.431   9.224   3.359  0.0059 -0.2353  0.2123
11359SOL    HW138615   0.350   9.276   3.387 -1.1872 -2.1645  0.4000
11359SOL    HW238616   0.449   9.242   3.262 -0.3721  0.5533  0.2784
11360SOL     OW38617   3.426   0.807   0.533 -0.1635 -0.2927  0.1445
11360SOL    HW138618   3.504   0.780   0.476 -1.3222 -0.1718 -1.5164
11360SOL    HW238619   3.399   0.730   0.590  1.3500 -0.2455  0.9525
11361SOL     OW38620   1.926   0.565   3.358  0.4456 -0.3756 -0.1787
11361SOL    HW138621   1.916   0.563   3.258  0.5364  0.9828 -0.2341
11361SOL    HW238622   1.973   0.482   3.389 -1.3236 -1.7317 -1.0556
11362SOL     OW38623   5.336   4.411   2.173 -0.2159 -0.2701 -0.3904
11362SOL    HW138624   5.431   4.391   2.196  0.1883  0.4583 -1.4171
11362SOL    HW238625   5.289   4.447   2.253  0.9177  1.3106 -0.4288
11363SOL     OW38626   7.601   6.049   5.817  0.3071 -0.4272  0.0842
11363SOL    HW138627   7.567   6.011   5.731 -0.4585 -0.7818  0.5414
11363SOL    HW238628   7.529   6.045   5.886  0.5344  0.9225  0.4248
11365SOL     OW38629   3.422   1.282   3.074 -0.6350 -0.4212 -0.2385
11365SOL    HW138630   3.359   1.270   3.150  0.2152  2.2274  0.9337
11365SOL    HW238631   3.488   1.206   3.074 -1.9031 -1.5572  0.3726
11366SOL     OW38632   0.780   8.807   5.384  0.8950 -0.8994 -0.1110
11366SOL    HW138633   0.760   8.711   5.402  0.8946 -0.4219  2.5118
11366SOL    HW238634   0.706   8.864   5.420 -0.9164 -0.0263 -4.7305
11367SOL     OW38635   9.004   3.530   0.465 -0.4088  0.0971 -0.4265
11367SOL    HW138636   9.103   3.541   0.457 -0.3563  0.1760  0.2882
11367SOL    HW238637   8.970   3.588   0.539 -0.8644 -0.5768 -0.1018
11368SOL     OW38638   1.195   7.799   2.888  0.6646 -0.3306  0.8313
11368SOL    HW138639   1.118   7.747   2.851 -0.0078  1.7540 -0.8338
11368SOL    HW238640   1.166   7.849   2.969  0.4956 -0.2534  0.7241
11369SOL     OW38641   5.782   3.509   0.390  0.5234 -0.3803 -0.2536
11369SOL    HW138642   5.696   3.539   0.350 -0.6566 -1.7723  1.1495
11369SOL    HW238643   5.835   3.460   0.322 -0.2851 -0.4395 -0.8508
11371SOL     OW38644   1.705   2.750   0.244  0.3424 -0.0283 -0.5608
11371SOL    HW138645   1.624   2.749   0.185 -0.5872 -0.5383  0.6971
11371SOL    HW238646   1.731   2.844   0.263 -1.0978  0.1601  0.5518
11372SOL     OW38647   8.674   7.584   1.722  0.0261  0.0437 -0.0324
11372SOL    HW138648   8.675   7.584   1.622  0.8309 -1.6735 -0.0324
11372SOL    HW238649   8.579   7.585   1.754 -0.2282  1.7682 -0.7900
11373SOL     OW38650   8.555   2.172   7.548 -0.1826  0.3844 -0.0685
11373SOL    HW138651   8.536   2.244   7.615  0.1507 -0.5409  1.0447
11373SOL    HW238652   8.527   2.084   7.586 -0.4916 -0.0865 -1.3824
11375SOL     OW38653   7.604   7.947   7.111  0.1685 -0.2687  0.0015
11375SOL    HW138654   7.673   7.874   7.115 -0.6673 -1.1322 -1.0944
11375SOL    HW238655   7.541   7.929   7.036 -1.6184  0.1981  1.3518
11377SOL     OW38656   3.475   7.181   1.178 -0.2037 -0.0874  0.3624
11377SOL    HW138657   3.498   7.132   1.094  0.2836  0.0244  0.4338
11377SOL    HW238658   3.506   7.129   1.257  0.6527  0.5211  0.4254
11378SOL     OW38659   0.823   1.256   5.207 -0.1745  0.2756  0.1475
11378SOL    HW138660   0.812   1.302   5.120 -0.0348 -0.2663 -0.1586
11378SOL    HW238661   0.781   1.311   5.280 -1.4207  0.1201 -0.4428
11379SOL     OW38662   8.711   2.287   5.730 -0.2417  0.0935  0.6168
11379SOL    HW138663   8.630   2.271   5.787 -0.7903  1.2291  0.1868
11379SOL    HW238664   8.766   2.360   5.772  1.1380 -1.4195  1.4837
11380SOL     OW38665   0.023   3.582   5.557  0.0737 -0.0411 -0.0657
11380SOL    HW138666   0.009   3.519   5.634  1.0688 -0.6759 -0.3904
11380SOL    HW238667   0.017   3.531   5.472  3.1733 -0.1605 -0.2581
11381SOL     OW38668   7.146   5.072   6.750 -0.2284  0.0298 -0.4544
11381SOL    HW138669   7.047   5.079   6.741 -0.1713 -0.4997 -1.4861
11381SOL    HW238670   7.171   4.980   6.780  0.0066 -0.1021 -1.0437
11382SOL     OW38671   0.629   7.207   5.019 -0.2198 -0.2286 -0.3471
11382SOL    HW138672   0.718   7.224   4.976 -0.6785  0.3701 -1.0636
11382SOL    HW238673   0.584   7.131   4.971  0.3265 -1.1948  0.6460
11383SOL     OW38674   1.104   2.507   4.263 -0.0733 -0.3103 -0.3997
11383SOL    HW138675   1.172   2.518   4.190  0.1503  0.9554 -0.0181
11383SOL    HW238676   1.043   2.586   4.263  1.5333  1.0131  2.4271
11384SOL     OW38677   7.194   0.355   2.881 -0.0131  0.2857 -0.4383
11384SOL    HW138678   7.123   0.348   2.950 -1.3914  1.0546 -1.7435
11384SOL    HW238679   7.264   0.419   2.911 -0.1281 -0.0843  0.6287
11385SOL     OW38680   4.504   1.726   4.267  0.0867  0.5979 -0.5162
11385SOL    HW138681   4.414   1.769   4.273  0.2476  0.9460 -0.5761
11385SOL    HW238682   4.540   1.737   4.174 -0.1502 -0.2292 -0.7045
11386SOL     OW38683   0.545   3.864   3.715  0.2594 -0.0426 -0.2113
11386SOL    HW138684   0.465   3.922   3.727  1.9072  2.0641  1.1179
11386SOL    HW238685   0.613   3.887   3.785  2.4559 -1.0121 -1.9695
11387SOL     OW38686   9.680   7.295   5.470  0.6992  0.0889 -0.0956
11387SOL    HW138687   9.653   7.233   5.396  3.0867 -2.4795  1.0797
11387SOL    HW238688   9.637   7.266   5.555 -0.8075  2.1095 -0.1391
11388SOL     OW38689   3.499   7.552   6.364 -0.2751 -0.0542 -0.1660
11388SOL    HW138690   3.550   7.562   6.279 -1.0989  0.3451 -0.6211
11388SOL    HW238691   3.403   7.533   6.343 -0.8415  1.7967  0.6609
11389SOL     OW38692   1.291   6.727   4.378  0.1886 -0.4093  0.0973
11389SOL    HW138693   1.255   6.646   4.331  0.4741 -0.2945 -0.3189
11389SOL    HW238694   1.377   6.703   4.423  0.5902 -0.1763 -0.5458
11390SOL     OW38695   7.860   4.768   4.056  0.2094  0.3649  0.0280
11390SOL    HW138696   7.771   4.812   4.067 -0.4446 -0.3380 -2.1937
11390SOL    HW238697   7.919   4.827   4.002 -0.0073 -0.5835 -1.2637
11391SOL     OW38698   4.549   5.300   2.059 -0.0447  0.0450  0.4199
11391SOL    HW138699   4.456   5.264   2.052 -0.0229 -0.3471  2.1584
11391SOL    HW238700   4.614   5.226   2.048  0.1510  0.5960 -2.8236
11392SOL     OW38701   8.606   7.226   4.518  0.2399  0.2845  0.2322
11392SOL    HW138702   8.585   7.220   4.420 -2.6690 -1.3479  0.9020
11392SOL    HW238703   8.576   7.315   4.553  0.3351  0.4651 -0.1388
11393SOL     OW38704   2.010   6.802   5.883 -0.2670 -0.8996 -0.3722
11393SOL    HW138705   2.021   6.870   5.810 -0.4643 -1.7046 -1.1642
11393SOL    HW238706   2.019   6.846   5.972  0.1215  0.0723 -0.8880
11394SOL     OW38707   9.681   8.662   7.701  0.4541 -0.5850 -0.1070
11394SOL    HW138708   9.728   8.731   7.646  0.2864 -0.4032 -0.0286
11394SOL    HW238709   9.589   8.649   7.666  0.5292 -0.8591 -0.1944
11396SOL     OW38710   4.464   0.643   6.875  0.5304 -0.3052  0.2731
11396SOL    HW138711   4.514   0.617   6.792 -0.7151 -0.3526 -0.4621
11396SOL    HW238712   4.478   0.573   6.945  2.1497  0.0757  0.3478
11397SOL     OW38713   8.319   1.554   5.651  0.2213  0.4009  0.0198
11397SOL    HW138714   8.370   1.473   5.623  0.1747  0.1628  0.6131
11397SOL    HW238715   8.221   1.539   5.632 -0.0038 -0.3574  1.6254
11398SOL     OW38716   8.532   0.807   3.616  0.0104  0.0289  0.1719
11398SOL    HW138717   8.509   0.827   3.711 -0.7508  0.2008 -0.0475
11398SOL    HW238718   8.588   0.725   3.612  2.5879  1.6727  1.0296
11399SOL     OW38719   1.882   6.787   3.524  0.3569  0.1762  0.5007
11399SOL    HW138720   1.867   6.779   3.623 -1.0657 -0.1307  0.2791
11399SOL    HW238721   1.804   6.746   3.476  2.6506 -2.8210 -0.7779
11400SOL     OW38722   3.341   1.303   2.244 -0.6154  0.1180  0.0544
11400SOL    HW138723   3.411   1.236   2.218  2.1900  2.2205  1.8512
11400SOL    HW238724   3.334   1.373   2.173  0.6671  1.0546  0.8341
11402SOL     OW38725   5.859   7.625   3.946  0.2944 -0.2201  0.8317
11402SOL    HW138726   5.885   7.601   3.852 -1.6117  1.5933 -0.2080
11402SOL    HW238727   5.774   7.578   3.970  0.4975 -0.2701  1.4635
11403SOL     OW38728   2.310   8.956   1.821  0.0639 -0.5800  0.5096
11403SOL    HW138729   2.248   8.934   1.746 -0.9332  2.3029  0.4330
11403SOL    HW238730   2.275   8.916   1.905 -0.2065 -1.6240 -0.0814
11404SOL     OW38731   4.202   1.766   4.074  0.2235 -0.0025 -0.3507
11404SOL    HW138732   4.194   1.667   4.081  0.1430 -0.0362 -0.8821
11404SOL    HW238733   4.245   1.803   4.156 -1.4032 -0.2922  0.6327
11405SOL     OW38734   1.085   7.160   3.597  0.2616 -0.1221 -0.2448
11405SOL    HW138735   1.030   7.078   3.609  0.2510  0.0321  0.8558
11405SOL    HW238736   1.142   7.151   3.515  0.2443 -1.2118 -0.1425
11406SOL     OW38737   3.266   9.920   7.529 -0.1818  0.2635  0.4625
11406SOL    HW138738   3.269   9.973   7.444  0.1454  2.0886  1.5641
11406SOL    HW238739   3.191   9.955   7.586 -0.0082 -0.5261  1.1784
11407SOL     OW38740   1.834   6.747   5.495 -0.0907  0.4720 -0.1155
11407SOL    HW138741   1.855   6.805   5.416 -0.4194 -2.2513 -2.2926
11407SOL    HW238742   1.918   6.726   5.544  0.1831  1.8417  0.0212
11408SOL     OW38743   8.184   8.565   4.027  0.5477  0.1722  0.4294
11408SOL    HW138744   8.188   8.498   3.952  2.2934 -0.1259  0.7738
11408SOL    HW238745   8.100   8.551   4.079  0.9933 -1.9084  0.6242
11410SOL     OW38746   1.079   1.387   4.348 -0.1511  0.1764 -0.0223
11410SOL    HW138747   1.173   1.372   4.318  0.7629  1.5588  2.0424
11410SOL    HW238748   1.058   1.325   4.424 -0.8516  0.0348 -0.3269
11412SOL     OW38749   4.564   3.716   0.596 -0.7242 -0.3096  0.5827
11412SOL    HW138750   4.560   3.665   0.682  1.4329 -2.0129 -0.2714
11412SOL    HW238751   4.618   3.799   0.610 -0.2442 -0.6596  0.8688
11413SOL     OW38752   0.970   2.527   6.365  0.3080  0.1892 -0.3589
11413SOL    HW138753   1.062   2.505   6.332 -0.3539  0.1025 -2.1713
11413SOL    HW238754   0.923   2.442   6.389  0.0264  0.0783 -1.2733
11414SOL     OW38755   4.321   1.454   0.881  0.1057 -0.5809 -0.6852
11414SOL    HW138756   4.314   1.364   0.923  1.9322 -0.2730  0.3189
11414SOL    HW238757   4.286   1.523   0.944  1.4255 -0.2838 -0.2645
11416SOL     OW38758   1.509   1.221   1.473  0.6299 -0.2825 -0.1505
11416SOL    HW138759   1.577   1.186   1.408  0.4886  0.2202 -0.5770
11416SOL    HW238760   1.475   1.146   1.530 -0.3905 -1.0143 -1.7047
11419SOL     OW38761   6.406   8.702   7.688  0.4394  0.3695 -0.4942
11419SOL    HW138762   6.341   8.731   7.617 -1.0866 -0.7115  0.4416
11419SOL    HW238763   6.451   8.618   7.659 -0.2128 -0.0942 -0.1766
11420SOL     OW38764   1.891   4.939   7.764  0.3509 -0.1480  0.0855
11420SOL    HW138765   1.945   5.003   7.709  0.8097  0.1067  0.8239
11420SOL    HW238766   1.847   4.988   7.839  0.3083 -0.6125  0.3660
11421SOL     OW38767   1.392   1.295   5.581  0.5959 -0.2337  0.1894
11421SOL    HW138768   1.341   1.302   5.495  1.8208 -1.7874 -0.6819
11421SOL    HW238769   1.390   1.200   5.613  3.0871 -0.3416  0.0568
11422SOL     OW38770   0.722   1.335   0.262  0.0556 -0.4079  0.4928
11422SOL    HW138771   0.704   1.420   0.310  0.2591  0.0236 -0.1834
11422SOL    HW238772   0.812   1.340   0.217 -0.6107 -0.3551 -0.8705
11423SOL     OW38773   3.606   4.954   3.919  0.0356 -0.3145 -0.4035
11423SOL    HW138774   3.639   4.970   4.012  0.6102 -0.0939 -0.6458
11423SOL    HW238775   3.604   5.041   3.869 -0.6789 -0.3635 -0.4659
11424SOL     OW38776   2.141   7.487   2.268  0.5062  0.4267 -0.2215
11424SOL    HW138777   2.209   7.555   2.238 -0.4126  1.1082 -0.7913
11424SOL    HW238778   2.108   7.436   2.189  1.2888 -0.8022  0.2239
11425SOL     OW38779   7.451   2.712   3.756  0.2559  0.8365  0.0467
11425SOL    HW138780   7.413   2.800   3.729 -2.1355 -0.1958 -0.0874
11425SOL    HW238781   7.473   2.658   3.675  2.3496  1.5390  0.1188
11426SOL     OW38782   4.317   3.562   6.165  0.3150  0.1896 -0.8079
11426SOL    HW138783   4.408   3.522   6.159  0.1502 -0.3701  0.3778
11426SOL    HW238784   4.284   3.558   6.259 -1.3652 -0.5436 -1.4034
11427SOL     OW38785   5.227   0.267   2.360  0.4807  0.3073 -0.0022
11427SOL    HW138786   5.153   0.310   2.309  1.1866  1.1261 -0.3697
11427SOL    HW238787   5.312   0.317   2.342  0.8925  0.1073  1.3248
11428SOL     OW38788   7.129   8.981   2.172 -0.6051 -0.5941  0.0780
11428SOL    HW138789   7.201   9.008   2.236 -1.9783 -0.2055  1.4889
11428SOL    HW238790   7.142   9.027   2.085 -0.3348  1.1022  1.0016
11429SOL     OW38791   8.147   6.967   1.270 -0.4573 -0.2503 -0.2038
11429SOL    HW138792   8.212   7.041   1.253 -1.9184  0.9040 -0.9106
11429SOL    HW238793   8.194   6.879   1.264  1.3676  0.6122  0.9511
11430SOL     OW38794   9.617   1.775   4.047  0.4616  0.6514 -0.2969
11430SOL    HW138795   9.693   1.793   3.984  0.1546  0.2220 -0.7899
11430SOL    HW238796   9.591   1.679   4.041  0.1385  0.7116  0.1629
11431SOL     OW38797   0.569   7.666   3.135 -0.4104  0.2203  0.0665
11431SOL    HW138798   0.557   7.731   3.060 -0.4944  1.0050  0.7573
11431SOL    HW238799   0.557   7.713   3.222  1.0032 -0.4126  0.6109
11432SOL     OW38800   7.826   4.507   4.019  0.3230  0.0527  0.9667
11432SOL    HW138801   7.826   4.607   4.019  0.5944  0.0591  2.2377
11432SOL    HW238802   7.902   4.473   3.963  1.6838  0.5652  2.4825
11434SOL     OW38803   4.495   3.193   2.697 -0.2355 -0.3693  0.1959
11434SOL    HW138804   4.557   3.224   2.625  0.6933 -1.7383  0.3935
11434SOL    HW238805   4.514   3.243   2.781  0.2582 -0.4319  0.1222
11435SOL     OW38806   1.549   2.215   3.226 -0.6462 -0.8270 -0.1761
11435SOL    HW138807   1.557   2.247   3.320  1.2939 -1.6446 -0.0492
11435SOL    HW238808   1.614   2.264   3.168  0.2531 -2.4110 -0.5305
11436SOL     OW38809   7.213   1.519   6.228 -0.2963 -0.3308 -0.1177
11436SOL    HW138810   7.263   1.600   6.198 -0.5706  0.3242  1.1652
11436SOL    HW238811   7.136   1.546   6.287 -0.9997 -1.4536 -0.4876
11437SOL     OW38812   2.878   9.037   6.282  0.5162 -0.0202 -0.8379
11437SOL    HW138813   2.937   9.095   6.339  0.2836 -0.3516 -0.2541
11437SOL    HW238814   2.928   8.956   6.253 -0.3102 -1.4684  1.5680
11438SOL     OW38815   7.445   4.680   2.944 -0.0009 -0.3759  0.5168
11438SOL    HW138816   7.443   4.719   2.852  0.2677 -0.4737  0.4677
11438SOL    HW238817   7.397   4.741   3.007  0.6505  0.1744  0.4921
11440SOL     OW38818   0.531   1.889   4.494 -0.0249  0.4167 -0.1473
11440SOL    HW138819   0.506   1.835   4.414 -0.7624 -0.7173  0.8444
11440SOL    HW238820   0.574   1.830   4.562 -1.5560  0.9118  1.2758
11442SOL     OW38821   1.288   1.308   5.329  0.6940 -0.5970  0.1666
11442SOL    HW138822   1.206   1.366   5.328  0.5639 -0.7285  1.6551
11442SOL    HW238823   1.329   1.307   5.238 -1.3039 -1.0230 -0.7600
11443SOL     OW38824   6.611   7.788   5.165 -0.6728 -0.1877 -0.3262
11443SOL    HW138825   6.538   7.759   5.226 -0.4334 -0.7359 -0.2878
11443SOL    HW238826   6.597   7.883   5.137 -0.6869  0.1206  0.7164
11444SOL     OW38827   1.269   7.765   4.993 -0.1628 -0.0046 -0.0091
11444SOL    HW138828   1.266   7.862   4.969  1.1689  0.0226 -0.1323
11444SOL    HW238829   1.188   7.719   4.957 -0.1643  0.8082 -1.0832
11445SOL     OW38830   5.231   0.968   7.747 -0.0342  0.0835  0.3913
11445SOL    HW138831   5.268   0.891   7.799 -0.2900  1.6068  2.8895
11445SOL    HW238832   5.299   1.042   7.744 -0.6616  0.6463 -0.0310
11446SOL     OW38833   3.258   6.351   7.088 -0.3561  0.6458  0.1580
11446SOL    HW138834   3.286   6.307   7.003  0.4832 -2.8590  2.1416
11446SOL    HW238835   3.318   6.428   7.108 -0.0343  0.9631 -1.9407
11448SOL     OW38836   9.029   3.213   0.712  0.2169  0.2425  0.4393
11448SOL    HW138837   9.083   3.168   0.641  0.1827  0.4773  0.2651
11448SOL    HW238838   9.074   3.299   0.738 -0.5365  0.8647 -0.3238
11449SOL     OW38839   3.907   2.683   0.456 -0.2647 -0.7572  0.1872
11449SOL    HW138840   4.006   2.685   0.445 -0.1329  2.3089  1.3888
11449SOL    HW238841   3.885   2.653   0.549 -0.3672  0.2014  0.4831
11450SOL     OW38842   0.871   5.327   2.367  0.3712  0.4405  0.0265
11450SOL    HW138843   0.965   5.349   2.393 -0.1355  1.7590  0.7911
11450SOL    HW238844   0.808   5.363   2.436 -0.5968 -2.0725  0.4953
11451SOL     OW38845   0.953   6.204   0.279  0.0107 -0.2444 -0.2392
11451SOL    HW138846   0.982   6.257   0.359  0.9011 -1.1997  0.0773
11451SOL    HW238847   0.943   6.266   0.201  0.8870  0.4301  0.1624
11452SOL     OW38848   9.992   5.086   5.298  0.1210 -1.1434  0.0874
11452SOL    HW138849   9.969   5.179   5.327  0.4305 -0.7505 -0.8887
11452SOL    HW238850  10.017   5.031   5.378 -0.0551 -0.3888  0.6679
11454SOL     OW38851   7.584   2.015   4.810  0.7239 -0.0192  0.3516
11454SOL    HW138852   7.497   1.969   4.829 -0.3530  2.4713  1.5847
11454SOL    HW238853   7.653   1.946   4.788 -1.8970 -1.9794 -2.2174
11456SOL     OW38854   4.462   2.460   7.844  0.3406 -0.1950 -0.3102
11456SOL    HW138855   4.421   2.372   7.820 -0.9102  1.0071 -2.7868
11456SOL    HW238856   4.476   2.465   7.943 -0.7637 -2.6572 -0.0024
11457SOL     OW38857   8.073   2.605   4.742 -0.0735 -0.1651  0.5568
11457SOL    HW138858   8.090   2.592   4.839 -1.4971 -1.4917  0.6437
11457SOL    HW238859   8.040   2.519   4.702 -0.6805  0.6999 -0.8384
11458SOL     OW38860   6.491   8.632   5.036 -0.7090  0.2728 -0.2145
11458SOL    HW138861   6.392   8.631   5.054 -0.4078  2.2245  1.7345
11458SOL    HW238862   6.538   8.582   5.109 -0.2528 -0.8242 -1.2477
11459SOL     OW38863   9.681   6.787   7.751 -0.2916  0.4061  0.9356
11459SOL    HW138864   9.737   6.838   7.817  1.0367 -2.3422  2.0359
11459SOL    HW238865   9.690   6.689   7.769 -2.8139 -0.2513 -1.0652
11460SOL     OW38866   0.494   8.371   3.549  0.3903 -0.4079 -0.7679
11460SOL    HW138867   0.560   8.444   3.566  1.1983 -1.5956  1.3162
11460SOL    HW238868   0.414   8.409   3.501  0.6078  1.9294  0.6475
11462SOL     OW38869   3.870   9.092   4.631  0.0627 -0.0247  0.4975
11462SOL    HW138870   3.907   9.047   4.549 -0.5387 -1.4871  1.0223
11462SOL    HW238871   3.864   9.026   4.706 -2.0644  0.6044  0.9024
11463SOL     OW38872   7.207   8.020   3.656 -0.1239 -0.1590 -0.1723
11463SOL    HW138873   7.148   7.942   3.638 -1.2746  0.4736  0.7454
11463SOL    HW238874   7.207   8.082   3.577 -1.7687  0.5040  0.3248
11464SOL     OW38875   8.270   7.916   6.982  0.0847  0.6036 -0.0960
11464SOL    HW138876   8.200   7.848   6.959  1.4462 -0.5905 -0.8422
11464SOL    HW238877   8.356   7.869   7.004  1.0033  2.0727 -0.4414
11465SOL     OW38878   8.558   6.590   0.655  0.2037 -0.7932  0.2535
11465SOL    HW138879   8.468   6.633   0.654  1.9522  3.0653  0.9292
11465SOL    HW238880   8.603   6.607   0.567  0.7718 -1.6097  0.3877
11467SOL     OW38881   2.901   2.353   2.948  0.1430 -0.4944 -0.0371
11467SOL    HW138882   2.982   2.295   2.954  0.6218  0.1564 -0.1840
11467SOL    HW238883   2.841   2.335   3.027 -0.7782 -2.7705 -1.2039
11468SOL     OW38884   9.912   7.074   1.391  0.0728 -0.0447  0.1476
11468SOL    HW138885   9.965   7.048   1.471  2.0654 -2.7245 -1.9827
11468SOL    HW238886   9.948   7.159   1.353  0.3518  0.2001  0.9595
11469SOL     OW38887   1.555   7.475   3.036 -0.7711  0.2187 -0.3582
11469SOL    HW138888   1.506   7.417   2.971  0.2073 -0.8226 -0.1960
11469SOL    HW238889   1.576   7.423   3.119  1.7278  0.1903 -0.9471
11471SOL     OW38890   0.974   3.394   1.492 -0.4053 -0.1162  0.1818
11471SOL    HW138891   0.912   3.318   1.471 -0.7801  0.7991 -2.2424
11471SOL    HW238892   0.920   3.474   1.517 -0.1815  0.3686 -0.8536
11472SOL     OW38893   4.436   6.077   7.948 -0.2414 -0.4319  0.2079
11472SOL    HW138894   4.398   5.986   7.929 -1.0671 -0.0784  0.1441
11472SOL    HW238895   4.362   6.138   7.978  0.3539  0.1476  0.5030
11475SOL     OW38896   2.303   0.297   1.483 -0.3025 -0.0106  0.0746
11475SOL    HW138897   2.213   0.253   1.482 -0.5008  0.4110 -0.6831
11475SOL    HW238898   2.301   0.374   1.546 -0.7577  0.5883 -0.6643
11476SOL     OW38899   7.840   2.692   0.901  0.6180 -0.3399 -0.4770
11476SOL    HW138900   7.807   2.723   0.811 -0.0267 -0.4838 -0.2901
11476SOL    HW238901   7.938   2.713   0.909  0.4508  0.6009 -0.8138
11477SOL     OW38902   6.672   5.226   7.858 -0.0195 -0.2974 -0.1264
11477SOL    HW138903   6.745   5.249   7.923  0.2524 -3.7765  0.8745
11477SOL    HW238904   6.662   5.127   7.852 -0.2439 -0.1020 -5.2087
11478SOL     OW38905   0.029   9.118   6.209 -0.6887 -1.0230  0.2630
11478SOL    HW138906   0.034   9.018   6.211 -1.2254 -1.0408  0.9293
11478SOL    HW238907  -0.052   9.145   6.156  0.6147 -0.9002 -1.7230
11480SOL     OW38908   8.243   5.408   3.220  0.2820  0.2114 -0.4154
11480SOL    HW138909   8.196   5.429   3.134  3.2881  0.5251 -2.0518
11480SOL    HW238910   8.232   5.310   3.240 -0.6758  0.1910 -0.9906
11481SOL     OW38911   6.206   2.163   3.653 -0.6636 -0.3535 -0.1245
11481SOL    HW138912   6.169   2.235   3.713 -0.9174 -0.2284 -0.4297
11481SOL    HW238913   6.253   2.205   3.576 -0.1462 -0.5144  0.0971
11483SOL     OW38914   0.169   0.281   4.617  0.3022  0.3577  0.2038
11483SOL    HW138915   0.096   0.274   4.549 -0.1586  1.2993  0.5859
11483SOL    HW238916   0.164   0.203   4.680 -0.6410  0.6396  0.4803
11484SOL     OW38917   9.365   5.689   5.493 -0.2762  0.0666 -0.0506
11484SOL    HW138918   9.385   5.667   5.397 -0.4157  0.0441 -0.0736
11484SOL    HW238919   9.304   5.620   5.532 -0.6559  0.3688 -0.1017
11485SOL     OW38920   9.546   9.918   5.527  0.7624 -0.2113 -0.9461
11485SOL    HW138921   9.498   9.897   5.441 -0.3367 -0.2139 -0.3349
11485SOL    HW238922   9.516  10.006   5.561  0.6369 -0.5588 -0.1562
11486SOL     OW38923   5.734   9.816   1.467 -0.7212 -0.0035 -0.5292
11486SOL    HW138924   5.810   9.882   1.469  0.2381 -1.0120 -2.3519
11486SOL    HW238925   5.759   9.735   1.520 -1.8736  1.0323  1.6552
11487SOL     OW38926   8.513   4.845   3.066 -0.3646  0.2555 -0.4131
11487SOL    HW138927   8.587   4.906   3.094 -0.3148  0.2057 -0.4366
11487SOL    HW238928   8.546   4.784   2.993 -0.6388  0.7222 -0.9290
11488SOL     OW38929   2.655   7.873   4.643  0.3012 -0.6189  0.1732
11488SOL    HW138930   2.754   7.878   4.633  0.2120  0.1178 -0.3745
11488SOL    HW238931   2.621   7.960   4.680 -0.1563 -0.8160  0.2157
11489SOL     OW38932   6.913   7.843   2.438 -0.0097  0.4504  0.3486
11489SOL    HW138933   6.993   7.795   2.473  0.0704  0.1055 -0.3040
11489SOL    HW238934   6.942   7.917   2.377 -0.2072 -0.0329 -0.3332
11490SOL     OW38935   0.637   8.681   6.496  0.0396  0.3758  0.7102
11490SOL    HW138936   0.705   8.724   6.555  0.7191 -0.8706  0.8671
11490SOL    HW238937   0.597   8.602   6.543 -0.5329  0.2896  0.0962
11491SOL     OW38938   4.190   4.691   1.485  0.0242 -0.0398 -0.5996
11491SOL    HW138939   4.138   4.606   1.474  0.6656 -0.5473  0.2268
11491SOL    HW238940   4.150   4.745   1.559  1.7953 -1.3237  1.3622
11492SOL     OW38941   4.319   1.135   0.105  0.1521  0.3486 -0.4122
11492SOL    HW138942   4.279   1.221   0.135  1.8209  1.4907 -1.4076
11492SOL    HW238943   4.379   1.099   0.177 -1.3389 -0.5458  0.4230
11493SOL     OW38944   0.709   2.866   7.718 -0.2542 -0.3106 -0.0246
11493SOL    HW138945   0.684   2.960   7.692 -0.8393 -0.4629 -0.0277
11493SOL    HW238946   0.763   2.869   7.802 -0.4025  0.0235  0.0610
11495SOL     OW38947   6.465   1.600   4.597 -0.0806  0.3191  0.8697
11495SOL    HW138948   6.381   1.648   4.574  0.3715  0.3802 -0.6838
11495SOL    HW238949   6.542   1.664   4.593  0.1750  0.0408  1.3186
11496SOL     OW38950   1.022   2.082   0.378 -0.1554 -0.3604  0.0838
11496SOL    HW138951   1.075   2.123   0.304  1.4089  0.6590  1.7289
11496SOL    HW238952   0.985   2.153   0.437 -2.9210 -1.0875 -0.6839
11497SOL     OW38953   9.847   9.690   1.964 -0.1696 -0.1647 -0.1811
11497SOL    HW138954   9.943   9.666   1.976  0.1680  1.1191 -0.2472
11497SOL    HW238955   9.811   9.647   1.882  0.7211  0.4264 -0.8851
11499SOL     OW38956   4.429   3.024   7.681  0.2147 -0.4186 -0.2473
11499SOL    HW138957   4.452   3.118   7.706  0.1508  0.1930 -2.3370
11499SOL    HW238958   4.386   2.977   7.758 -2.5456  2.2202 -0.1144
11500SOL     OW38959   7.293   0.972   5.619 -0.5516  0.7093 -0.1210
11500SOL    HW138960   7.361   0.904   5.646 -0.1478  1.1360 -0.0654
11500SOL    HW238961   7.339   1.054   5.585 -1.0277  0.2821 -1.8856
11501SOL     OW38962   3.788   0.850   5.066 -0.0878 -0.1310 -0.3714
11501SOL    HW138963   3.798   0.950   5.066 -0.3833 -0.0942  0.5025
11501SOL    HW238964   3.759   0.820   5.157  1.3227 -1.1438 -0.2392
11502SOL     OW38965   9.455   2.414   7.740 -0.2216  0.2875  0.0390
11502SOL    HW138966   9.470   2.499   7.790  2.4747 -0.3334  0.3647
11502SOL    HW238967   9.477   2.336   7.798  0.7701 -0.5051 -1.3487
11503SOL     OW38968   4.629   4.296   6.287  0.5420 -0.4440 -0.0653
11503SOL    HW138969   4.633   4.395   6.298  0.4935 -0.3624 -0.7527
11503SOL    HW238970   4.577   4.256   6.362 -0.2282  0.1375 -0.2863
11504SOL     OW38971   3.505   2.523   7.027  0.6277 -0.1411  0.2562
11504SOL    HW138972   3.423   2.475   7.059 -0.3566  0.6209 -1.0533
11504SOL    HW238973   3.535   2.588   7.096  0.8491 -1.2829  1.2468
11505SOL     OW38974   6.678   5.883   0.539 -0.0469  0.4020 -0.3357
11505SOL    HW138975   6.767   5.857   0.575  0.0327  0.9905 -0.1044
11505SOL    HW238976   6.633   5.803   0.500  0.9646  0.2700 -1.2662
11507SOL     OW38977   5.968   9.262   2.063  0.7124  0.2367  0.0144
11507SOL    HW138978   5.910   9.186   2.093  1.3058 -1.3072 -2.6148
11507SOL    HW238979   6.064   9.241   2.085  0.6182  1.5245  1.8069
11508SOL     OW38980   8.278   9.974   1.839 -0.0358  0.1461  0.4621
11508SOL    HW138981   8.223   9.900   1.801 -1.4123  1.2367  0.2742
11508SOL    HW238982   8.348   9.937   1.900 -1.2433 -1.2468  1.0164
11509SOL     OW38983   3.342   4.481   0.083 -0.2252  0.3021 -0.4675
11509SOL    HW138984   3.341   4.480  -0.017 -0.2216  1.7592 -0.4982
11509SOL    HW238985   3.415   4.421   0.117  0.7606  0.9717 -1.3726
11511SOL     OW38986   5.697   9.285   6.406  0.4957  0.1541  0.0688
11511SOL    HW138987   5.702   9.186   6.390  0.8741 -0.0571  1.4623
11511SOL    HW238988   5.787   9.326   6.393  0.0780  0.5173 -1.7528
11512SOL     OW38989   5.593   7.584   4.030  0.3164  0.0212  0.6645
11512SOL    HW138990   5.545   7.497   4.042 -0.2443  0.3210  0.6122
11512SOL    HW238991   5.595   7.634   4.117 -1.2390  0.9084  0.2094
11513SOL     OW38992   0.975   8.525   0.655 -0.3715 -0.1376 -0.1390
11513SOL    HW138993   1.066   8.564   0.646 -0.4812  0.0283 -0.5448
11513SOL    HW238994   0.964   8.450   0.590 -1.0673  0.8817 -1.2306
11514SOL     OW38995   6.819   8.916   2.415 -0.2596  0.1646 -0.0230
11514SOL    HW138996   6.791   8.903   2.320 -1.0290  0.5010  0.1526
11514SOL    HW238997   6.739   8.940   2.470  0.0030 -0.9921  0.8866
11515SOL     OW38998   8.484   8.884   2.058 -0.2161 -0.9111  0.1364
11515SOL    HW138999   8.428   8.903   1.978  0.9525  2.0215 -0.0725
11515SOL    HW239000   8.575   8.854   2.028 -0.5445 -2.1786  0.4077
11516SOL     OW39001   9.733   7.102   2.633  0.1196  0.4762 -1.1654
11516SOL    HW139002   9.702   7.077   2.725  0.5378  0.8431 -0.9246
11516SOL    HW239003   9.682   7.048   2.565  1.0019 -1.0145 -0.6599
11517SOL     OW39004   8.135   9.132   1.768 -0.0250 -0.3512  0.2878
11517SOL    HW139005   8.195   9.174   1.837  0.2719 -0.6459  0.2124
11517SOL    HW239006   8.152   9.175   1.680 -1.5242  1.1047  0.6970
11519SOL     OW39007   3.160   6.254   5.544 -0.0879  0.0829 -0.3726
11519SOL    HW139008   3.148   6.343   5.500 -2.1050  0.7641  1.5061
11519SOL    HW239009   3.252   6.248   5.583 -0.6838  2.2991  1.4855
11520SOL     OW39010   4.201   2.635   4.285 -0.1508 -0.2715 -0.0723
11520SOL    HW139011   4.166   2.608   4.196  1.2553  0.7584 -0.9561
11520SOL    HW239012   4.287   2.587   4.303 -1.5532 -2.1879  1.7318
11522SOL     OW39013   8.920   5.842   7.153 -0.1722  0.2414  0.2828
11522SOL    HW139014   8.867   5.924   7.171 -1.2062 -0.2507 -0.4535
11522SOL    HW239015   8.859   5.763   7.149  0.4673 -0.1930 -1.6068
11524SOL     OW39016   7.029   9.850   2.425 -0.1983 -0.1358  0.0950
11524SOL    HW139017   7.127   9.859   2.410 -0.4153  1.9369 -0.2607
11524SOL    HW239018   6.998   9.925   2.484 -1.0985 -2.3398  2.4894
11525SOL     OW39019   4.322   1.040   7.345 -0.3641  0.2157 -0.3837
11525SOL    HW139020   4.297   1.104   7.272 -1.5915  0.2655  0.0687
11525SOL    HW239021   4.396   1.080   7.400  0.7124  0.0829 -1.7112
11526SOL     OW39022   5.352   0.331   4.377 -0.7034 -0.2947  0.1063
11526SOL    HW139023   5.325   0.346   4.282  1.1687  2.3036 -0.0652
11526SOL    HW239024   5.321   0.241   4.407 -0.4307 -1.5672 -3.2682
11527SOL     OW39025   0.661   2.108   5.404 -0.3500 -0.0054  0.2060
11527SOL    HW139026   0.735   2.065   5.352  0.3012  0.1043  1.0227
11527SOL    HW239027   0.700   2.175   5.467 -1.2120  0.5306  0.1661
11528SOL     OW39028   0.653   6.644   6.800  0.1459  0.4400  0.0896
11528SOL    HW139029   0.618   6.730   6.837  1.6940  0.4922  1.4901
11528SOL    HW239030   0.614   6.568   6.851 -1.3370  0.2762 -1.2442
11529SOL     OW39031   9.046   2.005   7.364  0.1034  0.3033 -0.4679
11529SOL    HW139032   9.130   1.990   7.416  0.3510 -0.5997 -1.1102
11529SOL    HW239033   9.050   1.954   7.278 -1.2427 -0.0443 -0.3479
11533SOL     OW39034   0.387   7.923   6.818 -0.4388  0.2541 -0.1844
11533SOL    HW139035   0.300   7.970   6.806 -0.7457 -0.5501 -1.2017
11533SOL    HW239036   0.379   7.830   6.781  0.8263  0.1539 -0.2025
11534SOL     OW39037   9.715   0.747   4.480 -0.5677  0.4133  0.1670
11534SOL    HW139038   9.759   0.798   4.406  0.1811  1.4909  1.3311
11534SOL    HW239039   9.616   0.750   4.467 -0.4844  1.2585 -0.3767
11537SOL     OW39040   5.140   8.281   5.125 -0.1257 -0.2283  0.3234
11537SOL    HW139041   5.188   8.359   5.167 -0.4676 -0.4855  1.2138
11537SOL    HW239042   5.088   8.312   5.046  3.0198 -0.2556 -1.8590
11538SOL     OW39043   0.366   2.179   2.728 -0.1200 -0.1485  0.3073
11538SOL    HW139044   0.373   2.189   2.628  0.9874  2.9252  0.6472
11538SOL    HW239045   0.291   2.236   2.761 -0.7876 -1.5274  1.2125
11540SOL     OW39046   0.408   1.608   2.348 -0.0566  0.7222 -0.0043
11540SOL    HW139047   0.404   1.704   2.319  2.9429  0.5719 -1.1638
11540SOL    HW239048   0.370   1.550   2.276  1.3690  0.8366 -0.8897
11541SOL     OW39049   9.392   2.605   6.485  0.0839 -0.5804 -0.1785
11541SOL    HW139050   9.314   2.641   6.537 -0.3079 -1.8347  0.1268
11541SOL    HW239051   9.477   2.625   6.535 -0.3949 -2.9482  1.6759
11542SOL     OW39052   3.727   5.834   2.446  0.1712  0.6386  0.1225
11542SOL    HW139053   3.738   5.814   2.543  0.3284  0.3245  0.0406
11542SOL    HW239054   3.692   5.752   2.398 -1.0725  1.1515  0.1174
11544SOL     OW39055   8.961   8.270   6.740 -0.0938  0.8865  0.2542
11544SOL    HW139056   8.982   8.227   6.652  0.8210 -0.5803  1.1667
11544SOL    HW239057   8.889   8.338   6.728 -2.1647 -1.4988 -1.0828
11545SOL     OW39058   3.543   2.456   1.665 -0.2198 -0.2459  0.3674
11545SOL    HW139059   3.551   2.407   1.578 -3.6557  1.2730 -0.9196
11545SOL    HW239060   3.519   2.551   1.647  0.3245  0.4158  2.9749
11546SOL     OW39061   2.571   2.762   0.466 -0.3023 -0.0090  0.7632
11546SOL    HW139062   2.596   2.761   0.369 -0.5557 -1.1107  0.7053
11546SOL    HW239063   2.654   2.756   0.522 -0.2265 -0.5094  0.5992
11547SOL     OW39064   9.738   4.471   5.491  0.1257 -0.2999 -0.1419
11547SOL    HW139065   9.695   4.391   5.534 -0.6565 -0.1894 -0.7145
11547SOL    HW239066   9.819   4.498   5.544  0.4031 -1.4786  0.0480
11548SOL     OW39067   7.673   2.665   0.226 -0.5003 -0.1334  0.2148
11548SOL    HW139068   7.721   2.577   0.222 -1.1812 -0.4861 -0.2365
11548SOL    HW239069   7.637   2.688   0.136 -0.8248  0.3357  0.4620
11549SOL     OW39070   3.001   1.916   5.566 -0.4456 -0.3194 -0.3984
11549SOL    HW139071   3.061   1.972   5.509  0.1909  0.9393  1.4853
11549SOL    HW239072   2.997   1.954   5.658 -0.5309 -3.0063  0.7442
11550SOL     OW39073   1.163   5.492   7.752 -0.1440  0.2129  0.5203
11550SOL    HW139074   1.111   5.442   7.683 -0.1589  0.8902  0.0357
11550SOL    HW239075   1.100   5.529   7.821 -0.4525  2.0085 -0.6857
11552SOL     OW39076   1.376   9.304   4.732 -0.2954  0.3237  0.3768
11552SOL    HW139077   1.389   9.217   4.780 -0.9985  0.1389  0.2413
11552SOL    HW239078   1.278   9.323   4.724 -0.1700  0.5851 -0.5700
11553SOL     OW39079   5.662   3.668   0.649  0.6588  0.1675  0.4589
11553SOL    HW139080   5.601   3.736   0.690  1.2244  1.5205 -0.9073
11553SOL    HW239081   5.609   3.586   0.627 -0.2332  0.5215  1.2089
11554SOL     OW39082   5.221   8.405   1.502  0.0939 -0.5920  0.7144
11554SOL    HW139083   5.133   8.370   1.533  0.8693 -2.1093  1.2562
11554SOL    HW239084   5.270   8.333   1.452  0.8229  0.3905 -0.0227
11555SOL     OW39085   6.016   8.331   4.186 -0.2131  0.0664 -0.0908
11555SOL    HW139086   6.042   8.237   4.162 -1.0046  0.2467 -1.7666
11555SOL    HW239087   5.918   8.335   4.203 -0.4321  0.8467 -1.4552
11558SOL     OW39088   8.796   4.885   0.958  0.4364 -0.3950  0.8366
11558SOL    HW139089   8.807   4.977   0.920  2.4517 -0.4892  1.1415
11558SOL    HW239090   8.702   4.873   0.991 -0.4261  0.8010 -1.1565
11560SOL     OW39091   6.380   7.589   3.970 -0.6557  0.1024 -0.1561
11560SOL    HW139092   6.344   7.592   3.877 -0.9287  1.3739 -0.0227
11560SOL    HW239093   6.358   7.675   4.016 -2.0395 -1.1899  1.6486
11561SOL     OW39094   3.065   2.273   2.683 -0.0919 -0.0572  0.1878
11561SOL    HW139095   2.975   2.229   2.685 -0.1741  0.1243  0.3881
11561SOL    HW239096   3.108   2.268   2.773  0.5500 -1.0815 -0.1577
11562SOL     OW39097   0.813   5.317   2.074  0.0695  0.8909 -0.1520
11562SOL    HW139098   0.819   5.335   2.172 -1.0854  0.0688  0.0669
11562SOL    HW239099   0.826   5.220   2.056  2.1947  1.2812 -1.0035
11564SOL     OW39100   8.428   8.947   6.414 -0.7725 -0.5825 -0.0923
11564SOL    HW139101   8.501   9.014   6.405  0.6684 -2.2078 -0.8575
11564SOL    HW239102   8.394   8.945   6.508 -0.2849  0.6308  0.1082
11565SOL     OW39103   3.140   6.483   7.297 -0.3838  0.6878  0.2594
11565SOL    HW139104   3.200   6.508   7.373 -0.9452 -1.6128  1.4970
11565SOL    HW239105   3.195   6.446   7.222 -0.1411 -0.5047  1.0116
11567SOL     OW39106   4.239   4.141   0.928  0.0165 -0.0377  0.4379
11567SOL    HW139107   4.299   4.214   0.960  0.3716 -0.1284 -0.0322
11567SOL    HW239108   4.283   4.052   0.943 -0.7103 -0.2166  1.6842
11568SOL     OW39109   1.855   7.559   2.240  0.9397 -0.2464 -0.3648
11568SOL    HW139110   1.946   7.540   2.277  0.7232 -0.4984  0.0492
11568SOL    HW239111   1.862   7.581   2.143  1.3894 -0.7519 -0.4512
11569SOL     OW39112   8.566   1.246   7.246  0.0676  0.5404 -0.0673
11569SOL    HW139113   8.646   1.198   7.283  0.2129 -0.4839 -1.6999
11569SOL    HW239114   8.493   1.180   7.230  0.5188  0.7037 -3.0107
11570SOL     OW39115   2.424   0.857   2.285  0.1057 -0.0396  0.5671
11570SOL    HW139116   2.341   0.906   2.312  0.8638  0.9938  1.0723
11570SOL    HW239117   2.414   0.823   2.191 -0.2479  1.5657 -0.0001
11572SOL     OW39118   4.388   7.589   5.578 -0.4655 -0.1952  0.0413
11572SOL    HW139119   4.463   7.545   5.627 -2.3648 -1.2762  2.0699
11572SOL    HW239120   4.366   7.676   5.622 -0.6134 -0.0335 -0.3530
11573SOL     OW39121   7.118   3.391   0.157 -0.5648  0.4914  0.8212
11573SOL    HW139122   7.079   3.301   0.138  3.0860 -1.5600  2.5895
11573SOL    HW239123   7.121   3.406   0.255  2.3585  0.8733  0.7132
11575SOL     OW39124   6.511   2.609   1.723  0.0016 -0.1599  0.2057
11575SOL    HW139125   6.413   2.593   1.712 -0.2364  0.8341  0.8311
11575SOL    HW239126   6.543   2.669   1.650 -0.1674  0.7480  0.8689
11576SOL     OW39127   9.689   9.881   2.822 -0.0769  0.4943 -0.4158
11576SOL    HW139128   9.751   9.880   2.744 -0.8276 -0.3868 -1.0075
11576SOL    HW239129   9.726   9.825   2.895 -0.8102 -1.1334 -1.2766
11577SOL     OW39130   2.461   8.784   2.647 -0.8096 -0.0751  0.0099
11577SOL    HW139131   2.434   8.862   2.703 -1.7826 -0.5668  0.2413
11577SOL    HW239132   2.488   8.816   2.556 -2.3896  0.4395 -0.3051
11580SOL     OW39133   7.611   5.098   2.604  0.3271 -0.0757 -0.2866
11580SOL    HW139134   7.588   5.039   2.527 -0.4841  0.8302 -0.7439
11580SOL    HW239135   7.550   5.078   2.681 -0.5740  0.8127 -0.7613
11581SOL     OW39136   1.264   6.300   0.748 -0.2351  0.2674 -0.1172
11581SOL    HW139137   1.279   6.389   0.706 -1.5892 -0.4255 -2.1290
11581SOL    HW239138   1.332   6.235   0.715 -0.8863 -0.1081 -0.7273
11582SOL     OW39139   1.033   0.950   4.409 -0.2809  0.0192 -0.1257
11582SOL    HW139140   1.083   0.863   4.416  0.1828  0.3291  0.4511
11582SOL    HW239141   1.093   1.025   4.439 -0.5859  0.5683 -0.8808
11583SOL     OW39142   7.255   4.768   3.251 -0.5155 -0.3229 -0.4503
11583SOL    HW139143   7.326   4.836   3.233 -0.3588 -0.5059 -0.5258
11583SOL    HW239144   7.209   4.791   3.337 -0.2798 -0.2769 -0.3353
11584SOL     OW39145   8.031   1.535   6.530 -0.2842  0.2277  0.0293
11584SOL    HW139146   7.993   1.606   6.590 -0.3847 -0.7251  1.1214
11584SOL    HW239147   8.021   1.446   6.575  1.6228 -0.2488 -0.4669
11585SOL     OW39148   9.206   5.379   0.715  0.0268  0.0402  0.1543
11585SOL    HW139149   9.160   5.319   0.650 -2.6828  0.4673  1.6010
11585SOL    HW239150   9.253   5.324   0.784  1.8552 -0.4008 -1.4059
11586SOL     OW39151   5.847   8.641   4.341  0.2540 -0.1595 -0.2131
11586SOL    HW139152   5.762   8.625   4.290  0.2966  0.3323 -0.4434
11586SOL    HW239153   5.899   8.715   4.297  0.8274 -0.4949 -0.1042
11587SOL     OW39154   2.515   6.320   7.034  0.8735  0.0680  0.3867
11587SOL    HW139155   2.550   6.245   7.091  0.5366 -2.4152 -2.5650
11587SOL    HW239156   2.416   6.325   7.043  1.0561  1.3181  1.9012
11588SOL     OW39157   9.491   4.727   4.408  0.2124  0.6547 -0.0714
11588SOL    HW139158   9.588   4.708   4.425  0.1496 -1.2813 -1.7118
11588SOL    HW239159   9.435   4.660   4.456 -0.3159  1.5363  0.5559
11590SOL     OW39160   8.241   0.718   3.761 -0.1042 -0.1707  0.0303
11590SOL    HW139161   8.254   0.621   3.742  1.1612  0.1491 -0.8566
11590SOL    HW239162   8.326   0.756   3.799 -1.6044 -0.0980  3.4001
11591SOL     OW39163   9.273   4.352   4.620 -0.3174  0.2308 -0.3619
11591SOL    HW139164   9.299   4.287   4.693  0.8100  0.1671 -0.8061
11591SOL    HW239165   9.297   4.313   4.531 -1.2388  0.5217 -0.7423
11592SOL     OW39166   4.245   2.774   4.729 -0.1178 -0.0885  0.5501
11592SOL    HW139167   4.271   2.871   4.731 -0.4876  0.0057  0.7369
11592SOL    HW239168   4.203   2.749   4.816  3.2798 -1.3153  1.9290
11593SOL     OW39169   1.441   3.903   7.408  0.1533 -0.2487 -0.3266
11593SOL    HW139170   1.522   3.954   7.435 -1.1970  0.9742  1.5222
11593SOL    HW239171   1.437   3.817   7.459 -0.9665  0.8157  1.4335
11594SOL     OW39172   1.093   8.995   7.911 -0.0620  0.1091  0.2206
11594SOL    HW139173   1.084   9.020   8.007 -0.6348 -0.1102  0.2287
11594SOL    HW239174   1.189   8.986   7.887  0.0808  0.1273  0.7835
11596SOL     OW39175   0.430   8.066   7.655  0.2721  0.3506  0.2559
11596SOL    HW139176   0.357   7.999   7.666 -0.8715  1.2278 -1.7874
11596SOL    HW239177   0.508   8.023   7.609 -0.1183  0.1911 -0.2594
11597SOL     OW39178   7.895   1.983   2.931  0.2391 -0.2083  0.1480
11597SOL    HW139179   7.871   1.985   3.028  2.2222  0.3577  0.6343
11597SOL    HW239180   7.835   1.918   2.884 -0.4430 -0.8174  1.8177
11600SOL     OW39181   6.148   1.033   2.695 -0.5901  0.3607 -0.2362
11600SOL    HW139182   6.206   0.955   2.671 -0.1693  0.8759 -0.9106
11600SOL    HW239183   6.177   1.114   2.643 -1.4611  0.7976 -0.0575
11601SOL     OW39184   6.459   3.045   0.819  0.8050 -0.0101 -0.6039
11601SOL    HW139185   6.429   2.969   0.761 -0.1081  0.4607 -0.7388
11601SOL    HW239186   6.542   3.085   0.780  0.4389  0.0307 -1.3609
11603SOL     OW39187   9.714   8.976   3.654 -0.7076  0.3637 -1.0571
11603SOL    HW139188   9.783   9.045   3.680 -1.7073  1.1847 -0.5619
11603SOL    HW239189   9.637   8.981   3.716 -0.6982 -1.3827 -0.8867
11604SOL     OW39190   1.216   6.974   7.285 -0.1622 -0.6714 -0.1605
11604SOL    HW139191   1.204   7.074   7.283  2.0667 -0.4072 -0.9684
11604SOL    HW239192   1.264   6.948   7.368  0.6457 -0.9100 -0.6984
11605SOL     OW39193   1.888   1.772   5.666  0.0066 -0.3065 -0.2191
11605SOL    HW139194   1.812   1.771   5.731  0.2549  1.8097  0.1627
11605SOL    HW239195   1.852   1.770   5.572 -0.5806  1.4487 -0.0513
11606SOL     OW39196   1.131   8.331   6.811 -0.1972 -0.0979  0.1256
11606SOL    HW139197   1.060   8.268   6.782 -0.2766  0.6401 -1.3210
11606SOL    HW239198   1.105   8.375   6.897 -1.4797  0.1572 -0.3937
11609SOL     OW39199   1.203   1.445   1.693 -0.5023  0.6521 -0.0707
11609SOL    HW139200   1.202   1.501   1.610 -1.2686  0.0880 -0.4435
11609SOL    HW239201   1.110   1.436   1.728 -0.2462  0.4524  0.5606
11610SOL     OW39202   7.961   4.629   7.012 -0.3866 -0.0550  0.4810
11610SOL    HW139203   7.993   4.724   7.015 -2.5862  0.7572 -0.5497
11610SOL    HW239204   7.861   4.628   7.011 -0.3933 -2.4281  1.1740
11611SOL     OW39205   8.364   6.382   4.847  0.2772 -0.1108 -0.2500
11611SOL    HW139206   8.373   6.369   4.946  0.3950 -1.4549 -0.4261
11611SOL    HW239207   8.442   6.339   4.801 -1.0651 -1.7039 -1.0787
11613SOL     OW39208   2.907   1.705   0.822 -0.0658 -0.3155  0.6211
11613SOL    HW139209   2.984   1.645   0.800  1.3715  1.7722 -0.1815
11613SOL    HW239210   2.823   1.667   0.784  0.9909 -1.2644 -0.8012
11614SOL     OW39211   3.205   4.756   4.134 -0.5122 -0.4814 -0.3918
11614SOL    HW139212   3.238   4.758   4.040 -1.4435  1.5952 -0.7119
11614SOL    HW239213   3.278   4.785   4.196 -0.3572 -0.3701 -0.6261
11615SOL     OW39214   2.795   2.617   4.952  0.3920  0.0487  0.4655
11615SOL    HW139215   2.751   2.569   4.876  0.4252 -2.8101  2.1711
11615SOL    HW239216   2.732   2.685   4.990 -1.0105 -1.0916  0.2173
11619SOL     OW39217   2.923   7.324   2.181 -0.1037  0.4568  0.2643
11619SOL    HW139218   2.901   7.375   2.098  0.1769  0.2557  0.0658
11619SOL    HW239219   2.839   7.299   2.228 -0.4513 -2.3584 -1.7214
11620SOL     OW39220   2.182   6.318   6.796 -0.1563 -0.5474  0.4132
11620SOL    HW139221   2.125   6.397   6.777  1.5409  0.4945 -0.5557
11620SOL    HW239222   2.206   6.316   6.893 -2.0187 -1.1472  0.8796
11621SOL     OW39223   9.358   5.144   7.655  0.3948 -0.4584  0.1467
11621SOL    HW139224   9.308   5.115   7.573  0.4246  2.4016 -0.9545
11621SOL    HW239225   9.431   5.207   7.628  1.0469 -0.2617  2.2954
11624SOL     OW39226   9.290   9.359   0.151 -0.5955  0.5757  0.1829
11624SOL    HW139227   9.308   9.366   0.249 -0.7712 -1.0326  0.3534
11624SOL    HW239228   9.230   9.280   0.134 -1.0058  1.1597 -1.1630
11625SOL     OW39229   4.952   4.533   6.228  0.1052 -0.2417  0.1111
11625SOL    HW139230   4.945   4.438   6.196  0.3715 -1.0228  2.2839
11625SOL    HW239231   4.964   4.534   6.327  0.6933  2.0639  0.0513
11626SOL     OW39232   3.469   1.820   6.640  0.0433  0.0024  0.0965
11626SOL    HW139233   3.519   1.907   6.641 -1.4328  0.8606  0.6832
11626SOL    HW239234   3.437   1.799   6.732  0.7135 -1.3674  0.0269
11627SOL     OW39235   9.797   6.668   3.532 -0.0702  0.1034 -0.1008
11627SOL    HW139236   9.731   6.731   3.572  1.1546  1.9716 -0.9408
11627SOL    HW239237   9.885   6.714   3.521  1.2416 -2.1783  0.5014
11628SOL     OW39238   9.974   3.553   3.746  0.6025 -0.4283 -0.0662
11628SOL    HW139239   9.950   3.586   3.655  0.4930 -1.7081 -0.5182
11628SOL    HW239240  10.069   3.520   3.746  0.5042 -0.7231  0.1897
11631SOL     OW39241   1.508   4.195   5.717 -0.5644 -0.1488  0.3396
11631SOL    HW139242   1.471   4.236   5.801 -2.2277  0.1055 -0.5022
11631SOL    HW239243   1.571   4.259   5.673 -0.8213  0.3014  0.6225
11633SOL     OW39244   8.647   5.900   4.824 -0.1560 -0.5950 -0.5975
11633SOL    HW139245   8.646   5.990   4.866 -0.0661 -1.7031  1.8734
11633SOL    HW239246   8.652   5.909   4.724 -2.4145  2.1418 -0.5230
11634SOL     OW39247   9.010   5.843   2.385 -0.4734  0.5105  0.0733
11634SOL    HW139248   9.047   5.875   2.298  2.2664  0.3941  1.1297
11634SOL    HW239249   9.058   5.760   2.413 -1.1050  0.7138  1.8262
11635SOL     OW39250   1.955   8.500   5.859  0.1117  0.0967  0.5542
11635SOL    HW139251   1.961   8.421   5.797  0.5996  0.8070 -0.3051
11635SOL    HW239252   1.860   8.513   5.886 -0.7067  1.9245 -2.8761
11636SOL     OW39253   7.064   9.689   7.080  0.0451  0.3994 -0.2485
11636SOL    HW139254   6.976   9.659   7.119  0.8054  0.3777  1.4870
11636SOL    HW239255   7.086   9.631   7.002  0.2889 -2.0284  1.5664
11637SOL     OW39256   2.453   7.182   4.265  0.3582 -0.5478 -0.0870
11637SOL    HW139257   2.373   7.142   4.310 -0.2105 -0.3051 -0.8789
11637SOL    HW239258   2.424   7.255   4.203  0.9783 -1.9822 -2.1228
11638SOL     OW39259   0.804   9.319   0.818 -0.4993 -0.1228 -0.2468
11638SOL    HW139260   0.813   9.221   0.835  1.1598  0.0346 -0.1197
11638SOL    HW239261   0.759   9.334   0.730  0.3137 -1.0042 -0.8126
11639SOL     OW39262   0.897   4.301   3.157 -0.0799 -0.6516  0.6870
11639SOL    HW139263   0.952   4.347   3.088 -2.1517  0.3403 -0.3605
11639SOL    HW239264   0.923   4.334   3.248  0.5566  0.3089  0.1651
11640SOL     OW39265   2.716   1.609   6.562 -0.1698 -0.0876 -0.4443
11640SOL    HW139266   2.676   1.608   6.471  1.5044  0.7608 -1.2266
11640SOL    HW239267   2.726   1.703   6.593  2.6145 -0.1735 -0.9459
11641SOL     OW39268   4.773   2.927   7.165  0.1993 -0.2932 -0.3463
11641SOL    HW139269   4.867   2.958   7.153  0.2121  0.1119  0.7756
11641SOL    HW239270   4.762   2.888   7.257 -1.2464  1.5111  0.2649
11642SOL     OW39271   6.000   0.780   4.677  0.0278 -0.1323 -0.0178
11642SOL    HW139272   6.086   0.812   4.716  1.7456 -1.9838 -2.1694
11642SOL    HW239273   5.960   0.852   4.620  0.7262  0.3064  0.0411
11644SOL     OW39274   7.838   2.061   4.625  0.0397 -0.4100 -0.1186
11644SOL    HW139275   7.773   2.136   4.639 -0.5124 -0.5869 -1.6277
11644SOL    HW239276   7.828   1.994   4.698 -0.5687  0.2138  0.3715
11645SOL     OW39277   4.861   3.019   1.320 -0.4032  0.0944 -0.3818
11645SOL    HW139278   4.821   2.932   1.290  0.4740 -0.7175  0.7569
11645SOL    HW239279   4.788   3.083   1.344 -1.0530 -0.3479 -1.1592
11646SOL     OW39280   7.962   4.629   3.229  0.7531  0.1434  0.4078
11646SOL    HW139281   7.945   4.571   3.308  4.3471 -1.0555  0.3930
11646SOL    HW239282   7.892   4.701   3.224  0.0586 -0.1854  4.2214
11648SOL     OW39283   5.308   1.062   4.914 -0.1202 -0.5203  0.0890
11648SOL    HW139284   5.243   1.092   4.844 -0.8378 -1.4120  0.3540
11648SOL    HW239285   5.258   1.043   4.999  0.2967 -2.3551 -0.0459
11649SOL     OW39286   1.313   0.735   0.858 -0.1552  0.0036 -0.5181
11649SOL    HW139287   1.359   0.648   0.874  1.5396  0.9130 -0.3993
11649SOL    HW239288   1.319   0.792   0.940 -3.4444 -0.7208  0.2934
11650SOL     OW39289   9.838   3.778   2.328  0.6113 -0.7510 -0.0261
11650SOL    HW139290   9.867   3.772   2.233  0.2638  2.1879 -0.3387
11650SOL    HW239291   9.917   3.802   2.385  0.2974  0.0541  0.0754
11651SOL     OW39292   3.238   4.765   5.181 -0.2280 -0.5551 -0.2411
11651SOL    HW139293   3.284   4.830   5.242 -0.2586  0.6337 -1.4563
11651SOL    HW239294   3.165   4.812   5.132  0.7292 -1.1212 -2.2769
11652SOL     OW39295   8.912   4.822   2.502 -0.2812 -0.0748 -0.7192
11652SOL    HW139296   8.831   4.778   2.540  0.3311  0.2064  0.9826
11652SOL    HW239297   8.917   4.916   2.535  0.8789 -0.1746 -0.5935
11653SOL     OW39298   9.420   3.127   1.515  0.0804 -0.0974 -0.2566
11653SOL    HW139299   9.473   3.095   1.436 -1.9715 -1.7517 -1.0300
11653SOL    HW239300   9.349   3.060   1.536 -0.4176  1.1067  2.0113
11654SOL     OW39301   8.864   7.652   1.283 -0.5535  0.3747 -0.0304
11654SOL    HW139302   8.856   7.752   1.294 -1.5448  0.5007 -1.7137
11654SOL    HW239303   8.926   7.616   1.353  0.6693  2.3168 -0.0514
11655SOL     OW39304   6.179   1.088   6.327 -0.5271 -0.3814 -0.2306
11655SOL    HW139305   6.228   1.122   6.408 -3.1393 -1.0376  1.6860
11655SOL    HW239306   6.163   0.990   6.336 -2.9506 -0.0339 -0.3790
11656SOL     OW39307   1.872   6.327   7.493  0.2252 -0.4412  0.1158
11656SOL    HW139308   1.853   6.327   7.395 -0.7675  0.5224  0.2966
11656SOL    HW239309   1.836   6.243   7.534  1.0231 -1.0461 -0.4017
11658SOL     OW39310   9.876   2.620   5.102  0.3134  0.2494 -0.0601
11658SOL    HW139311   9.899   2.561   5.024 -4.8394  0.4277 -1.8883
11658SOL    HW239312   9.897   2.715   5.079 -0.5253  0.2220 -0.9334
11659SOL     OW39313   4.402   7.773   2.597  0.0994  0.1175 -0.4065
11659SOL    HW139314   4.464   7.817   2.662 -0.0290 -0.9299  0.4493
11659SOL    HW239315   4.450   7.754   2.512  1.2591 -1.5891  0.5972
11660SOL     OW39316   8.278   0.470   1.639 -0.0568  0.3414 -0.3259
11660SOL    HW139317   8.199   0.451   1.698 -0.7742  2.3871 -0.5859
11660SOL    HW239318   8.261   0.431   1.548 -1.2428  1.6447 -0.6807
11661SOL     OW39319   1.494   5.591   0.737 -0.1294  0.0857  0.7532
11661SOL    HW139320   1.430   5.514   0.740 -0.7849  0.6234  0.6436
11661SOL    HW239321   1.446   5.675   0.760  1.0183  0.2078  2.8023
11662SOL     OW39322   9.302   0.673   0.466  0.2378 -0.0145  0.5548
11662SOL    HW139323   9.271   0.632   0.380  0.1456  2.3789 -0.5864
11662SOL    HW239324   9.333   0.601   0.528 -0.8608 -1.8693 -1.0055
11663SOL     OW39325   6.599   5.499   7.393 -0.1219  0.0925  0.6410
11663SOL    HW139326   6.637   5.544   7.312  0.9071 -2.7259 -0.4951
11663SOL    HW239327   6.660   5.513   7.470 -0.3758  1.5567  0.5962
11664SOL     OW39328   7.170   3.903   1.088 -0.0713  0.1688  0.1810
11664SOL    HW139329   7.118   3.925   1.006  0.3298  2.9797  0.6253
11664SOL    HW239330   7.126   3.944   1.168  2.2065  1.7686  0.6998
11665SOL     OW39331   8.926   4.502   1.354 -0.0587  0.2458  0.1878
11665SOL    HW139332   8.912   4.555   1.270 -0.6310 -0.8154 -0.4121
11665SOL    HW239333   8.849   4.517   1.416 -1.6496 -1.9882 -1.1534
11666SOL     OW39334   4.452   4.111   6.729 -0.4484 -0.2364  0.1603
11666SOL    HW139335   4.447   4.172   6.808  1.3545  0.0394  0.0723
11666SOL    HW239336   4.424   4.019   6.755 -1.5631  0.2414  0.6901
11667SOL     OW39337   2.601   8.099   0.749  0.0278  0.3601 -0.4327
11667SOL    HW139338   2.503   8.105   0.770  0.0391  0.6831 -0.4669
11667SOL    HW239339   2.654   8.122   0.830  0.0730  0.9371 -0.6237
11668SOL     OW39340   1.412   8.180   7.492 -0.2998 -0.1366 -0.2840
11668SOL    HW139341   1.364   8.096   7.466 -0.1827 -0.4066  0.3829
11668SOL    HW239342   1.422   8.184   7.591  0.0971  0.4470 -0.3446
11669SOL     OW39343   3.560   3.492   4.150 -0.3631  0.2553 -0.3234
11669SOL    HW139344   3.615   3.511   4.069 -1.0108  0.5446 -0.6977
11669SOL    HW239345   3.602   3.536   4.230  1.0629 -1.2230 -0.2284
11670SOL     OW39346   9.111   2.725   1.514 -0.3432 -0.1944 -0.0833
11670SOL    HW139347   9.018   2.723   1.551  0.0254  0.2909  0.8794
11670SOL    HW239348   9.157   2.808   1.545 -0.2501  0.5661 -2.1953
11671SOL     OW39349   2.755   6.707   3.815  0.4449  0.3220 -0.1362
11671SOL    HW139350   2.705   6.788   3.845  2.9601  0.9245  2.5697
11671SOL    HW239351   2.793   6.723   3.724  0.6332  2.0383  0.2342
11672SOL     OW39352   3.714   9.648   5.423  0.1352  0.0524  0.8345
11672SOL    HW139353   3.667   9.593   5.492 -0.3633 -0.5804  0.0099
11672SOL    HW239354   3.810   9.618   5.415  0.3035  0.4102  1.5438
11673SOL     OW39355   1.861   6.442   5.627 -0.4814  0.2268  0.8134
11673SOL    HW139356   1.789   6.510   5.613 -0.9772 -0.3531  0.5299
11673SOL    HW239357   1.901   6.453   5.718 -1.4752  0.0328  1.2719
11675SOL     OW39358   3.514   2.450   4.199 -0.0475  0.6659 -1.3502
11675SOL    HW139359   3.611   2.425   4.201 -0.5500 -1.3507 -0.1234
11675SOL    HW239360   3.474   2.423   4.111  0.5483  1.7320 -1.9535
11676SOL     OW39361   2.501   7.440   0.152 -0.1570 -0.5107  0.1505
11676SOL    HW139362   2.575   7.384   0.115  0.7591  1.0088 -0.3221
11676SOL    HW239363   2.508   7.443   0.252  0.7032  0.0269  0.0761
11677SOL     OW39364   0.986   2.545   1.665 -0.3141  0.0675  0.1339
11677SOL    HW139365   0.949   2.457   1.696 -0.8575  0.2502  0.0040
11677SOL    HW239366   0.942   2.619   1.716 -0.6371  0.3250 -0.5285
11678SOL     OW39367   7.468   0.770   4.627  0.3825 -0.2885 -0.9274
11678SOL    HW139368   7.402   0.799   4.557 -0.9512 -0.1003  0.3822
11678SOL    HW239369   7.495   0.850   4.681  1.2469 -0.4740 -1.0820
11680SOL     OW39370   9.754   7.846   1.649 -0.2851 -0.5028  0.3617
11680SOL    HW139371   9.821   7.772   1.644  0.9433  0.4560  1.7557
11680SOL    HW239372   9.771   7.900   1.732 -2.2606  0.2799  0.2764
11681SOL     OW39373   4.111   4.057   1.461 -0.3559  0.5219  0.4392
11681SOL    HW139374   4.053   3.992   1.509 -0.2414 -0.3103 -0.5347
11681SOL    HW239375   4.057   4.136   1.431 -1.3402 -1.0197 -1.9127
11682SOL     OW39376   0.246   5.531   7.086 -0.0432 -0.2580 -0.1163
11682SOL    HW139377   0.241   5.589   7.004  0.8770  1.2426  0.8582
11682SOL    HW239378   0.178   5.458   7.079 -0.5114  0.3054 -1.8608
11684SOL     OW39379   7.876   1.357   4.170  0.1286  0.3433  0.1649
11684SOL    HW139380   7.937   1.283   4.198 -2.5993 -2.3123 -0.6686
11684SOL    HW239381   7.899   1.386   4.077 -0.3867 -1.1981 -0.4504
11686SOL     OW39382   8.348   9.600   5.477 -0.5039  0.1394  0.0895
11686SOL    HW139383   8.415   9.568   5.409 -1.6990  1.4506 -1.7455
11686SOL    HW239384   8.387   9.676   5.529 -0.0553 -0.0181 -0.0128
11687SOL     OW39385   7.792   7.123   5.582 -0.0984  0.1180  0.3452
11687SOL    HW139386   7.761   7.088   5.493 -1.6420 -0.0648  0.9380
11687SOL    HW239387   7.750   7.212   5.599  0.3431  0.2353  0.8158
11688SOL     OW39388   4.390   3.307   2.021 -0.2766 -0.5833 -0.2350
11688SOL    HW139389   4.443   3.379   1.976  0.6904 -0.1385  1.5591
11688SOL    HW239390   4.433   3.218   2.002 -0.7154 -0.5549 -1.3737
11689SOL     OW39391   2.269   3.837   4.353 -0.4793  0.1837 -0.3885
11689SOL    HW139392   2.190   3.885   4.315 -0.2760  0.5085 -0.4030
11689SOL    HW239393   2.245   3.742   4.372 -0.5937  0.0373 -1.2802
11691SOL     OW39394   5.186   2.639   2.024  0.0044 -0.2146 -0.0933
11691SOL    HW139395   5.248   2.566   2.051 -0.1769 -0.8585 -1.3987
11691SOL    HW239396   5.182   2.709   2.097 -0.6139 -1.9933  1.6280
11692SOL     OW39397   0.010   6.686   7.945 -0.3900 -0.0830  0.0453
11692SOL    HW139398  -0.073   6.631   7.939 -0.8376  0.4601  1.1829
11692SOL    HW239399   0.002   6.750   8.021  0.7518  0.5100 -0.3270
11693SOL     OW39400   8.451   3.211   5.737 -0.3203 -0.0270  0.0014
11693SOL    HW139401   8.397   3.184   5.817 -1.8154 -0.4858 -1.1511
11693SOL    HW239402   8.442   3.309   5.721 -1.1492 -0.1738 -0.4353
11694SOL     OW39403   0.420   9.003   0.740  0.7968  0.0600 -0.1233
11694SOL    HW139404   0.445   9.099   0.751 -0.6410  0.4982 -0.5549
11694SOL    HW239405   0.458   8.950   0.815 -0.3955  1.3523  1.4316
11695SOL     OW39406   2.204   7.751   1.103  0.7375  0.2952 -0.3249
11695SOL    HW139407   2.119   7.747   1.156  1.9726 -0.4417  1.6859
11695SOL    HW239408   2.188   7.714   1.012 -1.2026  0.5745 -0.1215
11696SOL     OW39409   6.266   3.031   2.060  0.1946 -0.1526  0.5795
11696SOL    HW139410   6.322   2.969   2.006  0.2653 -0.6316  1.2025
11696SOL    HW239411   6.277   3.011   2.157  1.1670  1.6478  0.8573
11697SOL     OW39412   3.790   8.816   2.558  0.2645 -0.0570 -0.0920
11697SOL    HW139413   3.853   8.803   2.635  1.1957  0.8860 -0.6982
11697SOL    HW239414   3.775   8.913   2.543 -0.9335 -0.2596 -0.3039
11698SOL     OW39415   6.671   2.227   5.907 -0.1685 -0.4229  0.6798
11698SOL    HW139416   6.731   2.291   5.859 -1.8415 -0.0892 -1.0012
11698SOL    HW239417   6.713   2.136   5.906  0.5772 -0.0773 -0.0051
11699SOL     OW39418   7.562   6.273   5.449  0.1708  0.2771 -0.2508
11699SOL    HW139419   7.622   6.250   5.525  1.7453 -0.0330 -1.5555
11699SOL    HW239420   7.595   6.357   5.404  0.2226 -0.4407 -1.5883
11700SOL     OW39421   7.168   4.153   1.927  0.2507 -0.2504  0.4539
11700SOL    HW139422   7.238   4.122   1.991 -0.4340 -2.5743  0.1134
11700SOL    HW239423   7.172   4.097   1.844  0.1782  1.7815 -0.9645
11701SOL     OW39424   8.950   4.985   4.544  0.1861 -0.4011  0.2492
11701SOL    HW139425   8.858   5.013   4.571  1.1377  2.6390  0.4804
11701SOL    HW239426   9.018   5.041   4.592  2.1026 -0.2370 -2.5298
11702SOL     OW39427   1.653   1.566   6.397 -0.2069 -0.2304  0.5480
11702SOL    HW139428   1.621   1.639   6.337  1.0679  1.4355  1.8494
11702SOL    HW239429   1.574   1.514   6.430 -1.1825  0.8902  0.0515
11703SOL     OW39430   9.054   7.593   3.083 -0.0121 -0.0521  0.5289
11703SOL    HW139431   9.002   7.517   3.043  0.1578  0.0252  0.1549
11703SOL    HW239432   9.146   7.594   3.044 -0.2508  0.7900 -0.0130
11704SOL     OW39433   2.685   2.854   4.631  0.2608  0.2104  0.5106
11704SOL    HW139434   2.778   2.865   4.666 -0.0198 -1.0934  1.7477
11704SOL    HW239435   2.620   2.889   4.698 -0.2005 -0.2604  0.3086
11706SOL     OW39436   9.366   0.157   4.778 -0.1713 -0.3439 -0.5569
11706SOL    HW139437   9.460   0.138   4.805  0.0903  2.3084  0.5181
11706SOL    HW239438   9.304   0.131   4.852 -0.1220 -0.3882 -0.5314
11707SOL     OW39439   0.627   6.994   1.672  0.0420  0.0723  0.0492
11707SOL    HW139440   0.679   7.013   1.755 -2.2731  0.8105  1.3646
11707SOL    HW239441   0.558   6.924   1.691  0.9126 -1.3245 -1.8243
11708SOL     OW39442   1.617   3.938   6.728 -0.4941 -0.0422 -0.5365
11708SOL    HW139443   1.707   3.894   6.721 -0.3584  0.2085 -0.4018
11708SOL    HW239444   1.579   3.950   6.636 -0.1658  0.3030 -0.6297
11709SOL     OW39445   3.283   3.702   6.707 -0.1977 -0.3605  0.1368
11709SOL    HW139446   3.188   3.727   6.689  0.5385  3.5915  1.4037
11709SOL    HW239447   3.293   3.673   6.802  0.1109  0.3604  0.3190
11710SOL     OW39448   4.013   0.775   7.813 -0.1655 -0.2107 -0.4644
11710SOL    HW139449   3.963   0.808   7.733 -2.3758 -1.1610  0.4670
11710SOL    HW239450   4.046   0.683   7.796  0.1292 -0.0746 -0.6175
11712SOL     OW39451   8.583   9.707   1.920 -0.0294 -0.3932 -0.0774
11712SOL    HW139452   8.584   9.740   1.825  1.8217 -0.0180  0.0569
11712SOL    HW239453   8.521   9.764   1.974  0.1556  0.4206 -0.7109
11713SOL     OW39454   7.028   0.303   1.381  0.2880  0.2246  0.2482
11713SOL    HW139455   7.056   0.275   1.473 -0.9011  0.3123  0.6456
11713SOL    HW239456   6.973   0.386   1.387  1.5633  1.1503 -0.7002
11714SOL     OW39457   1.006   3.683   4.313  0.2586  0.7616  0.1807
11714SOL    HW139458   1.059   3.742   4.253  1.9278  1.7322  2.5211
11714SOL    HW239459   1.051   3.677   4.402 -2.9609  0.7034  1.8955
11716SOL     OW39460   6.949   6.437   4.731  0.2412  0.2063 -0.0401
11716SOL    HW139461   7.024   6.473   4.676  1.4668  0.6450  1.8651
11716SOL    HW239462   6.928   6.501   4.805 -0.8045 -0.7453  0.4991
11717SOL     OW39463   1.607   1.713   3.318 -0.1880 -0.3840  0.2575
11717SOL    HW139464   1.586   1.811   3.319  0.0132 -0.3248  2.0956
11717SOL    HW239465   1.608   1.679   3.224  0.6382  1.5791 -0.4741
11718SOL     OW39466   0.830   3.169   3.706  0.3796 -0.2418 -0.3440
11718SOL    HW139467   0.794   3.242   3.765 -1.1350 -0.0972 -1.4114
11718SOL    HW239468   0.925   3.189   3.682  0.6035  0.3472  1.0154
11719SOL     OW39469   0.447   4.218   6.479 -0.1858  0.4384  0.0586
11719SOL    HW139470   0.504   4.189   6.402  0.3508  0.8192  0.3073
11719SOL    HW239471   0.463   4.157   6.556 -0.9399 -0.1197 -0.2157
11721SOL     OW39472   4.391   5.822   7.395  0.0839  0.2551 -0.2867
11721SOL    HW139473   4.418   5.905   7.445  0.0259  0.4992 -0.6601
11721SOL    HW239474   4.411   5.742   7.451  0.4686  0.5025 -0.0670
11722SOL     OW39475   1.862   8.749   6.386 -0.2184 -0.6301  0.1089
11722SOL    HW139476   1.919   8.701   6.320  0.3076 -2.2939  1.7218
11722SOL    HW239477   1.905   8.836   6.410 -0.2110 -0.2024 -1.3826
11723SOL     OW39478   0.313   1.662   7.258 -0.6983  0.0042  0.0180
11723SOL    HW139479   0.324   1.675   7.160  0.1098 -1.1504 -0.0571
11723SOL    HW239480   0.403   1.650   7.300 -1.0006  0.9834  0.9797
11724SOL     OW39481   2.537   0.212   0.344 -0.0988 -0.3118  0.2195
11724SOL    HW139482   2.505   0.160   0.265  0.6597  0.3140 -0.5154
11724SOL    HW239483   2.587   0.151   0.406 -1.1843 -0.9201  0.5089
11725SOL     OW39484   0.364   7.912   7.378  0.2151 -0.8534 -0.5087
11725SOL    HW139485   0.318   7.883   7.461  0.8852 -0.4287  0.0140
11725SOL    HW239486   0.452   7.863   7.370  1.1002  0.5988  0.0991
11727SOL     OW39487   3.142   5.082   1.348 -0.0916  0.2580  0.0981
11727SOL    HW139488   3.116   5.174   1.318 -0.0137 -0.2572 -1.5997
11727SOL    HW239489   3.115   5.069   1.444 -2.8099  1.0149 -0.5242
11728SOL     OW39490   3.366   9.377   3.034 -0.2281 -0.2782 -0.1992
11728SOL    HW139491   3.317   9.426   3.106  0.4245  0.0004  0.0502
11728SOL    HW239492   3.417   9.301   3.074  0.6569  0.2712 -0.2874
11731SOL     OW39493   3.794   0.924   1.794 -0.4985 -0.8973  0.0472
11731SOL    HW139494   3.875   0.906   1.850  0.2260 -0.2897 -0.7919
11731SOL    HW239495   3.777   0.845   1.734  0.1775 -0.5558 -0.6108
11732SOL     OW39496   4.526   8.989   5.896  0.2338  0.2749  0.9751
11732SOL    HW139497   4.569   8.899   5.893  1.8729  1.0736  0.3696
11732SOL    HW239498   4.535   9.027   5.988 -0.3188 -0.1024  1.1886
11734SOL     OW39499   1.637   0.755   5.758 -0.1538  0.3528  0.0891
11734SOL    HW139500   1.728   0.725   5.789  0.7829  2.5054 -0.4648
11734SOL    HW239501   1.571   0.742   5.832  0.6945 -0.8610  0.6481
11735SOL     OW39502   2.809   3.848   0.837 -0.6526 -0.0376 -0.4320
11735SOL    HW139503   2.711   3.863   0.831 -1.0981 -2.7437 -0.6706
11735SOL    HW239504   2.852   3.876   0.751 -1.0366  2.0922  0.0350
11737SOL     OW39505   6.313   4.836   1.894 -0.0944 -0.2949 -0.3061
11737SOL    HW139506   6.327   4.851   1.796 -0.2619  0.9179 -0.1559
11737SOL    HW239507   6.401   4.816   1.937  0.4001  1.8369 -0.2720
11738SOL     OW39508   4.465   1.600   1.770 -0.4617  0.1777 -0.8900
11738SOL    HW139509   4.519   1.553   1.839  0.7566  1.7175 -0.7534
11738SOL    HW239510   4.415   1.534   1.714 -0.8847 -1.1003  0.9926
11740SOL     OW39511   9.203   5.897   4.399 -0.4146 -0.1758  0.3422
11740SOL    HW139512   9.230   5.980   4.448 -1.7624 -0.1946  1.1499
11740SOL    HW239513   9.281   5.834   4.395  0.6751  1.1689 -0.4242
11741SOL     OW39514   2.467   6.877   7.578 -0.4805 -0.0273 -0.1862
11741SOL    HW139515   2.420   6.913   7.658 -2.0153  1.7055 -1.8246
11741SOL    HW239516   2.514   6.792   7.603  2.2011  2.3953  3.4417
11744SOL     OW39517   3.524   3.726   2.981  0.7720  0.1298 -0.3155
11744SOL    HW139518   3.599   3.713   3.046  0.1298 -1.2308  0.1813
11744SOL    HW239519   3.437   3.732   3.030  0.3138 -0.5740 -1.0151
11745SOL     OW39520   9.827   9.140   5.503 -0.3197  0.2030  0.4178
11745SOL    HW139521   9.869   9.153   5.413 -1.0326  1.4856  0.2521
11745SOL    HW239522   9.899   9.135   5.573  0.2082 -0.1222 -0.1408
11746SOL     OW39523   5.688   9.810   4.425 -0.1678 -0.1642 -0.5631
11746SOL    HW139524   5.672   9.752   4.345 -0.2382 -0.1345 -0.5710
11746SOL    HW239525   5.782   9.844   4.423  0.0607 -0.7835 -0.2228
11747SOL     OW39526   2.036   4.034   6.304 -0.2148 -0.3333  0.5016
11747SOL    HW139527   2.124   3.993   6.326 -0.4837 -0.5137  1.2643
11747SOL    HW239528   2.035   4.129   6.335 -0.3820 -0.4107  0.7348
11748SOL     OW39529   0.989   6.304   0.526 -0.3141 -0.4781  0.1470
11748SOL    HW139530   0.902   6.350   0.545 -0.3740 -0.7164  0.4496
11748SOL    HW239531   1.025   6.264   0.610  0.6780  0.6287  0.2586
11749SOL     OW39532   2.056   3.989   4.644 -0.0230 -0.0796 -0.6033
11749SOL    HW139533   2.093   3.916   4.702  0.2091  0.7015  0.2364
11749SOL    HW239534   2.004   4.053   4.700  0.9247  1.1597 -1.1027
11750SOL     OW39535   4.979   1.835   5.669 -0.5044  0.6514  0.3878
11750SOL    HW139536   4.986   1.740   5.636  2.3383 -0.2489  3.2362
11750SOL    HW239537   4.993   1.898   5.593 -1.0240 -1.2495 -1.3158
11753SOL     OW39538   3.648   9.115   5.982  0.2983  0.6451 -0.0599
11753SOL    HW139539   3.552   9.091   5.974  0.4553  0.2644 -0.9087
11753SOL    HW239540   3.687   9.125   5.890  0.8720  1.5709  0.2832
11754SOL     OW39541   7.822   4.235   0.581  0.1980 -0.1619  0.0595
11754SOL    HW139542   7.727   4.248   0.551  0.2378  0.4937  0.2174
11754SOL    HW239543   7.866   4.169   0.520 -0.0059  0.4416 -0.7670
11755SOL     OW39544   7.111   1.063   5.964 -0.0419  0.6629  0.0827
11755SOL    HW139545   7.073   1.073   6.056  2.5561  0.2740  1.2300
11755SOL    HW239546   7.119   0.965   5.943 -0.3415  0.7519 -0.4596
11756SOL     OW39547   7.448   9.616   6.729  0.2204  0.0470 -0.6836
11756SOL    HW139548   7.353   9.647   6.735  0.0653 -0.2658 -1.5139
11756SOL    HW239549   7.464   9.572   6.640  0.6674 -1.4699  0.1187
11757SOL     OW39550   8.522   9.404   1.423 -0.1412  0.3153 -0.3521
11757SOL    HW139551   8.607   9.361   1.393 -0.3107  0.6454 -1.3312
11757SOL    HW239552   8.532   9.504   1.419 -0.4450  0.3570 -0.0952
11758SOL     OW39553   0.302   9.739   3.592 -0.0230 -0.2729  0.3407
11758SOL    HW139554   0.354   9.734   3.677  0.2732  0.1202  0.1822
11758SOL    HW239555   0.206   9.757   3.613 -0.0060 -0.4877  0.6074
11760SOL     OW39556   8.875   1.923   7.019 -0.1096  0.9530 -0.2029
11760SOL    HW139557   8.861   1.857   6.945 -1.8955  1.4638 -0.3437
11760SOL    HW239558   8.910   2.009   6.981 -3.8156  2.2310 -0.9150
11762SOL     OW39559   8.746   6.779   3.201 -1.0641 -0.3374  0.0880
11762SOL    HW139560   8.716   6.868   3.235 -0.8597 -0.2823  0.1205
11762SOL    HW239561   8.842   6.764   3.225 -1.3207 -0.9050  0.7915
11763SOL     OW39562   1.232   3.381   4.275  0.2076  0.1503  0.0380
11763SOL    HW139563   1.277   3.384   4.364 -0.6680  2.1045  0.4482
11763SOL    HW239564   1.136   3.357   4.286 -0.1762  1.4826 -0.2327
11765SOL     OW39565   8.932   7.974   2.775 -0.1048 -0.2052 -0.4157
11765SOL    HW139566   9.012   7.924   2.808 -0.7249  0.3247  1.9631
11765SOL    HW239567   8.960   8.037   2.702  1.7347  0.2650  0.6599
11766SOL     OW39568   3.751   6.767   0.239 -0.0088 -0.5426  0.1750
11766SOL    HW139569   3.743   6.742   0.336 -1.1118 -1.7119 -0.2145
11766SOL    HW239570   3.755   6.866   0.231 -0.8581 -0.4056  1.3520
11767SOL     OW39571   1.212   5.939   7.589 -0.9728  0.1748 -0.7498
11767SOL    HW139572   1.248   5.954   7.681 -2.4140 -0.1637 -0.1206
11767SOL    HW239573   1.283   5.959   7.521  0.3437 -0.3564  0.4633
11769SOL     OW39574   4.472   3.147   1.127 -0.3582 -0.2751  0.5445
11769SOL    HW139575   4.558   3.185   1.094 -0.1725 -0.2455  1.0478
11769SOL    HW239576   4.396   3.183   1.073 -0.0920  0.0471  0.3867
11771SOL     OW39577   7.516   8.845   5.289 -0.0560 -0.3725  0.0167
11771SOL    HW139578   7.478   8.797   5.210  0.4840  0.2656 -0.6361
11771SOL    HW239579   7.449   8.844   5.363 -0.0886 -2.0705 -0.0070
11772SOL     OW39580   5.178   4.355   1.969  0.0846 -0.4491 -0.7650
11772SOL    HW139581   5.245   4.375   2.041  2.3670 -1.8874 -2.4162
11772SOL    HW239582   5.226   4.344   1.882 -2.5759  0.7074 -2.4135
11773SOL     OW39583   9.030   9.721   6.429 -0.0309 -0.4418  0.1782
11773SOL    HW139584   8.943   9.673   6.431  0.6892 -1.7168  1.8157
11773SOL    HW239585   9.040   9.767   6.341 -0.4400 -3.8211 -1.7208
11774SOL     OW39586   2.462   5.214   7.363  0.2173 -0.3571 -0.4525
11774SOL    HW139587   2.479   5.163   7.448  1.4078  2.1546  0.8904
11774SOL    HW239588   2.364   5.217   7.345 -0.1906  0.4160  1.7357
11775SOL     OW39589   0.527   5.484   4.438  0.9740 -0.0860 -0.6483
11775SOL    HW139590   0.547   5.578   4.413 -0.3870  0.2014 -0.6636
11775SOL    HW239591   0.490   5.435   4.360  1.0717 -0.4640 -0.4622
11776SOL     OW39592   2.118   4.006   5.911 -0.1409 -0.4734  0.5634
11776SOL    HW139593   2.187   4.021   5.983  0.0130  1.9360 -0.0620
11776SOL    HW239594   2.043   4.071   5.923 -0.7951 -1.0010 -0.6460
11777SOL     OW39595   3.845   3.466   4.668  0.0831 -0.1352  0.2399
11777SOL    HW139596   3.782   3.499   4.738  2.4840  0.9938  1.9271
11777SOL    HW239597   3.939   3.488   4.695  1.2691 -2.4815 -1.8376
11778SOL     OW39598   3.166   4.352   3.615  0.1583 -0.3225 -0.0089
11778SOL    HW139599   3.142   4.322   3.708 -0.7538  1.5414  0.3892
11778SOL    HW239600   3.096   4.321   3.551 -0.5342  0.5220  0.3273
11779SOL     OW39601   6.167   8.426   3.773 -0.6957  0.5329 -0.1880
11779SOL    HW139602   6.082   8.422   3.825 -2.3999  2.0752 -2.7693
11779SOL    HW239603   6.160   8.495   3.702  3.4573  2.0921  0.7598
11781SOL     OW39604   1.037   8.859   3.057  0.3525  0.1416  0.2205
11781SOL    HW139605   0.943   8.834   3.037  0.1020  1.7540 -0.7372
11781SOL    HW239606   1.049   8.866   3.156 -0.2546 -1.0488  0.3842
11782SOL     OW39607   0.930   3.177   2.746  0.3708  0.2250 -0.5479
11782SOL    HW139608   1.027   3.168   2.770  0.4466  0.1217 -0.8955
11782SOL    HW239609   0.874   3.154   2.826  0.6360  0.6037 -0.2527
11783SOL     OW39610   2.014   8.021   4.868 -0.5209 -0.2016 -0.1260
11783SOL    HW139611   1.934   8.057   4.820 -0.0393  1.0565 -0.0122
11783SOL    HW239612   2.090   8.012   4.803 -0.5350 -0.6757 -0.0775
11784SOL     OW39613   6.622   0.663   3.726  0.3925 -0.0586 -0.1199
11784SOL    HW139614   6.713   0.658   3.767  0.2729 -1.5979 -0.0009
11784SOL    HW239615   6.555   0.623   3.789 -0.0693 -0.7553 -1.0459
11785SOL     OW39616   3.535   8.095   0.788 -0.0308  0.2806  0.0870
11785SOL    HW139617   3.562   8.177   0.736  0.8218 -1.0928 -1.6840
11785SOL    HW239618   3.608   8.070   0.851  0.2303  0.1763 -0.2536
11786SOL     OW39619   5.144   1.219   5.382 -0.0546 -0.3099 -0.1797
11786SOL    HW139620   5.108   1.284   5.449 -0.2770 -0.6290  0.0168
11786SOL    HW239621   5.219   1.260   5.332  0.2352 -0.1310  0.3977
11788SOL     OW39622   0.604   9.248   5.500 -0.3117 -0.0278 -0.4469
11788SOL    HW139623   0.585   9.329   5.555  0.3740  0.6531 -1.1890
11788SOL    HW239624   0.588   9.269   5.403  0.5983 -0.5374 -0.7190
11789SOL     OW39625   7.788   2.409   4.934 -0.0860 -0.7244  0.2163
11789SOL    HW139626   7.858   2.384   5.001  0.5836 -0.0303 -0.2231
11789SOL    HW239627   7.698   2.405   4.977  0.3855  0.3064  1.3357
11791SOL     OW39628   2.966   6.631   6.617  0.3877  0.3313  0.4048
11791SOL    HW139629   2.959   6.543   6.569  2.3223  0.6450 -0.5255
11791SOL    HW239630   3.030   6.622   6.693 -0.2863  0.6494  1.0105
11792SOL     OW39631   4.943   3.582   6.168  0.1969  0.1771  0.4047
11792SOL    HW139632   5.008   3.514   6.134  1.1662  0.4642  1.6399
11792SOL    HW239633   4.863   3.584   6.109  2.3008  1.4694 -2.5768
11793SOL     OW39634   9.265   2.659   0.236 -0.4068  0.1924  0.0331
11793SOL    HW139635   9.304   2.668   0.145  0.5870  0.6014  0.4960
11793SOL    HW239636   9.168   2.684   0.233 -0.3620  0.2664 -0.8970
11794SOL     OW39637   0.235   9.458   0.652  0.3207  0.0090 -0.2180
11794SOL    HW139638   0.214   9.509   0.735 -0.6068  0.4634 -0.7300
11794SOL    HW239639   0.330   9.475   0.625  0.8371 -0.6608  1.1072
11795SOL     OW39640   3.929   1.966   2.054 -0.4944  0.3787  0.1581
11795SOL    HW139641   4.002   1.900   2.034  1.1105  2.4421 -1.0017
11795SOL    HW239642   3.849   1.946   1.997  0.2020 -0.2185 -0.6202
11796SOL     OW39643   8.105   9.312   4.020 -0.1784  0.6576 -0.7850
11796SOL    HW139644   8.151   9.223   4.012  0.4813  1.1052 -2.0376
11796SOL    HW239645   8.131   9.370   3.943 -1.6082  1.4893 -0.6562
11798SOL     OW39646   1.507   2.599   4.513  0.1009  0.1867  0.2965
11798SOL    HW139647   1.414   2.633   4.506 -0.0101  0.0042  0.8529
11798SOL    HW239648   1.506   2.503   4.541  0.4534  0.2464  0.5294
11799SOL     OW39649   4.824   0.965   6.298  0.0660 -0.2491 -0.0182
11799SOL    HW139650   4.812   0.919   6.210 -1.6077 -1.2669  0.7130
11799SOL    HW239651   4.797   1.060   6.290 -1.1057 -0.6035 -0.3522
11800SOL     OW39652   7.687   8.924   1.362  0.4510 -0.2317 -0.4183
11800SOL    HW139653   7.706   9.022   1.356  1.1710 -0.3823 -0.7019
11800SOL    HW239654   7.756   8.881   1.420 -0.2670 -0.4669  0.2674
11803SOL     OW39655   4.291   4.185   2.059 -0.1712  0.3921  0.4531
11803SOL    HW139656   4.295   4.265   2.119 -1.8876  0.8843 -0.0614
11803SOL    HW239657   4.226   4.119   2.097 -1.2017  0.6662 -0.8115
11806SOL     OW39658   8.449   8.709   2.265 -0.3041 -0.2387  0.1633
11806SOL    HW139659   8.534   8.661   2.287  0.2976  0.9985  0.6122
11806SOL    HW239660   8.463   8.765   2.183 -1.0438 -0.9627 -0.4561
11808SOL     OW39661   9.113   0.728   2.009 -0.1782  0.0530 -0.1170
11808SOL    HW139662   9.104   0.630   2.028 -0.5537 -0.0692 -0.9059
11808SOL    HW239663   9.063   0.780   2.078  0.6537 -0.2753  0.7519
11809SOL     OW39664   9.554   2.264   1.723 -0.1729  0.4058 -0.5328
11809SOL    HW139665   9.616   2.222   1.789 -1.3903 -0.4946  0.0566
11809SOL    HW239666   9.537   2.200   1.648 -0.1871  0.7454 -0.8182
11810SOL     OW39667   1.958   3.558   2.056  0.3387  0.2678  1.6051
11810SOL    HW139668   1.990   3.528   2.146  1.1890 -2.1373  0.5591
11810SOL    HW239669   1.859   3.547   2.050  0.4031 -0.5360  1.9109
11811SOL     OW39670   7.172   9.447   7.318  0.1437 -0.2260 -0.8743
11811SOL    HW139671   7.202   9.356   7.291 -1.9777 -1.2761  0.2112
11811SOL    HW239672   7.076   9.444   7.345  0.5540  1.9680  0.9495
11812SOL     OW39673   4.092   2.440   0.286 -0.0996  0.7834  0.2950
11812SOL    HW139674   4.024   2.491   0.234 -0.7722 -2.0511 -1.7320
11812SOL    HW239675   4.049   2.401   0.367 -0.2930  1.0417  0.3176
11813SOL     OW39676   1.438   3.986   4.665  0.2790 -0.2501  0.6349
11813SOL    HW139677   1.398   3.924   4.732  1.2065  0.0341  1.4530
11813SOL    HW239678   1.524   3.948   4.631 -0.0843 -0.2972 -0.2441
11814SOL     OW39679   9.963   5.833   7.773  0.0424 -0.2302  0.1620
11814SOL    HW139680   9.929   5.814   7.864 -1.9471  0.9206 -0.3188
11814SOL    HW239681  10.063   5.837   7.775  0.0846 -1.6347  1.9831
11815SOL     OW39682   5.719   0.216   7.721 -0.4335  0.2483  0.7564
11815SOL    HW139683   5.713   0.312   7.749 -1.8298  0.6878 -0.9896
11815SOL    HW239684   5.627   0.180   7.706  0.1836 -0.7491 -0.6664
11816SOL     OW39685   2.579   4.526   1.101  0.4398 -0.1371 -0.6722
11816SOL    HW139686   2.502   4.510   1.162  1.3827  0.1016  0.5999
11816SOL    HW239687   2.659   4.475   1.134  1.4909  1.5284 -0.6070
11817SOL     OW39688   2.905   8.207   0.129  0.1828  0.0291  0.2237
11817SOL    HW139689   2.866   8.186   0.039  0.6113  0.3790 -0.0452
11817SOL    HW239690   2.997   8.168   0.135 -0.0896 -0.5417  0.7488
11818SOL     OW39691   1.217   2.346   6.634  0.1785 -0.0380  0.3479
11818SOL    HW139692   1.271   2.428   6.616 -0.2895  0.1140 -0.3835
11818SOL    HW239693   1.216   2.288   6.553  0.2343 -0.6147  0.7543
11819SOL     OW39694   2.936   0.884   7.435 -0.0279 -0.4558  0.3399
11819SOL    HW139695   3.008   0.827   7.475 -1.0756 -2.1990 -0.2049
11819SOL    HW239696   2.849   0.863   7.480 -0.2682  1.4476  0.8175
11820SOL     OW39697   2.925   9.889   3.626 -0.0288 -0.1920 -0.4690
11820SOL    HW139698   2.994   9.820   3.601  0.0718  0.8398 -3.2189
11820SOL    HW239699   2.898   9.876   3.722  1.1598 -3.0303 -0.4639
11822SOL     OW39700   2.199   8.545   4.611 -0.7163  0.3042 -0.3455
11822SOL    HW139701   2.216   8.528   4.514 -0.8867  1.4663 -0.5875
11822SOL    HW239702   2.255   8.484   4.666 -1.5848 -1.2639 -1.1828
11823SOL     OW39703   6.078   1.887   3.715  0.0293 -0.1292 -0.6078
11823SOL    HW139704   6.060   1.793   3.686  0.7863 -0.1693 -0.9798
11823SOL    HW239705   6.174   1.894   3.743 -0.0357  0.5259 -0.5529
11826SOL     OW39706   7.498   1.476   5.334  0.3373  0.3274 -0.4519
11826SOL    HW139707   7.414   1.471   5.280  1.5723 -0.0014 -2.3866
11826SOL    HW239708   7.511   1.390   5.383  0.4494 -0.2822 -1.5435
11827SOL     OW39709   9.941   3.893   2.753 -0.2266  0.0384 -0.7072
11827SOL    HW139710   9.886   3.961   2.801 -0.3562  0.1575 -1.0226
11827SOL    HW239711   9.907   3.801   2.777  0.1925  0.0656  0.0127
11828SOL     OW39712   1.198   3.475   5.038 -0.1841  0.6683 -0.1756
11828SOL    HW139713   1.167   3.394   4.988 -0.0936  1.1987 -1.1026
11828SOL    HW239714   1.288   3.458   5.077  0.8680  1.1370 -2.3571
11829SOL     OW39715   3.297   3.578   7.891 -0.2233 -0.3189  0.5028
11829SOL    HW139716   3.242   3.571   7.808  0.6233  2.2435 -0.2888
11829SOL    HW239717   3.378   3.633   7.874  0.9324 -1.3214  2.5420
11830SOL     OW39718   6.204   0.489   2.242  0.4782 -0.2571 -0.4234
11830SOL    HW139719   6.159   0.575   2.268  1.7234  0.0063  0.9426
11830SOL    HW239720   6.183   0.420   2.311 -0.6924 -1.1201 -1.6334
11831SOL     OW39721   6.348   5.137   7.866 -0.1550  0.1073  0.1658
11831SOL    HW139722   6.407   5.216   7.886 -1.1542  1.0696 -0.5858
11831SOL    HW239723   6.299   5.110   7.949  0.8888 -0.3181  0.6507
11833SOL     OW39724   9.226   1.614   2.120 -0.3811 -0.5792  0.2522
11833SOL    HW139725   9.266   1.706   2.122 -0.8529 -0.3398 -0.6747
11833SOL    HW239726   9.295   1.548   2.091  0.5656 -0.8654  3.0669
11834SOL     OW39727   5.725   1.466   7.052 -0.0069 -0.2646 -0.3169
11834SOL    HW139728   5.761   1.373   7.055 -1.9588 -1.1031 -1.3225
11834SOL    HW239729   5.783   1.522   6.994  2.3115 -0.3103  1.9030
11835SOL     OW39730   9.234   3.298   0.236 -0.3639  0.0053  0.0073
11835SOL    HW139731   9.184   3.228   0.185  0.7699  0.3114 -1.5384
11835SOL    HW239732   9.273   3.257   0.319  0.8089 -1.3593 -1.1880
11836SOL     OW39733   0.990   5.201   4.128 -0.2555 -0.3692 -0.2935
11836SOL    HW139734   0.970   5.249   4.214 -0.5028  2.1353 -1.7207
11836SOL    HW239735   1.076   5.150   4.138  0.3998  0.9526  1.0126
11837SOL     OW39736   3.032   3.604   4.905  0.1605  0.0412 -0.4050
11837SOL    HW139737   2.997   3.690   4.869  0.7043  0.3336 -0.2358
11837SOL    HW239738   3.094   3.622   4.982 -0.3982 -0.5418  0.1877
11838SOL     OW39739   1.047   7.086   3.885 -0.4185 -0.2778  0.3076
11838SOL    HW139740   1.073   7.175   3.849  1.1760 -0.7163  0.3288
11838SOL    HW239741   1.006   7.031   3.812 -0.8497  0.2538  0.1488
11839SOL     OW39742   9.155   2.482   5.471 -0.2158  0.1986  0.4414
11839SOL    HW139743   9.116   2.568   5.504 -0.1397  0.2322  0.4438
11839SOL    HW239744   9.112   2.406   5.520 -0.7917  0.1949 -0.0658
11840SOL     OW39745   6.068   2.661   0.912  0.0767  0.3978 -0.1445
11840SOL    HW139746   6.006   2.601   0.863  0.3726 -0.3341  0.3559
11840SOL    HW239747   6.043   2.757   0.897 -0.1956  0.1556 -1.2119
11841SOL     OW39748   9.080   2.780   5.048 -0.0168  0.3105 -0.1185
11841SOL    HW139749   9.134   2.861   5.071  1.4457 -1.1739  1.7844
11841SOL    HW239750   9.009   2.805   4.982  0.9022  2.9697 -0.1421
11842SOL     OW39751   1.907   3.475   7.046 -0.1808  0.3240 -0.1702
11842SOL    HW139752   1.932   3.379   7.035  0.5101  0.2997  1.3919
11842SOL    HW239753   1.980   3.534   7.011 -0.9603  0.2973 -1.8773
11843SOL     OW39754   5.879   8.253   5.340  0.2529  0.7269 -0.6307
11843SOL    HW139755   5.829   8.336   5.366 -0.9615 -0.1830 -0.0560
11843SOL    HW239756   5.917   8.210   5.422 -1.2663 -0.6588 -0.6262
11844SOL     OW39757   3.676   5.473   1.830 -0.4057 -0.0448 -0.2318
11844SOL    HW139758   3.657   5.546   1.897  0.0009 -0.2679  0.1330
11844SOL    HW239759   3.618   5.485   1.750 -0.7632  0.3403  0.0817
11845SOL     OW39760   8.629   4.696   0.794 -0.1666  0.2489 -0.5395
11845SOL    HW139761   8.712   4.749   0.808 -1.2613  1.8479  0.0621
11845SOL    HW239762   8.572   4.740   0.724 -1.6091  0.5293  0.7768
11846SOL     OW39763   8.577   5.120   0.938 -0.0468 -1.0424  0.3691
11846SOL    HW139764   8.520   5.201   0.921 -0.7225 -1.3709  1.0236
11846SOL    HW239765   8.590   5.109   1.037  2.7236  0.0921  0.1824
11847SOL     OW39766   4.156   3.314   0.704 -0.0426 -0.5171 -0.1211
11847SOL    HW139767   4.159   3.266   0.617 -0.2568 -0.9757  0.1231
11847SOL    HW239768   4.061   3.332   0.729  0.0183 -0.3790  0.0112
11848SOL     OW39769   2.849   3.918   3.782  0.4978 -0.1900 -0.8376
11848SOL    HW139770   2.756   3.938   3.751  0.2914  0.4196  0.1346
11848SOL    HW239771   2.846   3.885   3.876  1.1282 -1.8001 -1.3632
11851SOL     OW39772   8.090   8.727   1.489  0.3367  0.4133 -0.5782
11851SOL    HW139773   8.001   8.744   1.532 -0.7546 -2.3129 -1.6444
11851SOL    HW239774   8.124   8.638   1.519  0.7012 -0.4374 -3.4256
11853SOL     OW39775   1.195   5.928   2.283 -0.2107 -0.3815 -0.3246
11853SOL    HW139776   1.186   5.946   2.381 -1.0020 -0.0177 -0.4616
11853SOL    HW239777   1.232   5.837   2.269  1.5250  0.2087  0.3453
11855SOL     OW39778   1.880   0.311   0.006  0.1226  0.1083  0.2945
11855SOL    HW139779   1.927   0.254  -0.062 -0.4899  2.0691 -1.8475
11855SOL    HW239780   1.804   0.260   0.046  0.3552 -0.9986 -0.6441
11857SOL     OW39781   1.622   3.305   3.064 -0.3601  0.0323 -0.2100
11857SOL    HW139782   1.594   3.269   2.975  1.1104 -0.0155 -0.6596
11857SOL    HW239783   1.554   3.372   3.095 -1.4133 -0.7007 -0.8794
11858SOL     OW39784   4.788   9.029   5.650 -0.5580  0.1968  0.1626
11858SOL    HW139785   4.691   9.048   5.637 -0.8947 -2.1744 -1.0336
11858SOL    HW239786   4.815   8.952   5.592  1.3814 -0.9988  2.5571
11859SOL     OW39787   1.538   5.653   1.225 -0.0943  0.5114 -0.2357
11859SOL    HW139788   1.513   5.597   1.304 -2.9234  0.2993 -1.2262
11859SOL    HW239789   1.473   5.729   1.216  0.2456  0.5956 -2.2732
11862SOL     OW39790   7.337   9.294   4.306 -0.7109 -0.5129  0.0692
11862SOL    HW139791   7.372   9.342   4.225  0.2748  0.7965  1.2487
11862SOL    HW239792   7.334   9.196   4.288  2.7557 -0.5868 -0.4040
11863SOL     OW39793   5.013   2.976   1.084  0.0564  0.1736 -0.1594
11863SOL    HW139794   4.950   2.993   1.160  0.4372  0.9969 -0.0182
11863SOL    HW239795   5.056   2.887   1.097 -0.9879 -0.3399 -0.2007
11864SOL     OW39796   2.338   7.418   5.857  0.1517 -0.1717  0.1237
11864SOL    HW139797   2.409   7.489   5.857  0.0150 -0.0362 -0.2115
11864SOL    HW239798   2.287   7.422   5.942  1.3900 -1.1092  0.9422
11865SOL     OW39799   9.980   8.307   7.615 -0.2076 -0.0922 -0.2340
11865SOL    HW139800   9.961   8.370   7.539 -0.9497  1.2955  1.0823
11865SOL    HW239801  10.075   8.276   7.610  0.3957  1.7687 -0.4363
11867SOL     OW39802   0.826   4.905   5.911 -0.0847  0.4857 -0.0286
11867SOL    HW139803   0.787   4.821   5.872  1.8206  0.3526 -1.7432
11867SOL    HW239804   0.819   4.979   5.843  1.2527  0.8464  0.2253
11869SOL     OW39805   5.967   1.746   4.004 -0.2697  1.0435 -0.0529
11869SOL    HW139806   6.052   1.699   3.979 -0.9687 -0.0014 -0.5065
11869SOL    HW239807   5.927   1.787   3.922 -1.8904 -1.2705 -0.4630
11871SOL     OW39808   3.625   9.676   3.832 -0.1738  0.7168 -0.0105
11871SOL    HW139809   3.615   9.753   3.769 -1.5861  1.2227  0.8200
11871SOL    HW239810   3.639   9.592   3.779 -2.4133  0.9606 -1.0379
11872SOL     OW39811   4.662   0.131   2.038  0.1412  0.4707 -0.6487
11872SOL    HW139812   4.736   0.141   1.971 -0.1084  1.7038 -0.7408
11872SOL    HW239813   4.587   0.191   2.015 -0.3592  0.1844  0.1939
11873SOL     OW39814   6.626   8.773   5.343 -0.0669 -0.3451 -0.1990
11873SOL    HW139815   6.624   8.747   5.439 -0.5836 -0.6635 -0.2914
11873SOL    HW239816   6.590   8.866   5.333  0.7581 -0.0035  0.0071
11874SOL     OW39817   3.000   3.755   7.016  0.2978 -0.2429 -0.1506
11874SOL    HW139818   3.004   3.844   6.971  0.1274 -0.3232 -0.3272
11874SOL    HW239819   2.905   3.732   7.035  0.4044  0.0064  0.6833
11875SOL     OW39820   6.170   9.148   2.220 -0.0341 -0.4169  0.0617
11875SOL    HW139821   6.133   9.150   2.313  1.9677 -0.6743  0.8817
11875SOL    HW239822   6.243   9.080   2.214  1.1900  0.9821 -1.1978
11876SOL     OW39823   4.601   6.531   3.084  0.3119 -0.5492  0.1454
11876SOL    HW139824   4.549   6.613   3.060  0.9135  0.0031  0.7037
11876SOL    HW239825   4.665   6.510   3.010  1.3348  0.4675  0.7255
11877SOL     OW39826   0.274   4.093   6.882  0.5867  0.4621  0.6032
11877SOL    HW139827   0.282   4.185   6.921  0.7782  1.0645 -0.8040
11877SOL    HW239828   0.208   4.040   6.934  1.5000  0.9334  2.2859
11878SOL     OW39829   5.839   1.119   7.340 -0.3653  0.4191  0.3277
11878SOL    HW139830   5.895   1.053   7.389  1.1893  0.8990 -0.7674
11878SOL    HW239831   5.769   1.071   7.287  0.8686 -0.3669 -0.6062
11881SOL     OW39832   8.118   7.648   3.681 -0.4841  0.2349  0.1075
11881SOL    HW139833   8.132   7.638   3.583 -0.2704  1.6829 -0.0285
11881SOL    HW239834   8.112   7.746   3.704 -0.4039 -0.0841  1.5428
11883SOL     OW39835   2.008   5.916   4.269  0.6030  0.1356  0.2932
11883SOL    HW139836   2.085   5.890   4.328 -0.6382  0.6391  2.2102
11883SOL    HW239837   1.926   5.927   4.325 -0.0050  3.4022 -1.1065
11884SOL     OW39838   9.024   7.045   6.670  0.2889  0.1910  0.2596
11884SOL    HW139839   9.115   7.083   6.650 -0.6692  1.4135 -2.0068
11884SOL    HW239840   9.017   6.953   6.633  0.6981 -0.0319  0.7276
11885SOL     OW39841   9.098   4.542   7.733 -0.0230  0.0793 -0.0432
11885SOL    HW139842   9.096   4.452   7.776 -2.7099 -0.7447 -1.7570
11885SOL    HW239843   9.159   4.540   7.654 -1.2908 -0.7494 -1.0334
11886SOL     OW39844   9.935   6.407   5.806 -0.1001 -0.1983 -0.4200
11886SOL    HW139845   9.852   6.353   5.818 -0.8016  1.3968  2.1895
11886SOL    HW239846   9.992   6.401   5.887  0.4785  1.8350 -0.6418
11887SOL     OW39847   7.966   5.036   3.961  0.0442 -0.1085 -0.1008
11887SOL    HW139848   8.028   5.111   3.984 -1.2571  1.1847 -0.7103
11887SOL    HW239849   7.871   5.068   3.967 -0.5505 -1.8447  0.1027
11888SOL     OW39850   5.449   2.465   1.032  0.5420 -0.1916  0.6357
11888SOL    HW139851   5.497   2.552   1.035 -0.5724  0.4386  0.3823
11888SOL    HW239852   5.489   2.407   0.961  0.6516  0.4861  0.1392
11890SOL     OW39853   4.199   9.126   2.773 -1.1172 -0.2250 -0.2780
11890SOL    HW139854   4.151   9.080   2.848  0.1192 -1.2965 -0.1294
11890SOL    HW239855   4.243   9.209   2.808 -1.8524  0.1215 -0.1635
11893SOL     OW39856   9.386   9.812   0.250  0.0144 -0.1987 -0.4771
11893SOL    HW139857   9.462   9.862   0.292  0.6315 -0.8172 -0.8470
11893SOL    HW239858   9.318   9.791   0.320  0.7327 -0.6585  0.0975
11894SOL     OW39859   6.130   0.387   6.381 -0.1680  0.2961  0.2626
11894SOL    HW139860   6.133   0.426   6.289  2.9378  0.6435  0.4597
11894SOL    HW239861   6.046   0.333   6.392 -1.7167  2.1644 -1.9493
11895SOL     OW39862   1.670   7.181   1.033  0.3343  0.7025 -0.7902
11895SOL    HW139863   1.617   7.147   0.955 -1.4100  0.2672  0.5797
11895SOL    HW239864   1.703   7.104   1.087 -0.7371  1.0741  0.4074
11896SOL     OW39865   8.345   5.190   6.826  0.1708 -0.1047 -0.0230
11896SOL    HW139866   8.284   5.194   6.905 -0.9245  1.2488 -0.9143
11896SOL    HW239867   8.385   5.281   6.811  0.9516 -0.5320 -0.5853
11897SOL     OW39868   1.162   0.580   1.680  0.7306  0.2373 -0.0417
11897SOL    HW139869   1.154   0.484   1.653  1.9300 -0.1465  0.9684
11897SOL    HW239870   1.087   0.632   1.638 -0.7072 -1.3690  0.4767
11898SOL     OW39871   0.097   3.997   2.216 -0.1839  0.4595 -0.0331
11898SOL    HW139872   0.086   3.960   2.308 -2.7223  2.3193  0.4705
11898SOL    HW239873   0.071   4.093   2.215  0.0950  0.5551 -2.6297
11899SOL     OW39874   7.345   0.417   3.677 -0.0112 -0.1796 -0.1899
11899SOL    HW139875   7.279   0.360   3.724 -0.5330 -0.5917 -1.4023
11899SOL    HW239876   7.313   0.437   3.584  0.9791  0.6351 -0.3782
11900SOL     OW39877   0.168   3.833   5.924  0.6564  0.1411 -0.3986
11900SOL    HW139878   0.081   3.807   5.882  0.3527 -0.1709  0.4289
11900SOL    HW239879   0.226   3.877   5.855 -0.1786  0.4090 -0.9343
11901SOL     OW39880   0.474   8.789   7.817 -0.8466  0.0084 -0.0500
11901SOL    HW139881   0.544   8.824   7.755 -1.0137  1.2818  0.4747
11901SOL    HW239882   0.411   8.730   7.766  0.4305 -0.9138 -0.5800
11902SOL     OW39883   2.606   9.967   2.295  0.2845 -0.0509  0.5364
11902SOL    HW139884   2.604  10.044   2.232  0.5281  1.5422  2.4306
11902SOL    HW239885   2.520   9.964   2.347 -0.1635 -1.7107 -0.2456
11903SOL     OW39886   9.741   4.341   0.382  0.2898 -0.4201  0.0906
11903SOL    HW139887   9.787   4.310   0.465  0.3872  0.4503  0.3713
11903SOL    HW239888   9.726   4.440   0.388  0.0598 -0.3991 -0.8111
11906SOL     OW39889   9.134   6.588   0.516 -0.0579  0.2650 -0.1173
11906SOL    HW139890   9.038   6.572   0.492  0.2515 -1.7088 -0.0563
11906SOL    HW239891   9.145   6.684   0.543 -1.8005  0.7823 -1.1219
11907SOL     OW39892   9.417   8.269   2.546  0.4248 -0.4497 -0.2333
11907SOL    HW139893   9.368   8.271   2.459  0.9697 -0.9956 -0.5612
11907SOL    HW239894   9.362   8.313   2.616 -0.5628 -1.1081 -0.5787
11908SOL     OW39895   8.476   4.141   0.501  0.0523 -0.4455 -0.3136
11908SOL    HW139896   8.481   4.059   0.445  0.0341 -0.9435  0.4090
11908SOL    HW239897   8.498   4.118   0.596 -0.9035  0.2112  0.0699
11909SOL     OW39898   8.624   4.251   0.858  0.8909  0.0419  0.1232
11909SOL    HW139899   8.594   4.313   0.786  1.3754  1.7045  1.3256
11909SOL    HW239900   8.662   4.303   0.935 -0.0883 -1.6552  1.8215
11912SOL     OW39901   1.297   5.697   4.789  0.5321 -0.4248  0.4198
11912SOL    HW139902   1.238   5.625   4.752 -0.3472 -0.3756  1.6913
11912SOL    HW239903   1.354   5.659   4.862  2.8016 -0.7029 -1.4552
11913SOL     OW39904   7.844   8.548   6.769  0.0344 -0.7331  0.1794
11913SOL    HW139905   7.874   8.551   6.674 -4.2098 -2.8133 -1.3310
11913SOL    HW239906   7.855   8.456   6.805 -0.2327 -0.4339  1.0488
11915SOL     OW39907   2.089   4.977   1.510 -0.3969  0.4402 -0.6923
11915SOL    HW139908   2.060   4.966   1.605 -1.8407  0.0252 -1.1773
11915SOL    HW239909   2.031   4.922   1.451  0.4829  0.7192 -1.8289
11916SOL     OW39910   9.466   4.213   0.414  0.5707  0.0675 -0.5251
11916SOL    HW139911   9.560   4.208   0.446 -0.5969 -1.8838  2.8329
11916SOL    HW239912   9.427   4.302   0.439  1.0913  0.3359 -0.6614
11917SOL     OW39913   6.647   8.507   5.884 -0.2616  0.0550  0.4957
11917SOL    HW139914   6.653   8.523   5.982  0.6144 -0.9018  0.6168
11917SOL    HW239915   6.734   8.469   5.852  0.0986  2.0200 -0.9697
11918SOL     OW39916   6.880   3.473   1.033  0.3265  0.1180  0.0800
11918SOL    HW139917   6.919   3.557   0.995  0.1751 -0.2342 -0.8577
11918SOL    HW239918   6.835   3.493   1.120 -3.9368  1.9300 -2.4289
11919SOL     OW39919   9.049   9.014   6.551  0.0871 -0.0355 -0.2604
11919SOL    HW139920   8.978   8.986   6.486  0.7095 -1.0504 -0.5244
11919SOL    HW239921   9.012   9.013   6.644 -0.5116  0.3780 -0.4920
11921SOL     OW39922   2.651   5.976   5.282 -0.4817  0.2389  0.0315
11921SOL    HW139923   2.605   5.936   5.361  0.9139 -0.5433  0.4659
11921SOL    HW239924   2.746   5.997   5.306  0.1614 -0.6587 -1.6380
11922SOL     OW39925   9.478   4.544   4.671  0.1370 -0.2978  0.1496
11922SOL    HW139926   9.496   4.476   4.742  0.4445 -0.3793 -0.0056
11922SOL    HW239927   9.391   4.523   4.626  0.8142 -1.2973 -0.7173
11923SOL     OW39928   8.146   4.040   5.238  0.6409 -0.0976  0.0099
11923SOL    HW139929   8.076   3.980   5.199  0.1968  0.8954 -0.7536
11923SOL    HW239930   8.211   3.986   5.291 -0.3997 -1.1004  0.2831
11924SOL     OW39931   9.025   8.080   2.530  0.0831  0.2837  0.3537
11924SOL    HW139932   8.973   8.115   2.453  1.1569  0.0222 -0.5129
11924SOL    HW239933   9.076   7.998   2.502 -1.0789 -1.0073  1.8905
11925SOL     OW39934   7.310   0.736   7.945  0.0908 -0.3212 -0.1315
11925SOL    HW139935   7.280   0.744   7.851 -1.2094  0.2973  0.3277
11925SOL    HW239936   7.236   0.762   8.007  1.7012  1.7064  1.0305
11927SOL     OW39937   1.080   9.668   5.384 -0.3817  0.5882 -0.2152
11927SOL    HW139938   1.017   9.658   5.307 -1.9132  0.9916  0.9408
11927SOL    HW239939   1.087   9.581   5.433 -0.9202  0.8267  0.2975
11929SOL     OW39940   8.555   6.684   0.982 -0.3602 -0.0911  0.3121
11929SOL    HW139941   8.471   6.631   0.968  0.1522 -1.3490  1.8606
11929SOL    HW239942   8.630   6.622   1.001  0.0845  1.2321  3.0492
11930SOL     OW39943   7.755   2.901   3.806  0.1756 -0.1100  0.0921
11930SOL    HW139944   7.788   2.812   3.839  0.5440  0.1849  0.5382
11930SOL    HW239945   7.810   2.974   3.847 -0.6083  0.3632  0.3285
11931SOL     OW39946   0.964   2.737   3.804 -0.4860 -0.5649  0.7330
11931SOL    HW139947   0.875   2.695   3.782 -0.2005 -1.2324  0.8431
11931SOL    HW239948   1.023   2.734   3.723 -1.4828  2.2766 -0.1317
11932SOL     OW39949   1.737   7.012   4.673 -0.3409  0.4776 -0.2668
11932SOL    HW139950   1.734   6.993   4.771 -1.3922 -2.2576 -0.7987
11932SOL    HW239951   1.649   7.048   4.644 -0.1691  0.8678 -0.3139
11933SOL     OW39952   3.122   9.771   1.219 -0.0257  0.1063  0.6185
11933SOL    HW139953   3.149   9.853   1.169  0.1945 -0.3058  0.0572
11933SOL    HW239954   3.050   9.724   1.168 -0.3960  0.1321  1.1134
11935SOL     OW39955   6.954   5.517   0.520 -0.0033  0.1309 -0.2749
11935SOL    HW139956   6.971   5.506   0.422 -0.1623  0.1358 -0.3026
11935SOL    HW239957   7.035   5.487   0.572 -0.0922 -0.3095 -0.3875
11936SOL     OW39958   9.615   6.560   1.942  0.3632 -0.0059  0.4864
11936SOL    HW139959   9.531   6.592   1.898  0.4803 -0.6592 -0.2186
11936SOL    HW239960   9.636   6.467   1.910  0.7912 -0.2485  1.4415
11937SOL     OW39961   5.213   7.720   6.715 -0.1900 -0.0735  0.2170
11937SOL    HW139962   5.285   7.729   6.647 -0.8819 -0.3297 -0.5597
11937SOL    HW239963   5.162   7.635   6.699 -1.0736  0.4212  0.3445
11938SOL     OW39964   2.379   7.311   7.062  0.4934  0.6595  0.1099
11938SOL    HW139965   2.305   7.366   7.099  0.4584  1.3089 -0.9176
11938SOL    HW239966   2.434   7.366   6.998  2.2072  0.3627  1.2799
11939SOL     OW39967   1.807   7.572   5.410  0.1235 -0.3125 -0.3917
11939SOL    HW139968   1.757   7.656   5.386  2.2246  0.4149 -2.3759
11939SOL    HW239969   1.751   7.517   5.472 -1.6046  2.2026  0.3841
11940SOL     OW39970   1.806   4.984   3.820  0.5497 -0.2860  0.2498
11940SOL    HW139971   1.808   5.039   3.737 -0.4054 -0.5491  0.0539
11940SOL    HW239972   1.756   4.900   3.804 -0.3778  0.0436  1.3267
11941SOL     OW39973   1.838   8.261   2.764 -0.3104 -0.5468 -0.4252
11941SOL    HW139974   1.827   8.264   2.665 -0.0738 -0.1497 -0.4424
11941SOL    HW239975   1.780   8.190   2.802  0.5394 -1.5573 -0.9823
11942SOL     OW39976   7.221   9.545   2.400  0.1234  0.7789 -0.1979
11942SOL    HW139977   7.125   9.559   2.425  0.2706  1.7785 -0.1634
11942SOL    HW239978   7.228   9.474   2.330 -0.6521  0.7728 -0.2678
11943SOL     OW39979   9.029   7.644   2.796  0.3504 -0.4854 -0.9211
11943SOL    HW139980   9.069   7.716   2.852  0.4497 -0.3329 -1.1905
11943SOL    HW239981   9.101   7.591   2.752  0.2657 -0.4008 -1.1644
11944SOL     OW39982   1.789   1.287   0.926  0.2264  0.1755  0.3161
11944SOL    HW139983   1.731   1.363   0.959 -0.4264  0.1423 -0.7323
11944SOL    HW239984   1.836   1.246   1.004 -0.9472  0.3917  1.1669
11945SOL     OW39985   2.283   7.052   3.183  0.0442  0.6523 -0.5359
11945SOL    HW139986   2.315   7.081   3.273 -3.3806  2.5272  0.1664
11945SOL    HW239987   2.277   6.952   3.181  2.1971  0.4679  0.5511
11946SOL     OW39988   4.175   9.415   3.522 -0.3981  0.3807  0.6515
11946SOL    HW139989   4.237   9.338   3.509  0.9626  1.3811  1.0255
11946SOL    HW239990   4.121   9.400   3.605 -1.0583 -0.7558  0.0226
11947SOL     OW39991   1.249   8.551   2.002 -0.3153  0.7828  0.2608
11947SOL    HW139992   1.235   8.470   2.060  0.4372  0.7865  0.4540
11947SOL    HW239993   1.297   8.621   2.054  0.8452  0.5883 -0.5284
11949SOL     OW39994   9.094   3.947   5.614  0.1222 -0.3944 -0.1387
11949SOL    HW139995   9.062   3.864   5.659  0.2967  0.1610  1.0298
11949SOL    HW239996   9.189   3.965   5.639 -0.4185  1.0543  0.9759
11950SOL     OW39997   2.537   2.746   6.801 -0.0031 -0.3940 -0.0384
11950SOL    HW139998   2.537   2.846   6.801 -0.0309 -0.3814  1.7771
11950SOL    HW239999   2.620   2.712   6.756  0.1301  0.4431 -0.4255
11951SOL     OW40000   1.821   1.505   3.169  0.8835 -0.7181  0.7185
11951SOL    HW140001   1.869   1.421   3.145  0.8893 -0.3378 -0.6909
11951SOL    HW240002   1.768   1.492   3.252  1.2135 -1.9818  0.7315
11952SOL     OW40003   6.970   6.992   5.621  0.4235 -0.2389  0.6005
11952SOL    HW140004   6.921   7.072   5.584  0.2833 -0.5228  0.1652
11952SOL    HW240005   6.929   6.966   5.708 -0.6243 -0.8590 -0.0574
11953SOL     OW40006   8.829   9.092   4.725 -0.3578 -0.3692 -0.4732
11953SOL    HW140007   8.898   9.078   4.653  2.3445 -0.0481  1.9798
11953SOL    HW240008   8.779   9.007   4.739 -0.9883 -0.4277 -2.7525
11954SOL     OW40009   5.964   3.677   0.722  0.7239 -0.5060  0.3737
11954SOL    HW140010   5.978   3.672   0.821  2.0635 -0.1598  0.2118
11954SOL    HW240011   5.866   3.681   0.702  0.4554 -0.3622  1.6923
11955SOL     OW40012   4.715   0.249   7.756  0.1338  0.1712 -0.9575
11955SOL    HW140013   4.755   0.202   7.677 -2.4799 -1.6266 -1.2808
11955SOL    HW240014   4.672   0.334   7.725  2.3972  1.3846 -0.8329
11956SOL     OW40015   2.098   0.636   5.418 -0.4566 -0.1696  0.3188
11956SOL    HW140016   2.122   0.539   5.427 -0.5249 -0.2465 -0.3018
11956SOL    HW240017   2.002   0.649   5.442  0.0211  0.0392  2.1926
11958SOL     OW40018   4.568   9.455   6.486  0.5694  0.4922  0.1143
11958SOL    HW140019   4.611   9.513   6.418  0.4340 -0.2341 -0.5982
11958SOL    HW240020   4.495   9.505   6.532 -0.9675  0.2299 -1.9785
11959SOL     OW40021   0.487   6.271   6.948  0.2219  0.3740 -0.5932
11959SOL    HW140022   0.579   6.243   6.973 -0.3602  0.3767  1.6493
11959SOL    HW240023   0.477   6.370   6.958  0.1604  0.4638 -1.4790
11960SOL     OW40024   4.041   0.607   6.145  0.3948  0.3306 -0.2462
11960SOL    HW140025   4.019   0.576   6.238 -1.3905  0.8591 -0.4698
11960SOL    HW240026   4.124   0.662   6.147  1.1182 -0.7787  0.8320
11961SOL     OW40027   8.558   6.199   6.238 -0.1297  0.0026  0.6725
11961SOL    HW140028   8.521   6.266   6.302 -0.2198  1.4425 -0.8816
11961SOL    HW240029   8.563   6.238   6.147 -0.0260 -2.0512 -0.2334
11962SOL     OW40030   0.683   5.186   6.207  0.3132 -0.6212  0.3472
11962SOL    HW140031   0.633   5.101   6.192  0.1371 -0.1041 -2.2188
11962SOL    HW240032   0.631   5.245   6.269 -0.7613 -1.3614  0.1585
11963SOL     OW40033   8.971   2.791   7.372 -0.8845 -0.4486  0.2913
11963SOL    HW140034   9.007   2.874   7.415  0.9228 -1.4802  0.7837
11963SOL    HW240035   8.947   2.811   7.277 -0.0768  0.5319  0.2846
11964SOL     OW40036   2.580   3.436   2.616 -0.0890  0.2810  0.4492
11964SOL    HW140037   2.654   3.494   2.584  1.4841 -2.0112 -0.2164
11964SOL    HW240038   2.518   3.416   2.540 -0.2653  0.5428  0.5230
11966SOL     OW40039   2.773   7.873   2.170 -0.5940  0.0624 -0.2313
11966SOL    HW140040   2.790   7.801   2.103 -0.2061 -1.5716  1.5803
11966SOL    HW240041   2.830   7.952   2.150  0.0074 -0.6656 -1.4305
11967SOL     OW40042   5.726   1.926   1.110 -1.0495 -0.1173  0.6526
11967SOL    HW140043   5.773   1.979   1.181  1.3737 -2.4234  0.8042
11967SOL    HW240044   5.743   1.829   1.123 -0.8443 -0.6212 -2.9176
11968SOL     OW40045   4.235   8.783   5.389 -0.0050 -0.1309  0.2194
11968SOL    HW140046   4.233   8.686   5.365  1.0407 -0.1908  0.3712
11968SOL    HW240047   4.185   8.835   5.319 -1.3696 -0.8700  0.6234
11970SOL     OW40048   9.721   4.554   6.284  0.2343  0.1399  0.0993
11970SOL    HW140049   9.650   4.609   6.240  0.3144  0.8832  0.8767
11970SOL    HW240050   9.779   4.613   6.340  1.4014 -0.4872 -0.4441
11971SOL     OW40051   0.648   2.123   0.439  0.4421  0.1415 -0.3204
11971SOL    HW140052   0.672   2.220   0.436 -1.0120  0.4878 -1.0963
11971SOL    HW240053   0.593   2.100   0.359 -0.0649 -1.1028  0.3797
11973SOL     OW40054   7.965   1.897   5.314  0.1857 -0.1806 -0.2985
11973SOL    HW140055   7.981   1.859   5.223 -1.0954 -0.9671 -0.2107
11973SOL    HW240056   7.883   1.954   5.312  0.3538  0.0824  0.2850
11974SOL     OW40057   9.804   3.009   1.827 -0.4367  0.2164 -0.0801
11974SOL    HW140058   9.856   2.926   1.804  0.5027  0.3360  1.4955
11974SOL    HW240059   9.719   2.983   1.873 -0.5306  0.1053 -0.3158
11975SOL     OW40060   9.080   4.806   5.014  0.2453  0.2690  0.7084
11975SOL    HW140061   8.986   4.785   5.043  0.3736  0.4045  1.2260
11975SOL    HW240062   9.084   4.809   4.915 -0.6207  1.6651  0.6878
11976SOL     OW40063   3.835   7.060   5.057 -0.3299 -0.5504 -0.0676
11976SOL    HW140064   3.829   7.153   5.094 -0.0474 -1.4560  2.3081
11976SOL    HW240065   3.922   7.048   5.010  0.1397  0.0005  0.6622
11977SOL     OW40066   2.483   9.310   5.923 -0.7970 -0.1626  0.2062
11977SOL    HW140067   2.387   9.337   5.917 -0.8485 -0.0179  1.5245
11977SOL    HW240068   2.539   9.389   5.946 -0.5393 -0.5201  0.8323
11979SOL     OW40069   1.007   1.816   5.856  0.5827 -0.1106  0.3724
11979SOL    HW140070   0.968   1.794   5.946  0.2909 -1.5742 -0.1014
11979SOL    HW240071   0.940   1.866   5.801  0.1749 -0.6651  0.3662
11980SOL     OW40072   0.434   2.042   3.036 -0.1797  0.9964 -0.0891
11980SOL    HW140073   0.491   1.981   3.092 -0.7061  0.9645  0.4216
11980SOL    HW240074   0.490   2.118   3.004  1.1706 -1.1095 -2.9725
11981SOL     OW40075   3.590   9.747   0.030 -0.3176  1.0040  0.2956
11981SOL    HW140076   3.536   9.672   0.069  0.7457  0.1099  0.1074
11981SOL    HW240077   3.597   9.821   0.096  0.9984 -0.2625  1.6336
11983SOL     OW40078   4.027   0.083   0.906  0.5943  0.0293  0.3969
11983SOL    HW140079   3.983   0.026   0.837 -0.4073 -0.2500  1.2523
11983SOL    HW240080   4.124   0.091   0.886  0.2089  0.4497 -1.3824
11985SOL     OW40081   2.757   1.510   1.552  0.1938  0.2606  0.3382
11985SOL    HW140082   2.717   1.501   1.643 -0.5760  1.0589  0.0823
11985SOL    HW240083   2.855   1.488   1.556 -0.1083 -1.0076  1.0956
11987SOL     OW40084   3.134   9.735   5.000 -0.2234  0.6864  0.0197
11987SOL    HW140085   3.079   9.816   5.019  1.4358  1.9487 -0.5108
11987SOL    HW240086   3.212   9.732   5.063  0.2313 -0.0240 -0.5701
11988SOL     OW40087   5.213   2.630   6.778  0.1638  0.1404 -0.7324
11988SOL    HW140088   5.197   2.712   6.724 -0.3732  0.7978  0.4032
11988SOL    HW240089   5.229   2.552   6.717  1.2230  1.1849 -1.8149
11989SOL     OW40090   1.735   1.778   0.275  0.0718  0.4121 -0.4450
11989SOL    HW140091   1.661   1.752   0.214  0.6087 -0.6187 -0.6740
11989SOL    HW240092   1.732   1.721   0.358 -1.1877  2.3987  0.9064
11991SOL     OW40093   2.214   3.221   7.004  0.2767 -0.3548  0.0631
11991SOL    HW140094   2.221   3.153   7.077  0.1877  0.7532  1.1072
11991SOL    HW240095   2.291   3.284   7.009 -0.6668  0.7841  0.2781
11992SOL     OW40096   7.770   5.575   0.126  0.3856 -0.1602  0.2510
11992SOL    HW140097   7.736   5.502   0.067  0.9418  1.5375 -2.2511
11992SOL    HW240098   7.738   5.663   0.091  2.3577  1.0336  1.3539
11993SOL     OW40099   8.309   2.127   0.274  0.2696 -0.0380  0.4740
11993SOL    HW140100   8.274   2.089   0.359 -0.2464 -1.4302 -0.3414
11993SOL    HW240101   8.266   2.081   0.197 -0.0708  1.9595 -0.5547
11994SOL     OW40102   4.769   6.143   1.766  0.2418  0.6517 -0.1531
11994SOL    HW140103   4.815   6.198   1.835  1.4664 -0.3123 -0.1746
11994SOL    HW240104   4.809   6.160   1.677  0.6152 -0.2436 -0.1638
11996SOL     OW40105   8.998   6.837   0.377 -0.2882  0.2806  0.0170
11996SOL    HW140106   8.927   6.901   0.406 -0.2157  1.2770 -1.9209
11996SOL    HW240107   8.957   6.764   0.323 -0.1318 -0.3827  0.7857
11997SOL     OW40108   9.964   8.061   5.704 -0.0344  0.0036  0.1422
11997SOL    HW140109   9.947   7.964   5.685  0.7392 -0.5722  2.3031
11997SOL    HW240110   9.901   8.116   5.649 -1.1043 -1.7330 -0.4457
11998SOL     OW40111   4.667   0.206   3.711 -0.3168 -0.1564 -0.5283
11998SOL    HW140112   4.755   0.212   3.758 -1.1713  2.9033  0.8302
11998SOL    HW240113   4.595   0.238   3.772 -2.2299 -1.3862 -2.0715
11999SOL     OW40114   2.744   0.627   1.890 -0.3455 -0.5469 -0.0942
11999SOL    HW140115   2.759   0.717   1.931 -0.4939 -0.3255 -0.5151
11999SOL    HW240116   2.830   0.594   1.850  0.4925 -2.0020  2.7804
12000SOL     OW40117   4.180   4.086   6.881 -0.2146 -0.2223  0.3301
12000SOL    HW140118   4.237   4.093   6.963  0.3302 -0.3724 -0.0358
12000SOL    HW240119   4.200   4.000   6.834 -0.3643 -0.0344 -0.0825
12001SOL     OW40120   9.397   8.108   6.530 -0.1911  0.7004 -0.3798
12001SOL    HW140121   9.350   8.197   6.525  0.1753  0.8398 -1.6874
12001SOL    HW240122   9.494   8.123   6.547 -0.3571  0.4773  0.8032
12002SOL     OW40123   6.976   1.328   2.155  0.5519  0.3155 -0.1499
12002SOL    HW140124   7.025   1.327   2.242 -0.1048 -0.5380  0.2217
12002SOL    HW240125   6.961   1.234   2.124 -0.4864  0.5678 -0.4464
12003SOL     OW40126   0.494   7.293   3.430  0.3909  0.5485 -0.3995
12003SOL    HW140127   0.575   7.308   3.372  0.4160  0.4256 -0.3952
12003SOL    HW240128   0.513   7.325   3.523  0.6067  0.0606 -0.2743
12004SOL     OW40129   5.238   3.698   0.510  0.2429  0.6354 -0.0994
12004SOL    HW140130   5.148   3.687   0.468  0.5906 -0.0663 -0.6693
12004SOL    HW240131   5.229   3.749   0.595 -0.9718 -0.9904  0.7923
12006SOL     OW40132   2.075   3.564   4.665  0.0358 -0.4182  0.5369
12006SOL    HW140133   2.135   3.638   4.697  0.6018 -0.6930  0.1141
12006SOL    HW240134   2.079   3.558   4.565 -0.8018 -0.3548  0.4931
12007SOL     OW40135   8.814   4.064   2.361 -0.1514  0.4500 -0.1534
12007SOL    HW140136   8.852   4.043   2.451 -0.3373 -1.4109 -0.4888
12007SOL    HW240137   8.842   3.994   2.295 -0.6612  1.3624 -1.3679
12009SOL     OW40138   7.181   8.034   7.523  0.6055 -0.0012  0.7351
12009SOL    HW140139   7.222   8.071   7.439 -0.3894 -0.3677  0.0845
12009SOL    HW240140   7.082   8.046   7.520  0.5051 -0.5788  1.5760
12011SOL     OW40141   8.106   1.088   1.608 -0.2067  0.0053 -0.0502
12011SOL    HW140142   8.067   1.091   1.516  0.1142  1.1903 -0.1652
12011SOL    HW240143   8.074   1.007   1.656 -0.5213 -0.5246 -1.1474
12012SOL     OW40144   3.206   3.070   7.091 -0.6337 -0.2576  0.3758
12012SOL    HW140145   3.194   3.161   7.051  0.0287 -0.3690 -0.0953
12012SOL    HW240146   3.286   3.026   7.050 -0.3055 -0.6244  1.3839
12013SOL     OW40147   1.588   4.120   6.143 -0.2370 -0.1765 -0.1969
12013SOL    HW140148   1.515   4.059   6.172 -0.1016 -0.4743 -0.4716
12013SOL    HW240149   1.562   4.215   6.159 -0.3047 -0.3240  0.5579
12016SOL     OW40150   1.443   5.518   7.375 -0.4269  0.1403  0.3305
12016SOL    HW140151   1.513   5.447   7.367  0.4833  1.2601 -2.4126
12016SOL    HW240152   1.358   5.486   7.334 -0.3885  0.1620  0.2329
12017SOL     OW40153   1.750   6.706   1.016 -0.2574 -0.1213 -0.1686
12017SOL    HW140154   1.678   6.688   0.950 -0.8659 -0.8864  0.6859
12017SOL    HW240155   1.779   6.620   1.058 -1.5461  0.5889  2.2772
12018SOL     OW40156   0.065   2.772   0.802  0.0124 -0.1673 -0.5253
12018SOL    HW140157   0.036   2.762   0.898  0.3115  0.2982 -0.3899
12018SOL    HW240158  -0.016   2.773   0.743 -0.1958  0.0521 -0.2357
12020SOL     OW40159   3.326   2.270   3.111 -0.2272 -0.4847  0.1131
12020SOL    HW140160   3.301   2.301   3.202 -1.4166 -1.6761  0.1975
12020SOL    HW240161   3.426   2.264   3.104 -0.1486 -0.9648  1.5278
12021SOL     OW40162   2.291   4.234   3.511 -0.2227 -0.3118 -0.0366
12021SOL    HW140163   2.293   4.316   3.454  1.7925 -0.3444 -0.0479
12021SOL    HW240164   2.303   4.259   3.607  3.5594 -0.7927 -0.3235
12022SOL     OW40165   7.994   7.876   3.825 -0.1470  0.7993 -0.5962
12022SOL    HW140166   8.055   7.954   3.808  0.5193  0.3053 -0.4745
12022SOL    HW240167   7.906   7.910   3.859  0.3269  1.4691 -0.0163
12023SOL     OW40168   3.649   8.735   2.354 -0.4435  0.0803  0.3630
12023SOL    HW140169   3.554   8.764   2.369 -0.8054 -1.2489  0.6838
12023SOL    HW240170   3.706   8.770   2.429 -1.0782 -0.9756  1.3476
12024SOL     OW40171   8.136   4.199   2.370 -0.1014 -0.0213  0.6076
12024SOL    HW140172   8.120   4.120   2.312  1.3640 -0.9922  1.4937
12024SOL    HW240173   8.189   4.267   2.320 -1.4380  0.4602 -0.1849
12025SOL     OW40174   8.555   8.052   7.772 -0.8833 -0.4474 -0.1125
12025SOL    HW140175   8.607   8.056   7.857  0.0024 -0.9615 -0.6310
12025SOL    HW240176   8.478   7.989   7.783 -0.0287 -1.5062 -0.0919
12026SOL     OW40177   2.912   1.066   5.413  0.5149  0.0459 -0.0211
12026SOL    HW140178   2.975   1.143   5.409 -0.1334  0.5111 -2.0565
12026SOL    HW240179   2.880   1.053   5.507  0.9639  1.9785  0.4136
12027SOL     OW40180   0.089   8.788   0.441  0.1454  0.2131 -0.4582
12027SOL    HW140181   0.168   8.728   0.449 -0.1275  0.0315  0.9538
12027SOL    HW240182   0.006   8.738   0.463 -0.4130  0.3170 -2.2575
12029SOL     OW40183   2.918   3.710   1.932  0.6481  0.5921  0.0963
12029SOL    HW140184   2.989   3.680   1.867  0.0134  0.7250 -0.6654
12029SOL    HW240185   2.841   3.749   1.881  0.0003  0.3901  0.9154
12031SOL     OW40186   0.629   7.220   5.339  0.2001 -0.0111  0.2302
12031SOL    HW140187   0.640   7.215   5.240 -2.0317  0.5945 -0.0803
12031SOL    HW240188   0.684   7.148   5.383  0.4284 -0.9025 -1.4960
12035SOL     OW40189   1.910   9.577   4.738  0.0018 -0.1973 -0.3307
12035SOL    HW140190   1.963   9.492   4.731  0.4647 -0.0082  0.8183
12035SOL    HW240191   1.819   9.556   4.775  0.5720 -0.0255  1.1953
12036SOL     OW40192   9.070   3.575   4.268  0.3706  0.4157 -0.0566
12036SOL    HW140193   8.998   3.511   4.243  1.6309 -0.6668 -0.9841
12036SOL    HW240194   9.149   3.561   4.208  0.7619  2.6544 -0.0951
12037SOL     OW40195   1.131   5.184   0.740 -0.1635  0.0518 -0.3841
12037SOL    HW140196   1.151   5.186   0.642 -0.4917 -0.9714 -0.4778
12037SOL    HW240197   1.042   5.140   0.755 -0.0618  0.1018  0.3822
12038SOL     OW40198   8.593   7.202   2.874  0.4697 -0.1405 -0.7287
12038SOL    HW140199   8.517   7.214   2.811  1.7857  1.9935 -1.9732
12038SOL    HW240200   8.665   7.148   2.830  0.2390 -1.0395 -0.0255
12039SOL     OW40201   2.794   5.617   0.982  0.0871  0.2358 -0.4514
12039SOL    HW140202   2.866   5.644   0.918  0.4001 -1.8710 -1.0159
12039SOL    HW240203   2.817   5.648   1.074  0.9910  0.8498 -0.8776
12040SOL     OW40204   0.484   7.298   0.945 -0.2027 -0.0301 -0.2538
12040SOL    HW140205   0.528   7.341   0.866 -0.7125  2.5294  0.8146
12040SOL    HW240206   0.550   7.288   1.019  0.0638 -1.6699 -0.6942
12041SOL     OW40207   7.644   0.070   0.417 -0.4071  0.4980  0.3643
12041SOL    HW140208   7.618   0.115   0.502  0.2757  0.5356  0.5607
12041SOL    HW240209   7.738   0.095   0.394 -0.4661  0.2022 -0.2105
12042SOL     OW40210   9.105   1.960   1.230 -0.1975  0.4525 -0.0101
12042SOL    HW140211   9.191   1.983   1.185  0.2826  2.2897  1.8052
12042SOL    HW240212   9.059   2.044   1.260 -1.5342 -0.6325  1.0404
12044SOL     OW40213   3.765   9.541   0.302 -0.3348  0.0647  0.1473
12044SOL    HW140214   3.670   9.522   0.326 -0.5069  1.7428  0.8236
12044SOL    HW240215   3.769   9.621   0.242  0.7706  0.9614  1.3894
12045SOL     OW40216   0.653   2.329   5.940  0.1447 -0.3504 -0.0286
12045SOL    HW140217   0.752   2.346   5.931  0.2323 -0.5698  0.5019
12045SOL    HW240218   0.612   2.325   5.849  1.0744 -2.7869 -0.3791
12046SOL     OW40219   4.795   7.547   3.856 -0.2910 -0.0045 -0.3744
12046SOL    HW140220   4.750   7.485   3.793 -0.9403  0.9355 -0.8532
12046SOL    HW240221   4.764   7.641   3.838  0.1523  0.3733  0.7759
12047SOL     OW40222   2.969   0.230   5.134 -0.5176 -0.2075 -0.4426
12047SOL    HW140223   2.941   0.306   5.074  0.3187 -0.2159 -0.8506
12047SOL    HW240224   3.068   0.231   5.145 -0.6666 -0.1159  1.0784
12048SOL     OW40225   5.587   2.574   5.568 -0.0261  0.0984  0.0856
12048SOL    HW140226   5.527   2.525   5.505  0.2269  0.3327 -0.3402
12048SOL    HW240227   5.676   2.530   5.570  0.6250  1.2878 -1.3024
12049SOL     OW40228   3.953   6.672   2.119 -0.2327  0.3107 -0.0011
12049SOL    HW140229   3.895   6.674   2.200  0.5362 -2.2815  0.6364
12049SOL    HW240230   4.039   6.720   2.138 -0.0838 -0.2274  0.6913
12051SOL     OW40231   2.592   7.737   2.848  0.1651 -0.2111 -0.3867
12051SOL    HW140232   2.687   7.742   2.819  0.1720 -0.5686 -0.4298
12051SOL    HW240233   2.573   7.645   2.884 -0.1073 -0.0783 -0.1917
12052SOL     OW40234   8.469   9.495   5.125  0.4135  0.0022  0.0835
12052SOL    HW140235   8.540   9.546   5.076  0.1745  1.3751  1.1274
12052SOL    HW240236   8.379   9.535   5.104  0.1136 -0.6870  0.0499
12053SOL     OW40237   9.506   6.663   1.204  0.4507  0.4443 -0.1632
12053SOL    HW140238   9.450   6.638   1.283 -1.6749  0.6165 -1.5901
12053SOL    HW240239   9.472   6.749   1.164  1.7660  0.5830 -1.0253
12054SOL     OW40240   4.308   2.573   4.026 -0.0882  0.2412  0.6010
12054SOL    HW140241   4.275   2.657   3.984  1.3087  0.1516 -0.7397
12054SOL    HW240242   4.288   2.496   3.966  2.4316  0.1794 -0.2447
12055SOL     OW40243   2.672   2.746   7.808 -0.1928  0.1404 -0.3614
12055SOL    HW140244   2.584   2.758   7.762 -1.6068 -0.2627  2.1540
12055SOL    HW240245   2.737   2.704   7.745 -1.8300  0.3374 -2.2245
12056SOL     OW40246   2.589   3.593   4.553  0.2177  0.6221 -0.0197
12056SOL    HW140247   2.532   3.511   4.540 -0.8629  1.3142  0.3131
12056SOL    HW240248   2.559   3.641   4.636 -1.0470  2.9133 -1.7618
12057SOL     OW40249   8.367   9.640   6.221  0.1446 -0.2039 -0.2999
12057SOL    HW140250   8.427   9.609   6.147  0.4254  0.7324 -0.4623
12057SOL    HW240251   8.308   9.713   6.189 -1.0043 -1.0352 -0.0989
12058SOL     OW40252   4.959   1.879   7.485  0.6638 -0.3134 -0.3569
12058SOL    HW140253   5.056   1.886   7.461  0.7957 -1.2504 -0.1144
12058SOL    HW240254   4.919   1.801   7.436 -0.0216  0.2141 -0.6360
12059SOL     OW40255   1.102   3.021   6.145 -0.0788 -0.0691  0.1008
12059SOL    HW140256   1.161   2.944   6.119 -0.5900 -0.9091  1.3731
12059SOL    HW240257   1.149   3.076   6.214  0.9396  1.6898 -1.9390
12060SOL     OW40258   7.052   6.811   2.291 -0.1739 -0.0561 -0.0338
12060SOL    HW140259   7.150   6.807   2.312  0.0258 -0.4803 -1.0476
12060SOL    HW240260   7.027   6.733   2.235 -0.8164  0.8032 -0.9514
12062SOL     OW40261   8.339   1.131   7.810  0.3975  0.7241 -0.0168
12062SOL    HW140262   8.374   1.188   7.736 -1.4889  2.5637  0.4745
12062SOL    HW240263   8.305   1.189   7.884  0.3778 -1.0742  1.4139
12063SOL     OW40264   8.388   7.125   6.882  0.0745  0.4167 -0.5501
12063SOL    HW140265   8.463   7.128   6.948 -1.3099 -1.1887  1.1379
12063SOL    HW240266   8.355   7.218   6.865  1.3453  0.9697 -0.0330
12064SOL     OW40267   7.377   9.140   2.609  0.1205 -0.5237  0.2680
12064SOL    HW140268   7.300   9.131   2.672 -0.3615  3.2028  0.3643
12064SOL    HW240269   7.457   9.094   2.646 -0.4722  0.6286  3.0964
12065SOL     OW40270   9.757   0.213   5.085  0.7651  0.5394 -0.3402
12065SOL    HW140271   9.721   0.274   5.156  0.7463 -0.7601  0.7874
12065SOL    HW240272   9.698   0.133   5.077  1.4049  0.1362 -1.0360
12066SOL     OW40273   9.019   7.581   4.739  0.6006  0.4867  0.2081
12066SOL    HW140274   9.034   7.670   4.782 -0.3108  0.4260  0.6698
12066SOL    HW240275   9.092   7.562   4.674  0.2908  1.9913 -0.5898
12067SOL     OW40276   2.235   3.524   4.001  0.0500  0.3436 -0.2235
12067SOL    HW140277   2.201   3.618   4.008  0.7645  0.5541  0.4592
12067SOL    HW240278   2.334   3.524   4.006  0.0290 -0.4974  0.2331
12068SOL     OW40279   7.164   8.941   2.769  0.1073  0.6670 -0.0111
12068SOL    HW140280   7.216   8.856   2.782 -0.2507  0.5208  0.5160
12068SOL    HW240281   7.139   8.978   2.859  0.5689  1.5260 -0.2300
12069SOL     OW40282   3.286   0.166   4.698  0.0262  0.3920  0.1468
12069SOL    HW140283   3.205   0.132   4.744  0.4499 -0.2047  0.4555
12069SOL    HW240284   3.259   0.226   4.623 -0.7224 -0.6235 -0.3986
12070SOL     OW40285   8.881   3.434   5.054 -0.1352  0.4103 -0.1067
12070SOL    HW140286   8.911   3.471   4.966 -2.6237  1.4978 -0.5648
12070SOL    HW240287   8.833   3.347   5.039  0.4140  0.0312  0.3102
12071SOL     OW40288   3.236   1.013   0.559 -0.5291 -0.3978  0.4672
12071SOL    HW140289   3.291   0.932   0.537 -1.8243 -1.0712 -0.3391
12071SOL    HW240290   3.251   1.083   0.490 -0.8823 -0.6736  0.1136
12072SOL     OW40291   5.409   8.983   4.495  0.0436  0.3158  0.2328
12072SOL    HW140292   5.431   9.041   4.573 -0.2824  1.2140 -0.3306
12072SOL    HW240293   5.342   9.029   4.436  2.1671  0.7578 -1.9210
12073SOL     OW40294   0.273   9.006   7.592 -0.4372  0.3405 -0.2811
12073SOL    HW140295   0.241   9.074   7.659  0.5909  1.2937 -0.7266
12073SOL    HW240296   0.371   9.021   7.576 -0.5159 -0.3891 -1.4181
12074SOL     OW40297   3.753   5.180   5.312  0.3628  0.2667 -0.8511
12074SOL    HW140298   3.762   5.166   5.213  0.8720  0.3452 -0.8142
12074SOL    HW240299   3.680   5.246   5.329  0.7775  0.8210 -1.2111
12075SOL     OW40300   6.086   1.702   5.984  0.1519  0.4377  0.7106
12075SOL    HW140301   6.165   1.759   5.961  1.1795 -1.8218 -1.5126
12075SOL    HW240302   6.087   1.619   5.928 -2.9190 -0.3977  1.8233
12076SOL     OW40303   7.413   5.801   6.956 -0.1814 -0.5322 -0.3173
12076SOL    HW140304   7.380   5.874   6.897  1.5449  1.0165  0.5794
12076SOL    HW240305   7.384   5.712   6.919 -0.2696  0.4680 -2.7277
12078SOL     OW40306   3.691   0.128   0.416  0.6440  0.3097  0.2239
12078SOL    HW140307   3.661   0.076   0.496  1.0014  1.3406  1.0429
12078SOL    HW240308   3.754   0.200   0.445 -0.7059  1.9098 -0.7363
12079SOL     OW40309   1.862   0.057   4.555  0.2524  0.3159  0.1883
12079SOL    HW140310   1.853   0.108   4.640 -2.5664 -0.8343  0.6109
12079SOL    HW240311   1.915  -0.026   4.572  0.2110  0.3851  0.6709
12080SOL     OW40312   3.771   7.125   0.812  0.1194  0.0304 -0.1533
12080SOL    HW140313   3.796   7.174   0.728 -0.3975  0.6373  0.0420
12080SOL    HW240314   3.840   7.143   0.883 -0.0486  0.4506 -0.0931
12081SOL     OW40315   7.205   3.433   1.505 -0.3231  0.3593 -0.4833
12081SOL    HW140316   7.147   3.379   1.566  0.9406  0.3465  0.7255
12081SOL    HW240317   7.256   3.500   1.558  0.5082  0.5997 -1.5769
12082SOL     OW40318   6.758   9.435   2.095 -0.0820  0.4789 -0.4529
12082SOL    HW140319   6.832   9.368   2.104  0.6646  0.9333 -2.8684
12082SOL    HW240320   6.705   9.416   2.012 -0.6129  2.1591 -0.5222
12083SOL     OW40321   3.944   5.831   1.719 -0.2343 -0.2361  0.2169
12083SOL    HW140322   3.875   5.888   1.763 -0.8419 -0.1636 -0.8080
12083SOL    HW240323   3.956   5.746   1.770 -1.7389 -0.6439 -0.0881
12085SOL     OW40324   6.097   5.069   1.252 -0.1120  0.0982 -0.3110
12085SOL    HW140325   6.077   5.069   1.350  2.3477  0.6347  0.2290
12085SOL    HW240326   6.097   5.163   1.218  0.8509  0.0682 -0.4130
12086SOL     OW40327   7.926   3.753   1.159 -0.0227 -0.4117  0.4647
12086SOL    HW140328   8.009   3.727   1.208 -0.2982 -1.2313  0.5064
12086SOL    HW240329   7.854   3.776   1.224  0.5569  1.5886  0.4284
12087SOL     OW40330   2.518   0.792   4.909  0.3516 -0.1871  0.0762
12087SOL    HW140331   2.429   0.769   4.948  0.7794  1.0225  1.8015
12087SOL    HW240332   2.589   0.773   4.976  1.3343 -0.3867 -1.0132
12088SOL     OW40333   9.937   5.250   6.594  0.2365  0.4710 -0.3316
12088SOL    HW140334  10.009   5.315   6.621  0.2941  0.2626  0.0273
12088SOL    HW240335   9.908   5.199   6.675 -1.8916  2.0986 -0.0121
12089SOL     OW40336   8.145   9.146   6.296  0.6225 -0.0476 -0.3752
12089SOL    HW140337   8.148   9.081   6.372  0.4402  0.1624 -0.1916
12089SOL    HW240338   8.215   9.216   6.309  1.7954 -1.0017 -1.2888
12090SOL     OW40339   8.731   4.407   6.652  0.0261 -0.1522  0.2550
12090SOL    HW140340   8.728   4.489   6.595  0.8280 -0.8546 -0.8095
12090SOL    HW240341   8.672   4.336   6.613 -1.4520  0.2280  1.7062
12091SOL     OW40342   0.674   0.700   7.944 -0.3826 -0.2178 -0.4570
12091SOL    HW140343   0.651   0.736   7.854  0.1331  0.0307 -0.4902
12091SOL    HW240344   0.745   0.757   7.986  0.0515 -0.8731 -0.2894
12092SOL     OW40345   3.640   8.857   6.808  0.3097 -1.0716  0.0794
12092SOL    HW140346   3.610   8.870   6.714  1.5484 -1.3727 -0.3609
12092SOL    HW240347   3.736   8.829   6.810  0.2729 -1.1723  1.4242
12094SOL     OW40348   0.870   7.934   4.808  0.2830  0.1825 -0.2710
12094SOL    HW140349   0.828   7.866   4.747  0.3683  1.1720 -1.4611
12094SOL    HW240350   0.965   7.949   4.780  0.3979  0.4679  0.2663
12095SOL     OW40351   3.715   8.311   3.592  0.2039 -0.5605  0.9400
12095SOL    HW140352   3.723   8.256   3.509  2.8170  1.4073 -0.1982
12095SOL    HW240353   3.778   8.276   3.662 -0.6940 -1.1286  1.4759
12096SOL     OW40354   1.102   5.981   4.634 -0.3384 -0.2067 -0.0759
12096SOL    HW140355   1.027   6.048   4.630 -0.2723 -0.1998 -1.4010
12096SOL    HW240356   1.119   5.956   4.729  0.1193  2.1921  0.4981
12097SOL     OW40357   0.341   2.241   2.474 -0.4203 -0.2751 -0.0914
12097SOL    HW140358   0.358   2.205   2.382  2.5310 -1.2325  0.7634
12097SOL    HW240359   0.347   2.341   2.472 -0.2427 -0.2962 -0.9155
12098SOL     OW40360   3.863   7.913   3.215 -0.3969 -0.2040  0.4648
12098SOL    HW140361   3.827   7.907   3.122  0.6845 -0.0745  0.0347
12098SOL    HW240362   3.963   7.912   3.213 -0.3475  0.9087  1.5396
12099SOL     OW40363   4.001   1.117   3.663 -0.4793 -0.1798  0.2451
12099SOL    HW140364   4.047   1.063   3.735 -0.1152  0.7735  0.7448
12099SOL    HW240365   3.946   1.189   3.706 -1.9697 -0.9289 -0.3775
12100SOL     OW40366   3.414   8.313   3.788 -0.2952  0.0868  0.0288
12100SOL    HW140367   3.416   8.240   3.857  0.0680 -0.6425 -0.7411
12100SOL    HW240368   3.478   8.291   3.715 -1.4557  0.3153 -1.0747
12101SOL     OW40369   8.757   7.345   3.153  0.3156  0.0793  0.0538
12101SOL    HW140370   8.808   7.388   3.078  1.9459 -1.1029  0.4653
12101SOL    HW240371   8.660   7.368   3.145  0.4454 -0.1835 -2.5234
12102SOL     OW40372   0.957   1.364   1.748 -0.0513 -0.1712  0.4237
12102SOL    HW140373   0.892   1.293   1.721  1.1928 -1.3953  0.5963
12102SOL    HW240374   0.913   1.428   1.810 -1.5938  0.0045 -0.8111
12103SOL     OW40375   1.821   1.452   1.309 -0.3164  0.8038  0.3059
12103SOL    HW140376   1.729   1.460   1.270  0.1966  1.0181 -0.8748
12103SOL    HW240377   1.827   1.367   1.362 -1.5743  1.4112  1.4456
12104SOL     OW40378   8.817   3.136   3.342 -0.2713  0.5904  0.1989
12104SOL    HW140379   8.884   3.065   3.320 -1.1794 -0.3569  0.4962
12104SOL    HW240380   8.739   3.130   3.279 -0.4699  1.1689  0.3804
12105SOL     OW40381   1.561   4.389   2.358  0.6997 -0.2825  0.0239
12105SOL    HW140382   1.500   4.338   2.418 -0.7177 -0.0424 -1.1632
12105SOL    HW240383   1.637   4.426   2.410  0.1508 -1.1109  1.4292
12106SOL     OW40384   6.621   9.972   5.000 -0.0922 -0.6451  0.2576
12106SOL    HW140385   6.535   9.927   4.975  0.1490 -0.8019 -0.3168
12106SOL    HW240386   6.630  10.058   4.949  0.5423 -1.1098 -0.4326
12107SOL     OW40387   5.409   0.794   5.875 -0.1285  0.1592  0.4081
12107SOL    HW140388   5.480   0.729   5.902 -0.1416 -0.4465 -0.9634
12107SOL    HW240389   5.443   0.850   5.799  0.4054  2.7474  2.4830
12108SOL     OW40390   2.959   6.993   3.632 -0.0146  0.6451 -0.2601
12108SOL    HW140391   2.988   6.923   3.567  0.6157  0.4464  0.2289
12108SOL    HW240392   3.036   7.018   3.690 -0.9880 -0.3428  1.4903
12109SOL     OW40393   4.579   9.835   1.548 -0.3459 -0.0371  0.0182
12109SOL    HW140394   4.599   9.738   1.539 -1.0618 -0.3833  1.8786
12109SOL    HW240395   4.585   9.879   1.459 -1.2944 -2.0413 -1.0515
12110SOL     OW40396   3.687   2.024   0.214 -0.0156  0.3513  0.2941
12110SOL    HW140397   3.738   1.948   0.175  1.1768  0.5257  1.4829
12110SOL    HW240398   3.722   2.110   0.176 -1.5804  0.3221 -1.3005
12112SOL     OW40399   0.535   4.792   0.662 -0.1581  0.0987  0.0884
12112SOL    HW140400   0.566   4.714   0.717  1.1183  0.8251  0.4121
12112SOL    HW240401   0.559   4.778   0.566 -0.6298 -0.2632  0.0218
12113SOL     OW40402   5.223   0.983   5.168  0.4431  0.2016 -0.3544
12113SOL    HW140403   5.226   0.885   5.150  0.4310  0.1649 -0.1642
12113SOL    HW240404   5.131   1.008   5.198  0.4674  0.2561 -0.3252
12115SOL     OW40405   5.138   4.803   6.447  0.2392 -0.0085 -0.0004
12115SOL    HW140406   5.208   4.732   6.450  1.4386  1.0852 -1.2919
12115SOL    HW240407   5.053   4.765   6.410  1.1208 -0.5877 -1.4427
12116SOL     OW40408   0.675   5.616   6.027 -0.5429 -0.0422 -0.1760
12116SOL    HW140409   0.623   5.697   6.002 -0.9948  0.2344  1.6589
12116SOL    HW240410   0.623   5.534   6.002 -1.6119  0.2299  1.1475
12117SOL     OW40411   4.121   1.759   7.350 -0.1214 -0.1722 -0.1181
12117SOL    HW140412   4.067   1.829   7.397  0.7182 -1.1286  2.3829
12117SOL    HW240413   4.096   1.756   7.254 -1.8049  1.9860  0.2203
12118SOL     OW40414   7.357   1.989   4.150  0.6355 -0.6083 -0.1013
12118SOL    HW140415   7.456   1.977   4.160  0.6936 -0.1002 -0.0606
12118SOL    HW240416   7.334   2.086   4.153  0.0662 -0.7542  0.5179
12121SOL     OW40417   1.036   2.298   1.280  0.0735 -0.2298  0.1957
12121SOL    HW140418   1.007   2.314   1.185 -0.6484 -1.0277  0.2788
12121SOL    HW240419   1.032   2.384   1.330  1.8534  0.4972 -0.8583
12122SOL     OW40420   2.781   0.124   6.567  0.0971 -0.1321  0.6151
12122SOL    HW140421   2.710   0.066   6.606 -1.2662 -0.4203 -2.1868
12122SOL    HW240422   2.842   0.069   6.510 -0.7118  1.0073 -1.3866
12123SOL     OW40423   0.591   9.898   6.910 -0.2956 -0.9646  0.3171
12123SOL    HW140424   0.600   9.915   6.812  1.0135 -0.9979  0.4240
12123SOL    HW240425   0.590   9.985   6.959 -3.1173 -0.8402  0.1255
12124SOL     OW40426   8.278   9.475   6.994  0.0294  0.0878 -0.7461
12124SOL    HW140427   8.184   9.451   6.968  0.0550 -0.5346 -0.2934
12124SOL    HW240428   8.277   9.527   7.080  0.2263 -1.8010  0.4278
12125SOL     OW40429   0.941   9.907   4.424 -0.1418  0.3032 -0.3587
12125SOL    HW140430   0.869   9.928   4.490 -1.7711 -0.7227 -1.7632
12125SOL    HW240431   1.012   9.853   4.468 -1.6926 -1.2155  0.3414
12128SOL     OW40432   0.581   1.575   4.709 -0.0797  0.6045 -0.1875
12128SOL    HW140433   0.542   1.598   4.799 -0.4047  0.4877 -0.2979
12128SOL    HW240434   0.681   1.580   4.714 -0.1252  1.4188 -0.0404
12129SOL     OW40435   9.639   0.137   3.576 -0.1213  0.4669  0.3494
12129SOL    HW140436   9.661   0.109   3.670 -0.3926  0.6903  0.4812
12129SOL    HW240437   9.602   0.230   3.577  1.3660  1.0833 -0.1469
12130SOL     OW40438   1.226   7.139   5.869  0.0145  0.0254 -0.0724
12130SOL    HW140439   1.202   7.192   5.788  0.4911  1.7508  0.9036
12130SOL    HW240440   1.297   7.073   5.845 -0.4134 -0.0262 -1.2361
12131SOL     OW40441   3.070   4.322   2.697 -0.0060  0.6851 -0.4244
12131SOL    HW140442   3.147   4.386   2.695  0.3728  0.3103  1.2864
12131SOL    HW240443   3.095   4.242   2.752 -1.1873  0.0038 -0.8766
12132SOL     OW40444   2.955   8.249   6.491  0.2404  0.1404 -0.5092
12132SOL    HW140445   2.982   8.316   6.421  1.2258  0.1224 -0.1617
12132SOL    HW240446   2.865   8.273   6.528  1.1285  2.0110  0.5211
12134SOL     OW40447   2.138   3.848   6.654  0.3324  0.0929  0.0581
12134SOL    HW140448   2.218   3.909   6.653  1.1269 -0.9096  0.9025
12134SOL    HW240449   2.151   3.776   6.586  1.2497 -1.4194  1.7828
12135SOL     OW40450   9.315   2.986   1.865  0.3981  0.5895 -0.0672
12135SOL    HW140451   9.249   3.029   1.926  0.4268  1.9055 -0.9592
12135SOL    HW240452   9.403   2.978   1.911  0.2466  0.9771  0.2873
12136SOL     OW40453   4.048   7.647   1.501 -0.1169 -0.0300 -0.1936
12136SOL    HW140454   4.023   7.610   1.591  0.5529  0.2922  0.1217
12136SOL    HW240455   4.109   7.725   1.512  2.5071 -1.8947 -1.0008
12137SOL     OW40456   5.688   7.794   4.467 -0.5579 -0.9127 -0.0820
12137SOL    HW140457   5.623   7.762   4.398  1.0770 -1.8862 -1.2249
12137SOL    HW240458   5.781   7.780   4.433  0.2642 -0.3510  1.8783
12138SOL     OW40459   4.055   4.783   6.558  0.3316  0.0795 -0.0844
12138SOL    HW140460   4.011   4.842   6.626 -1.2375  0.0321 -1.0154
12138SOL    HW240461   4.046   4.825   6.467  2.0505 -0.0493 -0.3170
12140SOL     OW40462   1.008   0.663   3.689 -0.1959 -0.5557 -0.3004
12140SOL    HW140463   1.007   0.614   3.776  0.1241  2.6192  1.5505
12140SOL    HW240464   0.914   0.676   3.657 -0.4334  0.2193  0.7054
12141SOL     OW40465   2.794   9.613   3.442  0.1592 -0.7123  0.1643
12141SOL    HW140466   2.751   9.683   3.386 -1.1021 -1.6987 -0.1299
12141SOL    HW240467   2.724   9.550   3.477  1.3600 -2.4922 -0.5243
12142SOL     OW40468   6.895   0.141   6.501 -0.0798 -0.1079 -0.2469
12142SOL    HW140469   6.991   0.147   6.528 -0.1649 -0.4025  0.1397
12142SOL    HW240470   6.872   0.215   6.439 -0.3280  1.6741  1.8992
12143SOL     OW40471   5.876   4.818   0.807  0.0529 -0.1698 -0.0416
12143SOL    HW140472   5.888   4.892   0.873  1.4130  0.1651 -0.6391
12143SOL    HW240473   5.907   4.732   0.847 -1.8516 -0.5061  0.7776
12144SOL     OW40474   5.153   7.782   5.700  0.4107  0.0487 -0.4638
12144SOL    HW140475   5.194   7.860   5.747 -0.1092  0.2526 -0.3538
12144SOL    HW240476   5.067   7.809   5.656  0.0253 -0.5557 -0.0886
12145SOL     OW40477   6.954   8.467   3.721  0.0761 -0.6154  0.3957
12145SOL    HW140478   6.879   8.497   3.662 -0.3463 -0.2286  1.1169
12145SOL    HW240479   7.029   8.534   3.715 -0.1541 -0.3348  0.6561
12146SOL     OW40480   8.192   8.483   7.893 -0.1894 -0.3599  0.0958
12146SOL    HW140481   8.230   8.411   7.950  1.8508  0.4187 -0.2442
12146SOL    HW240482   8.188   8.451   7.798  1.0288  0.0667 -0.1108
12151SOL     OW40483   6.799   3.340   2.422 -0.2543  0.7024 -0.1261
12151SOL    HW140484   6.783   3.251   2.379 -1.3924  1.1963 -0.7296
12151SOL    HW240485   6.714   3.372   2.463  0.1372  1.5632  0.0088
12153SOL     OW40486   3.986   2.382   0.517  0.3385 -0.0797  0.1157
12153SOL    HW140487   3.953   2.446   0.586 -1.5343  0.0408 -0.8439
12153SOL    HW240488   4.032   2.305   0.561  0.3511  0.6640  1.4102
12154SOL     OW40489   3.138   1.367   7.329  0.0749  0.3318 -0.1953
12154SOL    HW140490   3.070   1.425   7.374  1.6935  1.7676  0.4857
12154SOL    HW240491   3.105   1.273   7.325 -1.8396  0.9692  0.3199
12155SOL     OW40492   9.391   6.926   3.511  0.0506 -0.2365 -0.0521
12155SOL    HW140493   9.333   7.007   3.508 -1.3935 -1.2168  0.7058
12155SOL    HW240494   9.480   6.950   3.548  0.5964  1.5460 -2.3827
12156SOL     OW40495   2.426   3.062   1.223 -0.5769 -0.3402 -0.9950
12156SOL    HW140496   2.508   3.090   1.274 -0.5502 -1.6443 -0.2891
12156SOL    HW240497   2.446   3.058   1.126 -0.6914  2.4420 -1.1610
12157SOL     OW40498   2.594   5.409   0.034 -0.2222 -0.6320  0.1121
12157SOL    HW140499   2.668   5.399   0.099 -0.9148 -1.5230  0.7811
12157SOL    HW240500   2.573   5.320  -0.008 -0.4340 -0.2563 -0.5985
12158SOL     OW40501   2.268   9.241   6.968  0.2722 -0.3177 -0.3561
12158SOL    HW140502   2.288   9.312   6.899 -0.9684  0.0211 -0.3775
12158SOL    HW240503   2.229   9.161   6.923  1.3991 -0.9169 -0.2932
12159SOL     OW40504   8.627   3.893   4.949  0.1888  0.5237 -0.4962
12159SOL    HW140505   8.679   3.847   5.021 -0.9442  2.5407  1.6915
12159SOL    HW240506   8.604   3.828   4.877  0.5027 -1.7840  1.4378
12160SOL     OW40507   3.042   5.345   1.259  0.4057 -0.2648 -1.1235
12160SOL    HW140508   3.102   5.394   1.323  0.1975 -0.0659 -1.0804
12160SOL    HW240509   3.089   5.334   1.171  1.7654 -2.9050 -0.1349
12162SOL     OW40510   4.882   5.590   3.286  0.2368 -0.0536 -0.5819
12162SOL    HW140511   4.826   5.665   3.249  1.8283  1.2673 -0.3630
12162SOL    HW240512   4.882   5.514   3.222 -0.8855  0.3709 -1.1068
12163SOL     OW40513   3.556   2.051   1.967  0.1836 -0.0100 -0.1471
12163SOL    HW140514   3.484   2.018   1.906 -1.1726  0.5745  1.1036
12163SOL    HW240515   3.566   1.987   2.043 -0.9552  1.3160  1.1455
12164SOL     OW40516   7.661   0.011   6.363  0.0272 -0.0910 -0.3389
12164SOL    HW140517   7.689  -0.052   6.290  1.5706 -0.5203  0.5868
12164SOL    HW240518   7.712  -0.011   6.447 -1.2371  0.8116  0.6872
12165SOL     OW40519   9.453   9.506   7.047  0.0802 -0.2986  0.4673
12165SOL    HW140520   9.431   9.420   7.001  1.2722 -0.0491 -0.6057
12165SOL    HW240521   9.438   9.582   6.984  0.6305  0.1482  0.8751
12167SOL     OW40522   7.943   5.722   3.647 -0.3603 -0.4002  0.3397
12167SOL    HW140523   7.914   5.770   3.730 -1.1894 -1.0268  0.4234
12167SOL    HW240524   8.005   5.648   3.672 -1.0183 -0.9174  0.4593
12168SOL     OW40525   9.152   5.313   6.135  0.0884  0.2222 -0.9776
12168SOL    HW140526   9.090   5.243   6.171  2.0523 -0.7813  0.5551
12168SOL    HW240527   9.119   5.403   6.161 -1.1128 -0.2679 -0.7773
12169SOL     OW40528   1.406   9.277   0.760 -0.1483 -0.2689  0.5017
12169SOL    HW140529   1.488   9.222   0.745 -1.2089 -2.0063  1.0275
12169SOL    HW240530   1.419   9.334   0.842  1.3256  1.0153 -0.6018
12170SOL     OW40531   7.905   0.216   0.963  0.3064 -0.0337  0.5158
12170SOL    HW140532   7.943   0.148   0.900  0.7634 -1.2919  2.0925
12170SOL    HW240533   7.950   0.303   0.950  1.4903 -0.6946  0.1550
12171SOL     OW40534   1.054   3.404   0.177  0.6599 -0.1416 -0.1758
12171SOL    HW140535   1.031   3.501   0.186  0.9703 -0.0093 -0.7581
12171SOL    HW240536   0.971   3.351   0.160  0.8740  0.4963 -3.5977
12174SOL     OW40537   5.421   6.324   0.700 -0.0352 -0.1107 -0.3452
12174SOL    HW140538   5.462   6.392   0.639  0.7295  0.5353  0.8575
12174SOL    HW240539   5.482   6.309   0.778 -1.1682 -0.6396  0.4478
12175SOL     OW40540   8.004   5.482   4.774  0.1237  0.0113 -0.0968
12175SOL    HW140541   8.036   5.469   4.681 -0.2160  1.3181 -0.4041
12175SOL    HW240542   8.081   5.501   4.834  0.0814  1.7231 -0.5768
12176SOL     OW40543   8.412   6.472   6.334 -0.3780  0.4394  0.1732
12176SOL    HW140544   8.464   6.487   6.418  1.3137 -0.5546 -0.6607
12176SOL    HW240545   8.321   6.439   6.356  0.0067  0.3287  1.6192
12177SOL     OW40546   2.486   8.558   5.157 -0.0445  0.0331  0.7795
12177SOL    HW140547   2.530   8.631   5.210 -1.2162  0.7038  0.8505
12177SOL    HW240548   2.459   8.484   5.218  3.4826 -1.7118  0.3882
12180SOL     OW40549   8.048   7.806   6.817  0.2566 -0.4369 -0.1966
12180SOL    HW140550   7.978   7.743   6.783 -0.6454  0.0700  0.6971
12180SOL    HW240551   8.127   7.804   6.756  0.5164 -2.9401  0.1627
12181SOL     OW40552   2.191   6.309   4.280 -0.3937  0.1805  0.1368
12181SOL    HW140553   2.254   6.339   4.352 -0.0459  0.1357 -0.1456
12181SOL    HW240554   2.109   6.270   4.321 -0.1182 -0.0061  0.5137
12182SOL     OW40555   0.180   6.479   1.160 -0.6958  0.7167 -0.1976
12182SOL    HW140556   0.218   6.548   1.098 -0.9797  1.0749  0.0283
12182SOL    HW240557   0.149   6.400   1.106  0.8239  0.2082 -0.3325
12183SOL     OW40558   9.912   5.908   2.270  0.8190  0.8916  0.2118
12183SOL    HW140559   9.912   5.998   2.313 -2.4253  0.5987  0.9311
12183SOL    HW240560   9.845   5.906   2.196  1.2244 -0.7903 -0.1373
12184SOL     OW40561   2.080   4.403   7.466 -0.1320 -0.1204 -0.0671
12184SOL    HW140562   2.094   4.361   7.377  0.6265  0.8376 -0.4092
12184SOL    HW240563   2.003   4.359   7.512  0.0496 -1.2217 -0.8136
12185SOL     OW40564   9.042   7.174   4.766 -0.0867  0.0591  0.3951
12185SOL    HW140565   8.999   7.101   4.819  0.7219 -0.3303  0.5218
12185SOL    HW240566   8.972   7.234   4.728 -0.7056 -0.0931  1.2883
12187SOL     OW40567   1.780   3.958   6.230 -0.3959 -0.0465 -0.2934
12187SOL    HW140568   1.873   3.985   6.258  0.2030  0.0203 -2.2681
12187SOL    HW240569   1.742   4.029   6.170 -1.6765 -0.1478  0.3900
12188SOL     OW40570   0.616   7.388   4.387 -0.2464 -0.1948  0.0093
12188SOL    HW140571   0.559   7.440   4.324  2.3670  2.1865 -0.5295
12188SOL    HW240572   0.667   7.319   4.337 -1.3694 -1.1722  0.2127
12189SOL     OW40573   9.205   4.724   5.230 -0.1848  0.6991 -0.9715
12189SOL    HW140574   9.293   4.758   5.263 -0.4022 -0.2725  0.6190
12189SOL    HW240575   9.188   4.761   5.138  1.5370  1.4701 -1.0019
12191SOL     OW40576   2.823   5.591   2.953  0.1368 -0.3241 -0.6957
12191SOL    HW140577   2.893   5.568   2.885 -0.0791 -2.3938 -0.2240
12191SOL    HW240578   2.821   5.691   2.965  1.8269 -0.1085 -1.9620
12192SOL     OW40579   1.358   5.963   0.912 -0.1467  0.2188  0.2492
12192SOL    HW140580   1.325   5.881   0.865  1.1773 -0.1804 -0.0080
12192SOL    HW240581   1.397   6.026   0.846  1.5898 -0.2786  0.7902
12193SOL     OW40582   0.519   9.623   1.867 -0.3670 -0.0284 -0.0268
12193SOL    HW140583   0.444   9.565   1.834 -3.0874  2.0987  2.0932
12193SOL    HW240584   0.506   9.716   1.832  3.4228 -0.3801 -2.6547
12195SOL     OW40585   1.593   3.473   0.113 -0.1894 -0.3060 -0.5879
12195SOL    HW140586   1.548   3.526   0.184  0.5021 -1.0806  0.4381
12195SOL    HW240587   1.668   3.526   0.073  0.1803 -0.3235  0.0857
12196SOL     OW40588   1.656   3.607   4.865 -0.2541 -0.2011  0.3664
12196SOL    HW140589   1.671   3.702   4.838 -0.4918  0.1976  1.6030
12196SOL    HW240590   1.739   3.554   4.847 -1.0145 -0.3913 -2.8911
12197SOL     OW40591   2.148   1.001   6.423 -0.1319  0.7193  0.3171
12197SOL    HW140592   2.101   1.080   6.384 -1.2148  0.6277  1.3992
12197SOL    HW240593   2.105   0.977   6.510  0.3551 -0.9103  0.1150
12198SOL     OW40594   1.258   5.047   0.926  0.1491  0.4499 -0.3664
12198SOL    HW140595   1.194   5.090   0.861  0.5479  1.2693 -0.2293
12198SOL    HW240596   1.315   4.981   0.877  0.2686  0.8676 -0.8019
12199SOL     OW40597   6.170   3.108   0.132 -0.0220 -0.4846  0.1095
12199SOL    HW140598   6.146   3.019   0.092 -1.5311  0.0494 -0.2137
12199SOL    HW240599   6.165   3.179   0.062 -1.2000  0.2288  0.8969
12200SOL     OW40600   7.688   2.313   4.695 -0.2004  0.2100  0.1981
12200SOL    HW140601   7.712   2.364   4.778 -1.7407  1.5082 -0.1214
12200SOL    HW240602   7.635   2.372   4.634  0.8779 -0.7482 -1.7102
12201SOL     OW40603   8.635   3.292   2.623 -0.5825 -0.8878 -0.0063
12201SOL    HW140604   8.588   3.368   2.667  0.6744 -2.0566  3.6100
12201SOL    HW240605   8.576   3.211   2.626 -0.4903 -0.9757 -0.5178
12202SOL     OW40606   0.011   4.270   2.912 -0.1146 -0.2419 -0.4708
12202SOL    HW140607   0.060   4.206   2.971  0.8343  0.6814 -0.2433
12202SOL    HW240608  -0.073   4.227   2.878 -0.6350 -0.8091  1.4682
12204SOL     OW40609   2.680   9.718   0.997 -0.5425 -0.2142 -0.5975
12204SOL    HW140610   2.690   9.677   1.088  1.7207 -1.4399 -1.3562
12204SOL    HW240611   2.634   9.807   1.006  0.0077 -0.1145  1.7978
12205SOL     OW40612   3.799   8.783   5.713  0.3650  0.4841 -0.3961
12205SOL    HW140613   3.774   8.740   5.627 -0.4554  1.4929 -0.6643
12205SOL    HW240614   3.828   8.712   5.778 -1.4741 -0.5353 -0.6570
12207SOL     OW40615   1.991   0.155   7.364  0.0976  0.0319  0.1160
12207SOL    HW140616   2.065   0.103   7.320  1.2126  0.7759  1.0769
12207SOL    HW240617   1.908   0.148   7.308  0.2539 -2.6438  0.1426
12209SOL     OW40618   5.241   1.409   4.400  0.3528 -0.2456 -0.3306
12209SOL    HW140619   5.304   1.486   4.393  0.7909 -0.5539  0.2220
12209SOL    HW240620   5.252   1.364   4.489 -1.0774  0.0804  0.0298
12210SOL     OW40621   9.926   6.291   4.759 -0.6242  0.6465  0.5093
12210SOL    HW140622   9.827   6.293   4.747 -0.5613  0.4566 -0.0602
12210SOL    HW240623   9.949   6.231   4.835 -0.9752  1.0843  0.9613
12211SOL     OW40624   6.478   2.849   2.197  0.9986 -0.0591  0.0105
12211SOL    HW140625   6.511   2.788   2.269 -1.2223  1.2972  2.2211
12211SOL    HW240626   6.457   2.795   2.115  1.7296 -1.8719  0.9943
12212SOL     OW40627   9.751   5.548   1.713 -0.0262  0.0633 -0.2713
12212SOL    HW140628   9.766   5.473   1.649 -1.8935 -0.6213  0.0642
12212SOL    HW240629   9.667   5.597   1.687  1.2023  2.1035 -0.5389
12213SOL     OW40630   5.974   8.525   4.534  0.3594 -0.2275 -0.0585
12213SOL    HW140631   5.978   8.427   4.515  2.5478 -0.1960  0.0245
12213SOL    HW240632   5.925   8.571   4.461  0.1281 -1.2885 -0.5814
12214SOL     OW40633   3.396   4.504   1.889  0.6673 -0.3048 -0.0928
12214SOL    HW140634   3.373   4.408   1.907 -1.3792  0.2720  0.4836
12214SOL    HW240635   3.408   4.518   1.791  0.1306 -0.9676 -0.2572
12215SOL     OW40636   1.255   2.992   3.714 -0.0536 -0.0495 -0.7649
12215SOL    HW140637   1.188   2.922   3.686  0.2498 -0.7799  0.3261
12215SOL    HW240638   1.206   3.075   3.741 -0.3591  0.7337 -3.5537
12216SOL     OW40639   5.752   1.296   6.785 -0.0282 -0.3310  0.5391
12216SOL    HW140640   5.842   1.331   6.759  0.5891  0.5425  3.6404
12216SOL    HW240641   5.687   1.372   6.788 -0.3635 -0.6121  0.4279
12218SOL     OW40642   4.736   2.418   4.448 -0.6766 -0.0414  0.7877
12218SOL    HW140643   4.713   2.493   4.511 -0.3308  0.2508  0.5619
12218SOL    HW240644   4.804   2.359   4.491 -0.5601  0.0673  0.7524
12219SOL     OW40645   8.623   5.369   6.993 -0.0717 -0.6321 -0.2176
12219SOL    HW140646   8.678   5.312   6.933  0.5873  0.1664 -0.3888
12219SOL    HW240647   8.548   5.410   6.942  0.5377  0.1149 -0.5392
12220SOL     OW40648   9.719   3.366   0.312  0.6560  0.0313  0.0299
12220SOL    HW140649   9.816   3.356   0.289  0.4546 -0.5835 -0.5368
12220SOL    HW240650   9.683   3.450   0.270  1.1903  0.8105  1.0816
12221SOL     OW40651   3.598   4.552   3.660 -0.4984 -0.0403  0.1777
12221SOL    HW140652   3.635   4.596   3.741 -2.0197 -0.0262  0.8812
12221SOL    HW240653   3.669   4.546   3.590  0.2536  1.7790  0.7644
12222SOL     OW40654   9.276   6.071   4.815 -0.4662 -0.1624  0.2155
12222SOL    HW140655   9.348   6.002   4.821 -0.0295  0.1322 -1.3849
12222SOL    HW240656   9.189   6.032   4.846  0.3392 -0.5848  1.9458
12223SOL     OW40657   8.683   7.072   0.674 -0.1178  0.5090  0.1672
12223SOL    HW140658   8.694   7.157   0.724 -2.8742  0.8288  0.3119
12223SOL    HW240659   8.642   7.002   0.733 -1.1420  0.1683 -0.8977
12224SOL     OW40660   3.583   5.388   5.362  0.8050 -0.1097 -0.2094
12224SOL    HW140661   3.485   5.378   5.378 -0.1681  1.9107 -4.3134
12224SOL    HW240662   3.620   5.457   5.424 -0.5278 -0.2193  0.7328
12225SOL     OW40663   2.596   2.069   6.651  0.0256  0.6178 -0.2472
12225SOL    HW140664   2.549   2.092   6.566 -0.4850 -0.3348 -0.2329
12225SOL    HW240665   2.648   2.148   6.683 -2.0127  1.8955  0.0425
12228SOL     OW40666   1.678   8.458   2.943  0.2735  0.5614  0.2041
12228SOL    HW140667   1.728   8.417   2.867  0.3246  0.0025  0.5420
12228SOL    HW240668   1.607   8.518   2.907  0.0527  0.0065 -0.2920
12229SOL     OW40669   6.972   1.959   0.008  0.4423 -0.5267 -0.4906
12229SOL    HW140670   6.955   2.031  -0.058  0.3174 -0.3514 -0.2696
12229SOL    HW240671   7.062   1.971   0.049  0.7997 -1.0213 -1.1156
12232SOL     OW40672   4.671   9.844   6.582 -0.3396  0.2723 -0.0342
12232SOL    HW140673   4.738   9.770   6.581  0.0033  0.4652  3.1165
12232SOL    HW240674   4.596   9.823   6.519  0.7062 -1.8273 -0.6024
12234SOL     OW40675   8.499   7.226   5.151  0.0345 -0.0234  0.4022
12234SOL    HW140676   8.513   7.286   5.073 -0.1838 -1.5177 -0.8001
12234SOL    HW240677   8.401   7.210   5.163  0.0800  0.0370  0.8576
12236SOL     OW40678   3.642   5.595   5.552  0.8873 -0.7026 -0.5819
12236SOL    HW140679   3.739   5.608   5.575  1.0353 -1.2192 -0.9049
12236SOL    HW240680   3.586   5.654   5.611  1.3922 -0.4360 -0.3596
12237SOL     OW40681   5.177   7.373   3.559  0.5396 -0.1767 -0.5495
12237SOL    HW140682   5.126   7.364   3.474  0.9013  0.0611 -0.7963
12237SOL    HW240683   5.275   7.380   3.539  0.6377 -0.2176 -0.1090
12238SOL     OW40684   6.634   0.367   7.351  0.3737 -0.2150 -0.0678
12238SOL    HW140685   6.648   0.466   7.361  1.5616 -0.2795 -0.9346
12238SOL    HW240686   6.644   0.342   7.255 -3.0325 -0.7490 -0.3310
12240SOL     OW40687   9.977   4.065   1.791 -0.1275  0.2554 -0.1641
12240SOL    HW140688  10.000   3.969   1.803  0.2354  0.3667  0.0278
12240SOL    HW240689  10.058   4.116   1.763 -0.0659  0.6976  0.7918
12241SOL     OW40690   0.136   3.489   2.473  0.5153  0.6119 -0.2220
12241SOL    HW140691   0.193   3.539   2.538  0.7956  0.6131 -0.4719
12241SOL    HW240692   0.115   3.547   2.395 -1.3829  1.2761  0.7257
12242SOL     OW40693   9.935   8.257   4.051  0.1235  0.4056 -0.0934
12242SOL    HW140694   9.969   8.350   4.037  1.4038 -0.2097 -1.2630
12242SOL    HW240695   9.948   8.231   4.147  4.2832 -0.2565 -0.7211
12244SOL     OW40696   7.817   0.808   7.779 -0.3164 -0.5123 -0.0764
12244SOL    HW140697   7.809   0.736   7.711  0.4693 -0.6860  0.0062
12244SOL    HW240698   7.734   0.813   7.833 -0.6760 -0.8319 -0.5947
12245SOL     OW40699   0.004   7.155   2.532 -0.4950 -0.0321  0.2764
12245SOL    HW140700  -0.083   7.144   2.581 -0.9528 -0.6057 -0.6506
12245SOL    HW240701   0.065   7.079   2.556 -0.1750  0.4666  1.0649
12246SOL     OW40702   1.721   7.597   3.431 -0.2298  0.2037  0.0689
12246SOL    HW140703   1.808   7.603   3.381 -0.7342 -0.3059 -0.8710
12246SOL    HW240704   1.681   7.506   3.417 -0.5022  0.1485  1.1915
12247SOL     OW40705   1.893   6.503   7.866  0.6436  0.0365 -0.3787
12247SOL    HW140706   1.894   6.411   7.826  1.1286 -0.1072 -0.0415
12247SOL    HW240707   1.981   6.521   7.910  0.1303  0.2252  0.5626
12248SOL     OW40708   7.313   8.958   4.421 -0.5606  0.6244  0.4895
12248SOL    HW140709   7.316   8.990   4.326  0.3634  0.9221  0.6148
12248SOL    HW240710   7.249   9.014   4.473 -0.3800  1.0505  0.2562
12249SOL     OW40711   3.794   0.836   6.517 -0.1915 -0.0992  0.0056
12249SOL    HW140712   3.779   0.745   6.556 -2.0947 -0.0920 -0.6570
12249SOL    HW240713   3.763   0.837   6.422  0.4268  1.0695 -0.1978
12250SOL     OW40714   1.772   4.214   6.787 -0.4055 -0.0829  0.2746
12250SOL    HW140715   1.692   4.154   6.785 -2.5583  2.7176 -0.9456
12250SOL    HW240716   1.765   4.276   6.866 -0.8350  1.9576 -1.3369
12251SOL     OW40717   0.689   8.822   7.088 -0.0159 -0.0245 -0.0906
12251SOL    HW140718   0.774   8.828   7.036 -0.4042 -0.3914 -0.7700
12251SOL    HW240719   0.646   8.913   7.093 -0.0037  0.0032 -0.4631
12252SOL     OW40720   2.420   4.245   7.262 -0.5593 -0.2215 -0.7180
12252SOL    HW140721   2.384   4.336   7.242  0.0868  0.9998  3.1618
12252SOL    HW240722   2.463   4.246   7.353 -0.9705 -4.5145 -0.3808
12253SOL     OW40723   2.416   1.123   6.052 -0.7423 -0.4677 -0.1531
12253SOL    HW140724   2.391   1.096   6.145  1.7740  0.1422  0.7605
12253SOL    HW240725   2.516   1.122   6.044 -0.8172  2.5293 -1.9270
12254SOL     OW40726   2.794   2.446   5.727  0.0980 -0.1975  0.3874
12254SOL    HW140727   2.793   2.374   5.657 -0.9623 -0.1296  0.3253
12254SOL    HW240728   2.848   2.415   5.805  1.0696 -0.3813 -0.3440
12256SOL     OW40729   7.951   0.167   3.876  0.1317  0.3160 -0.1113
12256SOL    HW140730   7.899   0.199   3.797  2.0656  1.2637 -1.0361
12256SOL    HW240731   7.965   0.243   3.939  0.2966  0.0487  0.1738
12257SOL     OW40732   7.608   1.435   4.022 -0.1249 -0.3426 -0.7218
12257SOL    HW140733   7.680   1.379   3.981  2.2877  1.3697  1.0517
12257SOL    HW240734   7.625   1.444   4.121 -2.1786  0.9792 -0.4574
12259SOL     OW40735   4.110   1.062   4.402  0.0983 -0.5089 -0.5595
12259SOL    HW140736   4.092   1.152   4.443 -0.6698 -1.0512  0.2961
12259SOL    HW240737   4.031   1.003   4.415  2.0195 -2.5538  2.2107
12260SOL     OW40738   8.401   9.640   0.223  0.1491 -0.1317  0.1777
12260SOL    HW140739   8.458   9.558   0.217  0.4470  0.0486  0.4777
12260SOL    HW240740   8.444   9.714   0.170  0.0441 -0.0794  0.1639
12261SOL     OW40741   8.824   9.397   0.130  0.1040  0.4081  0.3017
12261SOL    HW140742   8.869   9.314   0.162  2.2928  1.5065  0.1641
12261SOL    HW240743   8.805   9.389   0.033  0.5074  0.1334  0.2414
12262SOL     OW40744   2.906   2.106   7.668  0.3546 -0.1097 -0.1492
12262SOL    HW140745   2.938   2.111   7.762  1.3809 -1.0599 -0.4341
12262SOL    HW240746   2.806   2.100   7.667  0.2917  0.7609  0.8338
12263SOL     OW40747   9.025   7.927   1.073 -0.4722  0.6566  0.2581
12263SOL    HW140748   9.106   7.868   1.072  0.4758  1.9387  0.1781
12263SOL    HW240749   8.981   7.924   0.983 -1.6086 -1.4890  0.8410
12264SOL     OW40750   7.941   3.288   3.710 -0.5886  0.0146  0.6891
12264SOL    HW140751   7.926   3.211   3.772  0.3194 -2.0307 -1.5546
12264SOL    HW240752   8.037   3.293   3.685 -1.1147  0.1347 -1.4040
12265SOL     OW40753   8.884   6.330   1.559 -0.6465 -0.2471 -0.2913
12265SOL    HW140754   8.833   6.246   1.540 -0.6083  0.1123 -2.0667
12265SOL    HW240755   8.909   6.333   1.656  0.8880 -3.1458 -0.5417
12266SOL     OW40756   4.297   9.400   3.106  0.7289  0.2209 -0.0452
12266SOL    HW140757   4.347   9.486   3.096  3.0077 -1.0093  0.2802
12266SOL    HW240758   4.219   9.413   3.166  2.3867  1.5630  1.8919
12267SOL     OW40759   0.601   1.966   7.306 -0.4945 -0.1624  0.2134
12267SOL    HW140760   0.591   1.931   7.399  1.3982  1.2203  0.9833
12267SOL    HW240761   0.634   2.061   7.310  0.3678 -0.3525 -1.8713
12268SOL     OW40762   2.720   4.697   4.152 -0.2508 -0.5462  0.1586
12268SOL    HW140763   2.772   4.772   4.193  0.2192 -1.0849  0.5843
12268SOL    HW240764   2.626   4.726   4.135 -0.5911 -0.4357  2.0743
12269SOL     OW40765   9.591   9.447   0.578  0.3692 -0.3659 -0.2230
12269SOL    HW140766   9.639   9.474   0.495  0.2876  0.8254  0.1062
12269SOL    HW240767   9.651   9.459   0.657 -0.0697  0.0072  0.0593
12270SOL     OW40768   6.674   1.235   1.406  0.0506 -0.0532  0.4644
12270SOL    HW140769   6.772   1.234   1.383 -0.3914  0.2487 -1.5317
12270SOL    HW240770   6.621   1.204   1.326 -1.6577  2.2765  0.6578
12271SOL     OW40771   1.101   2.827   1.366  0.1299 -0.6256  0.6483
12271SOL    HW140772   1.137   2.916   1.392 -0.4068 -0.4073  0.6439
12271SOL    HW240773   1.062   2.833   1.274  1.7059 -1.3036 -0.1006
12273SOL     OW40774   9.200   3.108   5.708 -0.0307  0.3387 -0.3820
12273SOL    HW140775   9.119   3.077   5.660 -0.8508  0.6427  0.7708
12273SOL    HW240776   9.204   3.063   5.798  1.2876  0.0298 -0.5843
12274SOL     OW40777   9.478   7.934   5.658 -0.3831  0.2342  0.3810
12274SOL    HW140778   9.500   7.877   5.737 -1.9612  0.1159  0.7473
12274SOL    HW240779   9.563   7.967   5.617  0.6134 -3.3082 -0.5742
12275SOL     OW40780   2.206   7.424   7.722  0.0937 -0.4857 -0.5686
12275SOL    HW140781   2.184   7.509   7.771  0.6971 -0.3807 -0.4816
12275SOL    HW240782   2.144   7.415   7.644 -0.2286 -0.1614 -0.3557
12276SOL     OW40783   1.940   2.641   7.293 -0.2215  0.4253  0.0149
12276SOL    HW140784   2.011   2.677   7.233  1.2027 -0.0024  1.4049
12276SOL    HW240785   1.860   2.702   7.291  0.3306  1.1161 -1.2684
12277SOL     OW40786   4.923   0.942   5.965 -0.1144 -0.3729  0.4778
12277SOL    HW140787   4.968   0.854   5.974 -1.8396 -1.2455  0.7729
12277SOL    HW240788   4.943   0.981   5.875 -1.5784 -2.3611 -0.7458
12278SOL     OW40789   4.075   6.618   7.812 -0.2296  0.5372  0.2301
12278SOL    HW140790   4.082   6.647   7.717  0.4547  0.7045  0.3282
12278SOL    HW240791   4.053   6.697   7.869 -1.9550  0.1917  0.0469
12279SOL     OW40792   1.542   3.284   2.813 -0.2527  0.7662  0.0931
12279SOL    HW140793   1.571   3.351   2.745  2.4164  0.0916  0.4896
12279SOL    HW240794   1.561   3.191   2.779 -0.3010  0.3723  1.1191
12280SOL     OW40795   5.410   1.400   5.753 -0.4927 -0.7784  0.0940
12280SOL    HW140796   5.460   1.424   5.835  1.3080 -0.0596 -1.1808
12280SOL    HW240797   5.344   1.473   5.732  0.8187  0.2794 -0.4760
12283SOL     OW40798   4.171   2.339   1.517  0.1282 -0.0855 -0.0948
12283SOL    HW140799   4.218   2.346   1.604  0.2952 -0.1445 -0.1795
12283SOL    HW240800   4.188   2.423   1.463  0.7032 -0.3928 -0.4032
12284SOL     OW40801   3.422   8.763   5.384 -0.0338  0.2969  0.4284
12284SOL    HW140802   3.469   8.846   5.354 -0.7212  1.2716  1.9413
12284SOL    HW240803   3.341   8.789   5.437 -1.3631 -1.3491 -0.7380
12285SOL     OW40804   5.076   7.243   4.040  0.2265  0.5044  0.2463
12285SOL    HW140805   5.124   7.272   3.957  1.1667 -0.3543  0.4733
12285SOL    HW240806   5.139   7.247   4.118  0.1023 -1.1528  0.4541
12286SOL     OW40807   1.327   7.551   4.687 -0.2100  0.0935  0.0771
12286SOL    HW140808   1.334   7.632   4.629  0.6787 -0.7969 -1.0804
12286SOL    HW240809   1.405   7.491   4.669 -1.0882 -1.2197  0.6160
12287SOL     OW40810   2.774   4.256   2.206 -0.1757  0.2597 -0.2560
12287SOL    HW140811   2.726   4.272   2.120 -0.6422  0.6094  0.0690
12287SOL    HW240812   2.758   4.333   2.268 -0.4488 -0.3274  0.4142
12288SOL     OW40813   5.437   3.073   2.054  0.1081 -0.2827 -0.2561
12288SOL    HW140814   5.433   3.037   2.147  2.3001  0.3994  0.1288
12288SOL    HW240815   5.372   3.149   2.045 -1.5934 -1.6516  0.0905
12289SOL     OW40816   7.247   9.244   3.137 -0.0491 -0.4560  0.6072
12289SOL    HW140817   7.271   9.313   3.205  1.5171 -0.3709 -0.0142
12289SOL    HW240818   7.321   9.177   3.130  0.0295 -0.1938 -1.3473
12291SOL     OW40819   2.532   8.931   2.021  0.2694  0.4687  0.0671
12291SOL    HW140820   2.439   8.936   1.984  0.2309 -1.3188 -0.1274
12291SOL    HW240821   2.598   8.950   1.948  0.0797  0.9197  0.0125
12292SOL     OW40822   1.176   0.185   5.598 -0.0256 -0.3528 -0.1124
12292SOL    HW140823   1.177   0.284   5.611  1.9543 -0.2428 -0.9516
12292SOL    HW240824   1.095   0.159   5.544 -0.9082  0.7208  0.6853
12295SOL     OW40825   0.444   0.836   2.498 -0.1881 -0.2634  0.1055
12295SOL    HW140826   0.434   0.928   2.537  0.1976 -0.1378 -0.0931
12295SOL    HW240827   0.533   0.828   2.454 -0.7351 -0.2872 -1.0302
12296SOL     OW40828   0.539   9.289   3.101  0.0162  0.0914 -0.3760
12296SOL    HW140829   0.603   9.214   3.086 -0.2646  0.0476 -1.4567
12296SOL    HW240830   0.586   9.365   3.147 -0.0741 -1.2890  2.0355
12297SOL     OW40831   4.102   4.298   3.411 -0.0773  0.1440 -0.3126
12297SOL    HW140832   4.128   4.219   3.357  0.3335 -0.0369  0.1404
12297SOL    HW240833   4.124   4.382   3.361 -2.4421 -0.0201 -1.6931
12298SOL     OW40834   4.347   6.452   2.025  0.1350 -0.0063  0.2595
12298SOL    HW140835   4.381   6.453   1.931  0.5546  1.7471  0.4224
12298SOL    HW240836   4.397   6.383   2.077 -0.4311 -1.3376 -0.8954
12300SOL     OW40837   2.979   4.525   4.986  0.4676  0.1682 -0.5315
12300SOL    HW140838   3.026   4.577   4.915  2.4948  0.5389  1.0354
12300SOL    HW240839   3.042   4.507   5.061 -1.4711 -0.7035  0.9299
12301SOL     OW40840   7.737   9.372   5.705  0.4128 -0.3048 -0.4580
12301SOL    HW140841   7.834   9.354   5.720  0.5577  0.2936 -0.6376
12301SOL    HW240842   7.721   9.390   5.608  0.6813  2.7297  0.0035
12302SOL     OW40843   5.912   9.659   3.089  0.6026  0.5864 -0.3953
12302SOL    HW140844   5.860   9.611   3.018  0.6195  0.3636 -0.2551
12302SOL    HW240845   5.871   9.750   3.103 -0.2393  0.1125  0.2709
12303SOL     OW40846   8.734   3.257   0.600 -0.2512  0.5275 -0.0379
12303SOL    HW140847   8.799   3.258   0.525 -1.1327  1.5269 -0.8101
12303SOL    HW240848   8.726   3.165   0.637  1.4968  0.3814 -0.0118
12304SOL     OW40849   2.071   8.147   5.213  0.0026 -0.7190 -0.2256
12304SOL    HW140850   2.153   8.167   5.160  0.3580 -3.0026 -0.5948
12304SOL    HW240851   2.095   8.093   5.294 -0.5511  2.5709  2.2657
12305SOL     OW40852   8.379   8.455   3.062 -0.2795 -0.3553  0.0212
12305SOL    HW140853   8.381   8.372   3.117  0.5596 -0.7410 -0.5897
12305SOL    HW240854   8.294   8.458   3.009 -0.9279 -0.1564  1.0497
12306SOL     OW40855   8.409   7.389   4.287  0.5537 -0.2391 -0.3785
12306SOL    HW140856   8.470   7.403   4.209  0.5592 -0.2514 -0.3758
12306SOL    HW240857   8.428   7.457   4.357  2.2720 -1.7640  0.6817
12307SOL     OW40858   1.455   4.374   4.351  0.2295 -0.4126  0.1091
12307SOL    HW140859   1.551   4.370   4.380  0.7829 -0.4712 -1.6948
12307SOL    HW240860   1.398   4.328   4.420  1.5958 -1.2430  0.7189
12308SOL     OW40861   7.203   9.514   7.673  0.0291 -0.1824 -0.1448
12308SOL    HW140862   7.153   9.462   7.741 -1.7559  0.9897 -0.5252
12308SOL    HW240863   7.191   9.472   7.583  0.0550 -0.1154 -0.1801
12309SOL     OW40864   4.042   4.635   0.628  0.1876  0.0055 -0.4066
12309SOL    HW140865   4.102   4.705   0.589 -1.2365  1.7394  0.4456
12309SOL    HW240866   4.097   4.563   0.670  1.6813  0.2374 -1.9352
12311SOL     OW40867   2.639   5.459   1.578  0.6470  0.3471  0.3082
12311SOL    HW140868   2.661   5.388   1.511 -0.8780  1.5806 -1.5367
12311SOL    HW240869   2.716   5.522   1.586  1.1948 -0.3348  0.3906
12312SOL     OW40870   6.927   9.740   3.028  0.1336  0.5468  0.5226
12312SOL    HW140871   6.870   9.664   3.059  1.1221 -0.7081 -0.6888
12312SOL    HW240872   6.897   9.771   2.938  1.2944 -0.0687 -0.0898
12315SOL     OW40873   9.152   8.179   3.180  0.8166 -0.4664 -0.6422
12315SOL    HW140874   9.132   8.084   3.156  1.6185 -1.7516  3.4602
12315SOL    HW240875   9.067   8.231   3.184  0.0318 -1.7864  0.1895
12316SOL     OW40876   3.016   5.246   0.728  0.1340  0.9586 -0.7109
12316SOL    HW140877   2.919   5.224   0.718  0.3752 -0.6466  0.2737
12316SOL    HW240878   3.059   5.179   0.788  2.1511  0.8486 -2.2337
12317SOL     OW40879   7.358   7.924   2.999  0.4805 -0.0604 -0.6579
12317SOL    HW140880   7.308   7.973   2.928  0.5555 -0.9217 -1.3253
12317SOL    HW240881   7.430   7.983   3.036 -0.8011  1.0515  0.0609
12318SOL     OW40882   4.255   1.881   1.594  0.3701  0.7931  0.1026
12318SOL    HW140883   4.262   1.848   1.499 -0.6830 -0.5949  0.4785
12318SOL    HW240884   4.159   1.880   1.621  0.5719  2.1550  0.8595
12319SOL     OW40885   3.300   3.471   4.017  0.0399 -0.4322  0.4064
12319SOL    HW140886   3.283   3.375   3.995  1.5672 -0.6920  0.3527
12319SOL    HW240887   3.381   3.479   4.074  0.0041  0.8424  0.2955
12320SOL     OW40888   8.906   1.874   5.564 -0.2029 -0.7198 -0.3617
12320SOL    HW140889   8.980   1.934   5.534 -1.7952  0.4226 -2.1397
12320SOL    HW240890   8.841   1.927   5.620 -0.4838 -1.3224 -0.1158
12321SOL     OW40891   6.010   8.699   7.421 -0.0024  0.3646 -0.5181
12321SOL    HW140892   5.990   8.601   7.412  0.6678  0.1954 -0.2501
12321SOL    HW240893   5.955   8.738   7.494  0.0363  0.0926 -0.3442
12322SOL     OW40894   4.000   7.105   1.456  0.8275 -0.2928  0.0233
12322SOL    HW140895   3.993   7.156   1.370  1.3002 -1.1734 -0.5499
12322SOL    HW240896   4.063   7.151   1.518  0.4747  0.3540 -0.1000
12324SOL     OW40897   0.158   8.472   1.543 -0.1894 -0.2707 -0.1135
12324SOL    HW140898   0.131   8.495   1.449  1.3951 -1.0865 -0.7883
12324SOL    HW240899   0.077   8.472   1.601 -0.9482  2.1203 -1.0717
12326SOL     OW40900   7.041   0.784   3.317 -0.5330 -0.3750  0.5350
12326SOL    HW140901   7.022   0.738   3.230 -0.5170  0.4186  0.1084
12326SOL    HW240902   7.106   0.730   3.370  0.2906 -0.3332 -0.4180
12327SOL     OW40903   3.847   2.007   4.505 -0.1144  0.3971  0.1577
12327SOL    HW140904   3.891   1.975   4.589  1.0585  2.2734  0.2770
12327SOL    HW240905   3.750   2.024   4.522 -0.5250 -1.9318  0.3823
12329SOL     OW40906   5.112   8.189   6.206 -0.3153 -0.0119  0.4033
12329SOL    HW140907   5.109   8.159   6.301  2.9300  0.4554  0.7103
12329SOL    HW240908   5.138   8.286   6.203  1.2667 -0.4636 -0.9994
12330SOL     OW40909   1.866   5.177   4.800 -0.3120  0.1387  0.0469
12330SOL    HW140910   1.775   5.206   4.770 -0.3007 -0.9801 -1.0923
12330SOL    HW240911   1.890   5.091   4.756  1.7437  0.9641 -0.4965
12331SOL     OW40912   2.820   3.111   1.008  0.4929  0.8651 -0.2688
12331SOL    HW140913   2.896   3.174   0.990  0.3557  1.5234  1.4316
12331SOL    HW240914   2.841   3.022   0.968  1.3770  1.5314 -1.3304
12332SOL     OW40915   3.481   6.714   3.345 -0.0023  0.2659 -1.1597
12332SOL    HW140916   3.454   6.626   3.384 -1.5935  1.3293  0.2049
12332SOL    HW240917   3.423   6.734   3.266 -2.5299  1.9575  1.0103
12333SOL     OW40918   3.290   2.332   6.583  0.2659 -0.0002  0.3103
12333SOL    HW140919   3.235   2.388   6.645  1.6152 -0.5373  2.0316
12333SOL    HW240920   3.371   2.299   6.631  0.3495 -2.0508 -1.1867
12334SOL     OW40921   5.057   8.261   5.940 -0.2284 -0.1073  0.1133
12334SOL    HW140922   5.099   8.224   6.023 -0.0470  1.4274  0.7264
12334SOL    HW240923   5.117   8.243   5.862  0.6908  0.4503  0.6864
12336SOL     OW40924   1.392   6.486   1.102  0.3578 -0.3835  1.0418
12336SOL    HW140925   1.370   6.391   1.076  1.4283 -0.3396 -0.0645
12336SOL    HW240926   1.462   6.522   1.041 -1.8629  2.0162 -0.1968
12338SOL     OW40927   3.103   4.419   6.574 -0.2556 -0.0786 -0.7384
12338SOL    HW140928   3.031   4.400   6.640  0.3862  0.5115  0.1354
12338SOL    HW240929   3.150   4.333   6.551 -0.0068 -0.1769  0.1216
12339SOL     OW40930   0.793   2.325   1.673  0.4947  0.1507 -0.1103
12339SOL    HW140931   0.717   2.270   1.637 -0.0412 -0.5547  2.0184
12339SOL    HW240932   0.874   2.268   1.684  0.6213  0.3296 -0.1147
12342SOL     OW40933   1.451   3.649   7.519 -0.0261 -0.2012  0.1705
12342SOL    HW140934   1.461   3.629   7.421 -2.2383  2.8209 -0.7623
12342SOL    HW240935   1.529   3.611   7.569  2.5625  0.4815 -3.1347
12343SOL     OW40936   1.896   4.243   3.748 -0.6129 -0.6884 -0.4391
12343SOL    HW140937   1.850   4.318   3.700 -0.9412 -1.2360 -0.9734
12343SOL    HW240938   1.854   4.156   3.724  0.9099 -1.2382 -1.2149
12344SOL     OW40939   8.698   9.776   6.003 -0.1262 -0.2707 -0.0383
12344SOL    HW140940   8.675   9.846   6.070 -0.2128  1.2260 -1.5900
12344SOL    HW240941   8.689   9.686   6.044 -0.3176  0.6161  1.9047
12348SOL     OW40942   9.173   6.697   7.566  0.2050 -0.4528  0.3239
12348SOL    HW140943   9.219   6.640   7.634 -1.0033  0.1025  1.6193
12348SOL    HW240944   9.180   6.794   7.592 -1.4711 -0.3372  0.4117
12350SOL     OW40945   4.151   3.632   4.227 -1.0021  0.6963  0.6353
12350SOL    HW140946   4.106   3.558   4.177  0.6046 -0.4544  0.8233
12350SOL    HW240947   4.113   3.720   4.199 -2.3352 -0.1491 -0.2444
12351SOL     OW40948   7.240   5.611   0.283 -0.3430  0.6450 -0.4977
12351SOL    HW140949   7.171   5.553   0.240  0.6412  0.3644 -1.7343
12351SOL    HW240950   7.237   5.599   0.382 -4.1775  2.9840 -0.1981
12352SOL     OW40951   0.788   6.632   3.167 -0.0720  0.2264 -0.7673
12352SOL    HW140952   0.811   6.728   3.152 -0.6981  0.9709  2.6449
12352SOL    HW240953   0.872   6.577   3.164  0.6732  1.3003  0.1332
12354SOL     OW40954   0.323   2.651   3.314  0.1645 -0.3589  0.0009
12354SOL    HW140955   0.324   2.578   3.246 -0.6385 -0.5779  0.2179
12354SOL    HW240956   0.408   2.704   3.308 -0.3885  0.3452 -1.9602
12355SOL     OW40957   1.829   4.407   6.966  0.3149  0.4605  0.0225
12355SOL    HW140958   1.825   4.504   6.944  0.8324  0.1940 -1.3039
12355SOL    HW240959   1.901   4.391   7.034  1.0318  0.8525 -0.6371
12356SOL     OW40960   6.826   1.741   0.070  0.8823  0.5209 -0.4457
12356SOL    HW140961   6.875   1.670   0.019 -0.3241 -0.7759  0.1806
12356SOL    HW240962   6.862   1.831   0.044  1.8943 -0.2601 -1.8315
12358SOL     OW40963   3.253   3.849   7.152 -0.0087 -0.7111  0.5330
12358SOL    HW140964   3.165   3.802   7.143  0.4993 -1.6470  0.3201
12358SOL    HW240965   3.276   3.859   7.249  0.0335 -1.2090  0.5763
12359SOL     OW40966   7.816   8.429   7.245  0.0806 -0.2608 -0.1079
12359SOL    HW140967   7.786   8.516   7.207 -0.5535 -0.9466 -1.2100
12359SOL    HW240968   7.901   8.400   7.200  0.1697 -0.3305  0.1005
12360SOL     OW40969   7.321   6.530   6.103  0.0912 -0.1968  0.8331
12360SOL    HW140970   7.352   6.555   6.011  0.7472 -0.4491  0.9818
12360SOL    HW240971   7.243   6.586   6.128 -0.7581 -0.8348 -0.2948
12361SOL     OW40972   0.057   3.814   0.306 -0.3684  0.6423  0.3927
12361SOL    HW140973   0.136   3.834   0.364  1.0282 -0.1433 -1.1931
12361SOL    HW240974  -0.019   3.874   0.331  0.8508  1.6773  1.6829
12363SOL     OW40975   1.260   0.858   3.024 -0.5170 -1.0347  0.0701
12363SOL    HW140976   1.163   0.870   3.048 -0.7237 -2.8030  0.1921
12363SOL    HW240977   1.317   0.875   3.104 -0.5428  2.2269 -0.5464
12364SOL     OW40978   1.435   2.833   6.652  0.2221  0.1151  0.4010
12364SOL    HW140979   1.487   2.868   6.730 -0.7220 -0.3255  1.2490
12364SOL    HW240980   1.373   2.761   6.683 -1.1177  0.8379 -0.5192
12365SOL     OW40981   8.693   0.010   5.148 -0.2843  0.1398  0.3082
12365SOL    HW140982   8.639   0.049   5.074  0.5920  0.5424 -0.1231
12365SOL    HW240983   8.711  -0.087   5.129  0.4660  0.3940 -0.3232
12367SOL     OW40984   3.397   2.324   7.775  0.0126 -0.0106  0.3400
12367SOL    HW140985   3.398   2.318   7.875 -0.4113 -0.3445  0.3250
12367SOL    HW240986   3.339   2.251   7.738  1.2982 -0.7607 -0.2089
12369SOL     OW40987   0.006   4.942   0.678 -0.3301 -0.0707 -0.3472
12369SOL    HW140988   0.037   4.961   0.585 -0.1011  0.6658 -0.1223
12369SOL    HW240989   0.067   4.986   0.743 -0.6503 -0.3543  0.1427
12371SOL     OW40990   8.266   3.655   5.808 -0.6919 -0.2463  0.1239
12371SOL    HW140991   8.350   3.620   5.766 -0.5253  1.5763 -1.1219
12371SOL    HW240992   8.278   3.662   5.907  0.5643 -0.1927 -0.0243
12372SOL     OW40993   9.625   8.854   6.245 -0.2834  0.0919 -0.1581
12372SOL    HW140994   9.569   8.772   6.256 -0.5188  0.3375  0.4615
12372SOL    HW240995   9.577   8.920   6.186 -0.9752  0.6079  0.9730
12373SOL     OW40996   7.748   7.374   6.282 -0.6075  0.0305  0.0629
12373SOL    HW140997   7.791   7.287   6.305 -1.5634 -0.2673  0.7364
12373SOL    HW240998   7.783   7.406   6.194 -0.3598 -1.0886 -0.2541
12374SOL     OW40999   7.961   6.084   2.904  0.3243 -0.0988  0.1276
12374SOL    HW141000   7.916   6.157   2.853  0.1423  0.8773  1.6386
12374SOL    HW241001   8.045   6.056   2.857  0.0879  0.6784 -0.7554
12375SOL     OW41002   8.692   2.909   1.028  0.3654  0.1970  0.3799
12375SOL    HW141003   8.747   2.860   1.095  1.0802 -1.3701 -1.2949
12375SOL    HW241004   8.750   2.936   0.951 -1.0328 -0.8285 -1.0736
12376SOL     OW41005   4.850   4.110   2.432 -0.2429 -1.0087  0.2198
12376SOL    HW141006   4.935   4.095   2.482  0.3503  0.2878 -0.3899
12376SOL    HW241007   4.780   4.048   2.467  0.2612 -0.3887  2.4154
12378SOL     OW41008   7.205   9.768   6.780  0.3494 -0.0592 -0.5254
12378SOL    HW141009   7.255   9.823   6.713 -0.0568  1.3098  0.2937
12378SOL    HW241010   7.221   9.804   6.872 -1.6566  0.0328 -0.1921
12380SOL     OW41011   3.411   6.515   3.536  0.1940  0.2188  0.8950
12380SOL    HW141012   3.331   6.455   3.528  1.3480 -1.4395  1.5885
12380SOL    HW241013   3.409   6.561   3.625  0.0092  0.1701  0.9156
12383SOL     OW41014   5.632   4.836   2.064  0.0435  0.2049 -0.8858
12383SOL    HW141015   5.634   4.901   2.140 -0.6351 -1.2567  0.4135
12383SOL    HW241016   5.647   4.744   2.100 -0.4595 -0.5211 -2.5275
12384SOL     OW41017   6.304   1.235   2.572 -0.1491 -0.4135 -0.1502
12384SOL    HW141018   6.268   1.268   2.485 -0.4158 -0.2709  0.0094
12384SOL    HW241019   6.368   1.161   2.557 -0.7867 -0.9127 -0.4280
12385SOL     OW41020   7.817   8.147   1.959  0.5296  0.1230 -0.1658
12385SOL    HW141021   7.794   8.115   1.867 -0.4603  0.2241  0.0356
12385SOL    HW241022   7.877   8.081   2.003  0.6859 -0.1235 -0.7363
12386SOL     OW41023   0.377   1.540   4.894 -0.2965 -0.4297  0.4747
12386SOL    HW141024   0.284   1.562   4.865 -0.1142  0.3565  0.4727
12386SOL    HW241025   0.394   1.580   4.984  0.4838  0.5799 -0.1103
12387SOL     OW41026   3.791   3.109   3.844 -0.5215  0.0875 -0.0559
12387SOL    HW141027   3.739   3.047   3.785  0.6288 -0.4612 -0.4979
12387SOL    HW241028   3.767   3.091   3.940 -0.8927 -0.4040 -0.2362
12388SOL     OW41029   9.750   6.672   5.891 -0.2779 -0.0125  0.6564
12388SOL    HW141030   9.818   6.600   5.881  0.6617  0.9658 -0.1013
12388SOL    HW241031   9.691   6.675   5.811  0.5208  0.9035  0.0894
12389SOL     OW41032   1.065   9.490   7.700 -0.4098  0.0471  0.1447
12389SOL    HW141033   1.079   9.485   7.799 -1.0780 -1.0206  0.1936
12389SOL    HW241034   1.124   9.422   7.656 -0.0907  0.5440 -0.1952
12390SOL     OW41035   3.355   8.126   7.880  1.1869 -0.1118  0.3815
12390SOL    HW141036   3.427   8.193   7.894  1.6620 -0.0644 -1.9793
12390SOL    HW241037   3.396   8.037   7.861  0.6105 -0.4405  0.6683
12391SOL     OW41038   5.823   2.823   0.197  0.4636 -0.0522  0.1677
12391SOL    HW141039   5.889   2.870   0.255  1.5411  0.2242 -1.2510
12391SOL    HW241040   5.848   2.835   0.101 -0.5506 -1.5846 -0.3190
12392SOL     OW41041   8.086   1.972   7.537  0.4353 -0.2998 -0.1438
12392SOL    HW141042   8.044   2.037   7.474 -0.2218  0.4325  1.0261
12392SOL    HW241043   8.088   2.011   7.629  0.4578 -1.7471  0.4854
12393SOL     OW41044   5.195   9.574   7.736 -0.4840 -0.3704 -0.0981
12393SOL    HW141045   5.223   9.599   7.643  1.2921 -1.4826  0.0994
12393SOL    HW241046   5.219   9.648   7.799  1.7493 -1.1404  0.0028
12394SOL     OW41047   8.140   6.524   5.803  0.0332 -0.2710  0.1294
12394SOL    HW141048   8.151   6.437   5.755  0.2517 -0.4009  0.4107
12394SOL    HW241049   8.134   6.507   5.901  0.4968  0.0673  0.2170
12398SOL     OW41050   8.578   6.440   1.294 -0.6442 -0.4773 -0.2279
12398SOL    HW141051   8.607   6.344   1.299  0.9318 -0.0516 -0.8184
12398SOL    HW241052   8.629   6.486   1.221 -0.4042  1.1405  0.9309
12399SOL     OW41053   4.975   1.352   6.371  0.5058  0.2906 -0.2683
12399SOL    HW141054   4.971   1.398   6.460 -0.3553  1.0596 -0.6934
12399SOL    HW241055   4.894   1.376   6.317 -0.6307 -2.7524 -0.0181
12400SOL     OW41056   6.911   1.042   0.723 -0.3147  0.5940 -0.0604
12400SOL    HW141057   6.993   0.986   0.731 -1.4314 -0.9939  0.4971
12400SOL    HW241058   6.933   1.137   0.747  1.0289 -0.1119  1.5899
12401SOL     OW41059   3.442   5.099   0.770 -0.0446 -0.2819  0.1921
12401SOL    HW141060   3.487   5.177   0.815  0.9352 -0.4493 -0.4742
12401SOL    HW241061   3.490   5.015   0.795  0.7153 -0.3397 -1.4034
12402SOL     OW41062   5.515   9.192   4.193 -0.4585 -0.0981  0.2067
12402SOL    HW141063   5.576   9.157   4.264 -0.3120  0.4718  0.3647
12402SOL    HW241064   5.432   9.137   4.191 -0.2032 -0.4953  0.4072
12403SOL     OW41065   2.908   2.853   1.003 -0.1160 -0.0786 -0.1233
12403SOL    HW141066   2.850   2.774   1.024 -1.0501 -0.1847 -2.9769
12403SOL    HW241067   2.976   2.864   1.076 -2.0988 -1.4521  2.0145
12404SOL     OW41068   6.156   7.508   2.811 -0.5778 -0.3856 -0.4633
12404SOL    HW141069   6.165   7.479   2.716  2.4932 -1.4832  0.0858
12404SOL    HW241070   6.226   7.576   2.832  1.0623 -2.6591  1.8600
12405SOL     OW41071   9.270   2.155   2.290  0.2196  0.0800  0.0047
12405SOL    HW141072   9.262   2.074   2.231 -1.1462 -1.4530  2.2057
12405SOL    HW241073   9.230   2.234   2.243 -1.5632 -1.2783 -0.8435
12406SOL     OW41074   1.447   4.759   2.028 -0.1256 -0.0299 -0.0392
12406SOL    HW141075   1.493   4.764   2.116 -0.1337  0.4139 -0.0583
12406SOL    HW241076   1.348   4.746   2.043 -0.1590  0.2876  0.0219
12407SOL     OW41077   7.409   3.182   4.423  0.1874 -0.1745  0.3731
12407SOL    HW141078   7.440   3.246   4.353  0.0402 -0.6245 -0.1090
12407SOL    HW241079   7.339   3.122   4.384  0.9572 -1.2125  0.5541
12408SOL     OW41080   5.111   8.729   2.324 -0.1789  0.0774  0.4457
12408SOL    HW141081   5.085   8.800   2.258 -2.0984  0.3663  1.4832
12408SOL    HW241082   5.117   8.641   2.277  1.2972  0.7453 -0.6629
12409SOL     OW41083   3.766   5.118   0.958 -0.6807 -0.2839  0.0295
12409SOL    HW141084   3.774   5.045   0.890  0.1631 -1.0820  0.9724
12409SOL    HW241085   3.713   5.086   1.036 -0.8253  0.3128  0.1791
12410SOL     OW41086   2.620   4.761   0.403  0.6895 -0.0041  0.7591
12410SOL    HW141087   2.653   4.852   0.378  3.6112 -1.4379 -0.8640
12410SOL    HW241088   2.526   4.749   0.371  0.3803  2.2891  0.7121
12411SOL     OW41089   2.040   0.130   3.631 -0.3354  0.5495 -0.6069
12411SOL    HW141090   1.973   0.131   3.705  0.8808  1.6922  0.5210
12411SOL    HW241091   2.132   0.135   3.670  0.3251  1.0779 -2.1914
12412SOL     OW41092   0.094   2.736   2.837 -0.4133 -0.4213  0.3374
12412SOL    HW141093   0.086   2.743   2.738 -0.2079  2.0311  0.4487
12412SOL    HW241094   0.190   2.723   2.862 -0.3470 -0.1390  0.2371
12413SOL     OW41095   4.040   6.008   4.665  0.5895  0.2093  0.0606
12413SOL    HW141096   4.085   5.920   4.651 -1.0183 -0.3662 -1.6757
12413SOL    HW241097   4.091   6.079   4.616 -0.8237 -0.5891 -2.6885
12414SOL     OW41098   3.695   8.211   3.880  0.0327 -0.2640  0.2312
12414SOL    HW141099   3.673   8.140   3.947 -1.8347 -1.3382 -1.4447
12414SOL    HW241100   3.767   8.178   3.818 -1.8778 -1.3497 -1.4795
12415SOL     OW41101   4.904   2.018   6.159 -0.3472  0.0777 -0.0125
12415SOL    HW141102   5.000   2.017   6.128  0.5252  2.4334  2.4877
12415SOL    HW241103   4.874   1.924   6.175  1.7443 -0.6686 -0.2603
12416SOL     OW41104   7.670   5.995   6.130  0.1118  0.0381 -0.1566
12416SOL    HW141105   7.758   5.948   6.128  0.7111  1.2036 -1.7642
12416SOL    HW241106   7.598   5.928   6.147  1.1241 -1.1971 -0.5716
12418SOL     OW41107   2.246   6.775   3.133 -0.0034 -0.3973 -0.0513
12418SOL    HW141108   2.181   6.701   3.146 -0.9583  0.4169 -0.1123
12418SOL    HW241109   2.226   6.822   3.046  0.2491  0.2628  0.2413
12419SOL     OW41110   7.588   6.737   4.854 -0.3498  0.2162  0.3931
12419SOL    HW141111   7.530   6.818   4.846 -0.1087  0.6409  2.6360
12419SOL    HW241112   7.534   6.655   4.834 -1.2511  0.7343  0.7253
12420SOL     OW41113   5.950   1.104   4.824  0.2254 -0.9865 -0.1435
12420SOL    HW141114   5.935   1.059   4.736  0.5865  1.0217 -1.2674
12420SOL    HW241115   6.010   1.183   4.811 -1.6103  0.7268  1.4646
12421SOL     OW41116   9.199   9.449   1.360 -0.2105  0.3865  0.0666
12421SOL    HW141117   9.241   9.524   1.308 -0.4633 -1.3870 -2.7658
12421SOL    HW241118   9.270   9.388   1.393 -0.1613  0.6570  0.4666
12422SOL     OW41119   0.627   2.161   1.533  0.4749 -0.0534 -0.0578
12422SOL    HW141120   0.585   2.070   1.533 -0.4550  0.3035 -3.0991
12422SOL    HW241121   0.559   2.229   1.559  1.1819 -0.1898  2.2594
12424SOL     OW41122   3.173   1.518   5.033  0.5613  0.6613 -0.2732
12424SOL    HW141123   3.076   1.541   5.038  0.5913  0.3467  3.2661
12424SOL    HW241124   3.185   1.432   4.984 -0.9664  0.6917 -0.7160
12425SOL     OW41125   5.919   2.591   2.517 -0.2647  0.0938  0.0629
12425SOL    HW141126   5.871   2.664   2.469  0.7724  0.6340 -0.1771
12425SOL    HW241127   5.854   2.537   2.570 -1.3131 -0.0221 -1.3119
12426SOL     OW41128   9.505   1.283   4.857  0.0887 -0.2489  0.2451
12426SOL    HW141129   9.563   1.267   4.777  1.4597 -0.3905  1.2294
12426SOL    HW241130   9.409   1.286   4.830  0.5441 -0.2341 -1.3999
12427SOL     OW41131   5.218   6.586   2.044 -0.1409 -0.4559  0.0609
12427SOL    HW141132   5.162   6.609   1.964 -0.6099 -1.3877  0.1148
12427SOL    HW241133   5.259   6.496   2.031  2.2065  0.6368 -0.4347
12428SOL     OW41134   9.012   9.807   2.054 -0.1727 -0.2837  0.0288
12428SOL    HW141135   8.945   9.828   1.983  1.9742  1.1490 -1.6592
12428SOL    HW241136   9.017   9.707   2.067 -3.7895 -0.3486  1.4323
12429SOL     OW41137   6.265   0.461   6.739 -0.7545  0.5317 -0.0489
12429SOL    HW141138   6.326   0.540   6.742 -0.0797 -0.0087  0.7608
12429SOL    HW241139   6.297   0.398   6.668 -0.6364  0.4648  0.0629
12430SOL     OW41140   9.415   8.798   7.148 -0.0764  0.4027  0.2998
12430SOL    HW141141   9.376   8.890   7.149 -0.7502  0.1365 -0.8354
12430SOL    HW241142   9.443   8.775   7.055  1.7700  0.1495  0.8929
12431SOL     OW41143   1.550   2.661   1.769 -0.9557 -0.2081  0.1517
12431SOL    HW141144   1.493   2.731   1.811 -2.1770 -0.2616 -1.3609
12431SOL    HW241145   1.523   2.648   1.673  1.0641 -0.8085 -0.3817
12432SOL     OW41146   0.231   7.134   1.366  0.2503  0.3695 -0.7153
12432SOL    HW141147   0.252   7.066   1.295  0.9813 -1.0752  0.8558
12432SOL    HW241148   0.164   7.199   1.331 -0.3640 -1.0846 -2.2988
12433SOL     OW41149   0.101   9.123   4.167 -0.4052  0.2041 -0.0537
12433SOL    HW141150   0.028   9.168   4.116  0.4759  0.4451 -1.1387
12433SOL    HW241151   0.178   9.187   4.177  0.1054 -0.4264  0.0600
12435SOL     OW41152   0.349   4.357   3.602 -0.5020 -0.0775 -0.1644
12435SOL    HW141153   0.332   4.270   3.555  0.7639 -0.9961  1.0288
12435SOL    HW241154   0.316   4.351   3.696  2.5744 -0.4468  0.9273
12436SOL     OW41155   9.185   0.210   6.035  1.1221  0.5828  0.0857
12436SOL    HW141156   9.098   0.197   6.085  1.7182  0.8024  1.2027
12436SOL    HW241157   9.247   0.135   6.056  1.5354  0.9018  0.0228
12437SOL     OW41158   7.140   3.642   0.050 -0.7407 -0.0513 -0.0940
12437SOL    HW141159   7.142   3.545   0.076 -2.8821  0.1013  0.7204
12437SOL    HW241160   7.074   3.691   0.107  0.2760  1.9006 -0.5363
12438SOL     OW41161   9.618   1.116   0.026 -0.3006 -0.4813 -0.4051
12438SOL    HW141162   9.590   1.140   0.119 -0.3384 -1.9725 -0.0291
12438SOL    HW241163   9.618   1.017   0.015  2.1736 -0.4207 -1.2323
12440SOL     OW41164   2.478   3.271   4.763  0.1509 -0.3670 -0.3157
12440SOL    HW141165   2.555   3.217   4.799 -0.5359 -1.3626 -0.3093
12440SOL    HW241166   2.428   3.216   4.696 -0.2443  0.4683 -0.7126
12441SOL     OW41167   7.967   9.705   2.771  0.1522 -0.6400  0.8369
12441SOL    HW141168   8.001   9.795   2.800 -0.2883 -0.7456  1.6845
12441SOL    HW241169   8.005   9.634   2.830 -0.7342 -0.8584  1.1484
12442SOL     OW41170   0.433   3.390   6.540 -0.5362  0.0723  0.4180
12442SOL    HW141171   0.382   3.414   6.457 -1.4935  0.5074  1.1322
12442SOL    HW241172   0.376   3.334   6.600  0.3713 -0.7768  0.5112
12443SOL     OW41173   9.052   4.234   0.222  0.4048  0.3502 -0.3052
12443SOL    HW141174   9.057   4.334   0.216 -0.2137  0.3981 -0.1156
12443SOL    HW241175   9.080   4.195   0.135 -1.3781  0.7773 -1.1078
12445SOL     OW41176   7.846   4.727   2.789 -0.5579  0.3388  0.1619
12445SOL    HW141177   7.814   4.781   2.867 -0.1076 -0.7051  1.0846
12445SOL    HW241178   7.890   4.643   2.822  2.3612  1.3047 -1.0775
12446SOL     OW41179   4.623   2.782   1.580 -0.4250  0.3077  0.0135
12446SOL    HW141180   4.582   2.784   1.489 -0.5971  1.7098  0.1114
12446SOL    HW241181   4.678   2.699   1.590 -1.3288 -0.4277 -0.9547
12447SOL     OW41182   2.147   3.907   4.999  0.8484  0.0979  0.0250
12447SOL    HW141183   2.091   3.986   5.022 -1.0166 -1.4350  0.8748
12447SOL    HW241184   2.138   3.837   5.070  2.2598 -0.9822 -0.8283
12448SOL     OW41185   6.141   1.958   4.786  0.4724 -0.9823  0.0231
12448SOL    HW141186   6.183   1.894   4.851  1.5278 -0.6450 -0.3187
12448SOL    HW241187   6.112   2.040   4.835  1.0740 -0.8167  0.1087
12450SOL     OW41188   1.305   1.317   2.850 -0.6927  0.4446 -0.4905
12450SOL    HW141189   1.370   1.243   2.870 -0.0593  0.7361 -1.4236
12450SOL    HW241190   1.216   1.278   2.825 -1.4790  0.0675  2.7174
12451SOL     OW41191   4.930   0.951   3.731  0.2763  0.0476 -0.2587
12451SOL    HW141192   4.856   1.007   3.768  0.8125  0.3022  0.4394
12451SOL    HW241193   5.018   0.992   3.754  0.7332 -1.8877  1.6151
12453SOL     OW41194   0.503   6.486   2.981 -0.5650 -0.5797 -0.2198
12453SOL    HW141195   0.440   6.457   3.052  0.4384 -0.8405  0.5853
12453SOL    HW241196   0.570   6.414   2.965 -0.1141 -0.0710 -0.6277
12454SOL     OW41197   4.149   3.681   2.235  0.0011 -1.0450 -0.3434
12454SOL    HW141198   4.117   3.773   2.255 -1.3006 -1.0738 -2.0940
12454SOL    HW241199   4.248   3.682   2.220 -0.1340  0.2216 -1.2061
12455SOL     OW41200   0.811   4.738   4.508 -0.1045 -0.1279 -0.2273
12455SOL    HW141201   0.802   4.691   4.420  1.6415 -1.5885  0.3383
12455SOL    HW241202   0.854   4.827   4.494 -2.8121  1.0679 -1.2232
12456SOL     OW41203   0.020   7.217   5.795 -0.2271  0.3787  0.2020
12456SOL    HW141204   0.078   7.280   5.743 -1.7038  0.7770 -0.9790
12456SOL    HW241205   0.009   7.132   5.744 -0.4286  0.1868  0.5638
12457SOL     OW41206   2.686   1.401   1.820 -0.1415 -0.2595  0.2218
12457SOL    HW141207   2.780   1.369   1.817 -0.1252 -0.1131 -1.5624
12457SOL    HW241208   2.626   1.328   1.852  0.3123 -1.0580 -0.7179
12458SOL     OW41209   3.560   5.613   2.273 -0.1140 -0.0023 -0.2936
12458SOL    HW141210   3.560   5.517   2.246  1.4148 -0.1386  0.1460
12458SOL    HW241211   3.582   5.671   2.194  0.0931 -0.1022 -0.3105
12459SOL     OW41212   0.640   3.504   5.357 -0.1320 -0.1966  0.1112
12459SOL    HW141213   0.731   3.471   5.332  0.4604  2.9246 -2.1888
12459SOL    HW241214   0.649   3.573   5.429 -0.2417  2.6793 -2.5279
12460SOL     OW41215   0.644   3.193   6.673  0.0370  0.0512 -0.3293
12460SOL    HW141216   0.663   3.260   6.601  1.5846 -0.7316 -0.6689
12460SOL    HW241217   0.602   3.238   6.751 -0.4108  1.1392 -1.1913
12461SOL     OW41218   3.648   6.000   6.857  0.7767  0.3076  1.0203
12461SOL    HW141219   3.636   5.935   6.932  0.9578  0.6311  1.3346
12461SOL    HW241220   3.721   5.968   6.796 -0.0995 -0.4913  0.3909
12462SOL     OW41221   7.355   7.017   2.010  0.5485 -0.2500  0.0501
12462SOL    HW141222   7.455   7.013   2.015  0.4925 -0.3922  1.1264
12462SOL    HW241223   7.316   6.960   2.082 -0.3054  1.3014  0.8440
12464SOL     OW41224   1.761   1.720   1.770  0.1497  0.9684  0.2102
12464SOL    HW141225   1.787   1.673   1.855 -1.2377 -0.4867 -0.1337
12464SOL    HW241226   1.822   1.691   1.696  0.3862  1.0471  0.3734
12466SOL     OW41227   9.181   3.977   6.668  0.3681  0.2163 -0.7779
12466SOL    HW141228   9.280   3.966   6.678  0.2157 -0.0412  0.5588
12466SOL    HW241229   9.151   4.058   6.718 -0.3343 -0.6976  0.3017
12467SOL     OW41230   9.172   9.604   1.011 -0.4725  0.2806  0.4758
12467SOL    HW141231   9.132   9.692   0.985 -0.5401 -0.0954 -0.7243
12467SOL    HW241232   9.174   9.543   0.931  0.9913 -0.2759  0.9158
12469SOL     OW41233   5.206   0.643   4.957 -0.1824  0.2114  0.3798
12469SOL    HW141234   5.278   0.602   5.014  0.5079  2.8138  1.4289
12469SOL    HW241235   5.213   0.606   4.864  2.0791 -0.0937  0.6277
12470SOL     OW41236   4.100   1.668   0.499 -0.1229 -0.2490 -0.5573
12470SOL    HW141237   4.013   1.647   0.543  0.9866 -0.9315  1.3519
12470SOL    HW241238   4.170   1.605   0.531  1.3162  0.9054 -1.3426
12472SOL     OW41239   5.297   6.679   1.403  0.2005 -0.5056  0.1640
12472SOL    HW141240   5.383   6.701   1.358  0.9260 -0.0117  1.7639
12472SOL    HW241241   5.274   6.751   1.468 -0.6247 -1.4028  0.8766
12475SOL     OW41242   9.225   2.115   3.353 -0.1751  0.2225  0.3725
12475SOL    HW141243   9.295   2.074   3.411 -0.3113 -0.5545 -0.0148
12475SOL    HW241244   9.198   2.204   3.391 -0.5607 -0.4613  1.7183
12476SOL     OW41245   4.814   7.782   1.928  0.3987  0.0420 -0.1317
12476SOL    HW141246   4.854   7.816   1.842 -0.0179 -0.2904 -0.4589
12476SOL    HW241247   4.728   7.829   1.945  0.2921 -0.1678 -0.0929
12479SOL     OW41248   6.891   3.721   1.847 -0.4566  0.4970 -0.1582
12479SOL    HW141249   6.849   3.755   1.764 -1.3137 -1.0904 -0.4047
12479SOL    HW241250   6.979   3.767   1.862 -0.5169  1.1253 -1.6768
12480SOL     OW41251   8.507   7.361   4.914  0.2557 -0.3073  0.0312
12480SOL    HW141252   8.471   7.444   4.957  0.1628  1.4143 -3.2372
12480SOL    HW241253   8.432   7.309   4.873  0.4022 -1.6622  1.4444
12482SOL     OW41254   3.635   9.311   5.610  0.2386 -0.3534 -0.4462
12482SOL    HW141255   3.650   9.216   5.638  1.0371 -0.3157 -0.7289
12482SOL    HW241256   3.711   9.341   5.553 -1.3085 -0.3900 -2.5903
12483SOL     OW41257   8.437   4.984   7.651  0.0845 -0.2320  0.1365
12483SOL    HW141258   8.475   5.076   7.650  1.6085 -0.8363  0.0537
12483SOL    HW241259   8.499   4.922   7.603 -2.2862 -0.8114 -2.3121
12484SOL     OW41260   3.887   8.766   3.937 -0.1437 -0.2692 -0.6288
12484SOL    HW141261   3.790   8.758   3.962 -0.2629 -0.4203 -1.1505
12484SOL    HW241262   3.896   8.823   3.856  0.1301 -0.9902 -1.1131
12485SOL     OW41263   1.166   3.673   4.576 -0.3494  0.0868  0.3737
12485SOL    HW141264   1.106   3.679   4.656  0.5321  0.2202  1.0339
12485SOL    HW241265   1.260   3.653   4.606  0.1659  1.0563 -0.5690
12486SOL     OW41266   3.462   1.509   0.560 -0.2545  0.4945  0.0789
12486SOL    HW141267   3.501   1.426   0.521 -0.4185  0.1267  0.6786
12486SOL    HW241268   3.506   1.589   0.521  0.3552  0.1064 -0.0301
12489SOL     OW41269   9.664   1.038   2.492  0.4256  0.7018 -0.0331
12489SOL    HW141270   9.674   1.030   2.393  1.9750 -0.7846  0.2354
12489SOL    HW241271   9.616   1.123   2.514  1.7690  1.9779 -1.9540
12491SOL     OW41272   2.759   9.105   1.363  0.0282 -0.1641  0.3384
12491SOL    HW141273   2.740   9.017   1.320  0.5336 -0.1375  0.0578
12491SOL    HW241274   2.794   9.090   1.456 -0.0274 -0.2557  0.3447
12492SOL     OW41275   7.008   2.736   0.820  0.2748 -0.1240  0.3344
12492SOL    HW141276   7.046   2.666   0.759 -1.5668 -0.5125 -0.3900
12492SOL    HW241277   7.006   2.824   0.772  2.0963  0.3321  1.0631
12493SOL     OW41278   8.513   6.113   3.807 -0.2584 -0.0108  0.1962
12493SOL    HW141279   8.603   6.079   3.834  0.8134  2.1873 -0.5047
12493SOL    HW241280   8.471   6.159   3.886 -0.5783 -0.6422  0.3951
12495SOL     OW41281   3.062   3.651   7.430 -0.4401  0.0544  0.0157
12495SOL    HW141282   3.066   3.751   7.426 -0.8458  0.0013 -2.8201
12495SOL    HW241283   2.967   3.622   7.429 -0.2974 -0.3941 -0.9293
12496SOL     OW41284   0.127   4.519   0.214 -0.2975 -0.5395  0.0165
12496SOL    HW141285   0.102   4.468   0.296 -0.0043 -1.0992 -0.2432
12496SOL    HW241286   0.056   4.507   0.145 -0.6812  0.1566  0.2801
12499SOL     OW41287   1.176   9.672   1.713 -0.2523  0.4225  1.1346
12499SOL    HW141288   1.221   9.592   1.752  0.4630  0.0914 -0.3065
12499SOL    HW241289   1.226   9.754   1.739 -0.2015  0.2797  1.4946
12500SOL     OW41290   8.726   7.389   4.235 -0.6948 -0.3916  0.2130
12500SOL    HW141291   8.667   7.434   4.168 -0.2843 -1.5917 -0.9856
12500SOL    HW241292   8.737   7.448   4.315 -0.2837  1.5589 -1.2450
12501SOL     OW41293   4.904   4.043   1.091  0.5586  0.1238  0.4921
12501SOL    HW141294   4.938   4.051   0.997 -0.2389  0.3538  0.2183
12501SOL    HW241295   4.923   4.127   1.141 -0.3067  0.5687  0.0997
12503SOL     OW41296   7.008   2.189   5.755  0.0200 -0.3493 -0.3639
12503SOL    HW141297   7.107   2.189   5.742 -0.0541 -0.1214 -0.9783
12503SOL    HW241298   6.978   2.280   5.785 -0.0545 -0.2887 -0.6194
12504SOL     OW41299   0.816   9.805   0.624 -0.4895 -0.2048  0.2106
12504SOL    HW141300   0.797   9.715   0.585 -2.5397 -0.2433  1.1980
12504SOL    HW241301   0.904   9.803   0.671 -0.0244 -1.3766 -0.6642
12505SOL     OW41302   6.845   4.563   7.431 -0.4790  0.3773 -0.4336
12505SOL    HW141303   6.875   4.526   7.343  0.2572  1.4553 -0.6470
12505SOL    HW241304   6.856   4.494   7.502  1.3676  0.3384 -0.7296
12506SOL     OW41305   0.700   9.376   4.110  0.1160  0.1976 -0.0553
12506SOL    HW141306   0.712   9.279   4.133 -0.4109  0.2833  0.6132
12506SOL    HW241307   0.609   9.405   4.140  0.8288  1.2791  1.0702
12507SOL     OW41308   8.368   9.197   2.957  0.4818  0.3233 -0.4909
12507SOL    HW141309   8.289   9.195   2.897  0.8408  0.1371 -0.9627
12507SOL    HW241310   8.448   9.229   2.906  0.7866  0.1772 -0.1123
12509SOL     OW41311   7.552   5.843   2.402 -0.3114 -0.8013 -0.5847
12509SOL    HW141312   7.604   5.856   2.487  0.6706  0.9007 -1.4067
12509SOL    HW241313   7.497   5.760   2.409  0.8379 -1.4596  1.1734
12510SOL     OW41314   4.384   0.268   2.559  0.0352 -0.3807 -0.4273
12510SOL    HW141315   4.384   0.188   2.498  1.6189 -0.5754 -0.2073
12510SOL    HW241316   4.347   0.347   2.510 -0.5492 -0.9934 -0.9987
12511SOL     OW41317   9.917   8.741   5.976 -0.1600 -0.2102  0.6457
12511SOL    HW141318  10.007   8.705   5.952 -0.1406 -1.0040  1.8482
12511SOL    HW241319   9.916   8.767   6.072 -0.5046  2.0492  0.0437
12512SOL     OW41320   9.281   1.529   5.097  0.3999 -0.1827 -0.2572
12512SOL    HW141321   9.360   1.565   5.048  0.0688 -1.5837 -1.9013
12512SOL    HW241322   9.311   1.482   5.180  1.2709 -0.4151 -0.6983
12513SOL     OW41323   3.308   6.320   0.815  1.0267 -0.0617 -0.4036
12513SOL    HW141324   3.264   6.305   0.904  0.7525  0.0572 -0.5166
12513SOL    HW241325   3.398   6.359   0.829  1.3303 -0.8394 -0.1430
12515SOL     OW41326   9.276   5.447   2.208  1.0497 -0.0506  0.3743
12515SOL    HW141327   9.244   5.391   2.285  2.4519  0.4094  1.3065
12515SOL    HW241328   9.307   5.387   2.135  0.9379 -0.4913  0.6813
12516SOL     OW41329   1.531   0.566   2.118  0.2637  0.2045  0.2237
12516SOL    HW141330   1.602   0.560   2.188 -0.4787  0.2886  0.9925
12516SOL    HW241331   1.441   0.554   2.160 -0.0388 -3.3045 -1.2246
12517SOL     OW41332   4.138   8.141   7.253  0.1442 -0.2683  0.2324
12517SOL    HW141333   4.185   8.201   7.317  0.6890 -2.4668  1.9482
12517SOL    HW241334   4.075   8.081   7.303 -0.2640 -1.2545 -1.4176
12518SOL     OW41335   3.831   2.762   1.215 -0.0576 -0.5335 -0.3424
12518SOL    HW141336   3.786   2.797   1.133  0.0654 -1.5046 -0.8375
12518SOL    HW241337   3.790   2.804   1.296 -0.8864 -0.3392 -0.8547
12519SOL     OW41338   3.103   6.140   1.975  0.1333  0.2832 -0.6375
12519SOL    HW141339   3.044   6.071   2.018  0.9546 -0.0451 -0.0129
12519SOL    HW241340   3.152   6.098   1.899 -0.4078  0.5456 -1.1332
12520SOL     OW41341   3.850   0.570   6.619  0.0877 -0.7284  0.1693
12520SOL    HW141342   3.761   0.529   6.601 -0.7434  0.5429  1.2682
12520SOL    HW241343   3.878   0.549   6.713  0.5756 -0.4221  0.0948
12521SOL     OW41344   9.509   7.957   2.292  0.4624  0.5808  0.4951
12521SOL    HW141345   9.582   8.018   2.263  0.8035 -0.0752 -0.0465
12521SOL    HW241346   9.502   7.881   2.228  0.0346  0.0595  1.1538
12522SOL     OW41347   6.134   2.376   4.278  0.0705 -0.5501  0.0104
12522SOL    HW141348   6.156   2.468   4.311  2.1419 -0.8212 -0.5758
12522SOL    HW241349   6.154   2.370   4.180 -0.8973 -1.3848 -0.1493
12523SOL     OW41350   2.660   4.829   1.240  0.2234  0.2652  0.3536
12523SOL    HW141351   2.673   4.858   1.145  0.1341  0.7705  0.4912
12523SOL    HW241352   2.566   4.851   1.268  0.3814  0.5166  0.6933
12525SOL     OW41353   1.664   6.640   6.208  0.2234  0.9643 -0.0930
12525SOL    HW141354   1.757   6.620   6.176  0.3635  1.9152 -0.3139
12525SOL    HW241355   1.662   6.733   6.245 -0.4621  0.6627  0.6267
12526SOL     OW41356   9.705   9.569   7.774  1.1655 -0.4176 -0.4331
12526SOL    HW141357   9.704   9.669   7.777  2.3932 -0.4153 -0.1056
12526SOL    HW241358   9.760   9.538   7.696  1.2301 -0.8423 -0.2181
12528SOL     OW41359   9.841   0.806   3.268 -0.5915  0.3465  0.2287
12528SOL    HW141360   9.806   0.900   3.272  0.5435  0.9173 -2.2618
12528SOL    HW241361   9.785   0.753   3.205  0.0466 -0.0807  0.0237
12529SOL     OW41362   0.991   3.398   7.731 -0.1502 -0.1052 -0.1563
12529SOL    HW141363   0.984   3.300   7.750 -1.2851 -0.4495 -2.2134
12529SOL    HW241364   1.053   3.413   7.654  0.1464  0.8105  0.2540
12530SOL     OW41365   2.922   5.992   5.297 -0.0774  0.3010  0.2920
12530SOL    HW141366   3.015   6.026   5.310 -0.1166 -0.0404  1.4465
12530SOL    HW241367   2.919   5.932   5.217  0.5281  0.9448 -0.2180
12531SOL     OW41368   5.033   5.003   1.102 -0.3014 -0.0579 -1.0813
12531SOL    HW141369   5.033   5.063   1.182 -0.6708 -1.7926  0.2439
12531SOL    HW241370   5.001   5.054   1.022 -2.5011  0.9914  0.4164
12532SOL     OW41371   2.546   6.376   2.417 -0.0116  0.1727 -0.5716
12532SOL    HW141372   2.499   6.289   2.399  0.0099  0.1044 -0.2907
12532SOL    HW241373   2.517   6.444   2.349 -0.1056 -0.0231 -0.7289
12533SOL     OW41374   3.559   5.421   5.092  0.4563  0.0921 -0.5123
12533SOL    HW141375   3.583   5.402   5.187  1.2976  0.1032 -0.7214
12533SOL    HW241376   3.555   5.335   5.041 -3.5458 -0.3270  0.3217
12534SOL     OW41377   2.881   9.948   2.171  0.2425  0.3642 -0.1466
12534SOL    HW141378   2.797   9.932   2.222  0.3858 -0.5871 -0.2152
12534SOL    HW241379   2.922   9.861   2.144  1.9612  0.7715  1.0409
12535SOL     OW41380   7.463   0.080   6.001 -0.0900  0.5958 -0.1258
12535SOL    HW141381   7.530   0.124   6.060  0.8298  0.7918 -1.2881
12535SOL    HW241382   7.510   0.039   5.922 -0.9514 -2.2396  0.7947
12536SOL     OW41383   8.452   7.085   3.985 -0.0786  0.4772  0.4915
12536SOL    HW141384   8.388   7.151   3.945 -1.4047  0.0430  1.8751
12536SOL    HW241385   8.494   7.032   3.911 -0.3611  1.6257 -0.5168
12537SOL     OW41386   5.879   8.861   3.470  0.0164 -0.3567 -0.2236
12537SOL    HW141387   5.961   8.881   3.416  0.1187  0.8227  0.3476
12537SOL    HW241388   5.891   8.896   3.563 -0.2836 -2.0886  0.4882
12538SOL     OW41389   0.897   6.616   2.164  0.0621  0.1021  0.8157
12538SOL    HW141390   0.935   6.707   2.177  0.3163  0.2417 -0.7497
12538SOL    HW241391   0.970   6.548   2.169  0.2175  0.1869 -0.1244
12539SOL     OW41392   4.132   5.168   1.071  0.3747  0.3732 -0.4809
12539SOL    HW141393   4.107   5.118   0.988  0.6512  0.9006 -0.8864
12539SOL    HW241394   4.219   5.132   1.106 -0.1429 -0.3912  0.0388
12541SOL     OW41395   5.173   4.161   7.207  0.1298 -0.0803  0.1802
12541SOL    HW141396   5.084   4.129   7.176 -0.9575  1.3798  1.6853
12541SOL    HW241397   5.205   4.235   7.148  1.0506 -1.6099 -1.2537
12542SOL     OW41398   8.726   0.176   5.383  0.1128 -0.0636 -0.0382
12542SOL    HW141399   8.722   0.135   5.292  3.5266 -0.7381  0.0429
12542SOL    HW241400   8.719   0.103   5.452  0.4678  0.1188  0.1903
12543SOL     OW41401   5.518   9.981   2.655 -0.3349 -0.7421  0.7782
12543SOL    HW141402   5.493   9.941   2.567  0.6585 -1.1177  0.6656
12543SOL    HW241403   5.443  10.039   2.688 -0.8162 -0.8198 -0.1787
12544SOL     OW41404   7.484   8.511   1.717 -0.1084 -0.5673 -0.4352
12544SOL    HW141405   7.544   8.431   1.720 -2.0863 -2.0629  0.1222
12544SOL    HW241406   7.390   8.482   1.700 -0.7218  1.7299 -1.1380
12545SOL     OW41407   8.451   6.519   7.617 -0.6794  0.0261  0.0611
12545SOL    HW141408   8.371   6.491   7.670 -0.0647 -1.8487  0.0238
12545SOL    HW241409   8.533   6.514   7.675 -0.6375  2.4597  0.2629
12546SOL     OW41410   3.077   7.551   7.374 -0.0801  0.2848  0.2674
12546SOL    HW141411   3.113   7.522   7.285  0.8705  1.4785  0.2514
12546SOL    HW241412   2.978   7.546   7.372 -0.0404 -0.3593 -0.6380
12547SOL     OW41413   6.437   8.614   2.145 -0.1570 -0.4709 -0.2408
12547SOL    HW141414   6.481   8.607   2.235 -0.7572 -1.4949 -0.0142
12547SOL    HW241415   6.396   8.704   2.135 -1.1824 -0.7727  1.0432
12548SOL     OW41416   9.235   0.269   3.271 -0.9137 -0.5000  0.7013
12548SOL    HW141417   9.183   0.203   3.217  0.0041  0.8247 -1.9072
12548SOL    HW241418   9.294   0.221   3.335 -0.2165 -2.2515 -1.1939
12549SOL     OW41419   4.073   6.384   4.363 -0.0469  0.1611  0.4517
12549SOL    HW141420   3.997   6.323   4.342  1.3799 -1.6691  0.4276
12549SOL    HW241421   4.047   6.478   4.345 -2.1413 -0.4860  0.0141
12550SOL     OW41422   6.259   1.083   4.510  1.0004  0.4106 -0.4522
12550SOL    HW141423   6.272   1.182   4.515 -1.0596  0.8114 -2.1449
12550SOL    HW241424   6.259   1.054   4.414  1.3629 -1.2141  0.0153
12551SOL     OW41425   1.026   3.598   3.685  0.3360  0.3992  0.3339
12551SOL    HW141426   1.063   3.514   3.726  0.1130  0.2372  0.1999
12551SOL    HW241427   1.102   3.660   3.665  0.3735  0.8570  1.8296
12553SOL     OW41428   9.726   8.642   6.567 -0.3671  0.1830  0.4226
12553SOL    HW141429   9.824   8.642   6.550 -0.2337 -0.0967  1.1568
12553SOL    HW241430   9.689   8.551   6.548 -0.2704 -0.0443  1.3215
12554SOL     OW41431   8.341   4.432   7.690  0.1121 -0.7966  0.2836
12554SOL    HW141432   8.250   4.392   7.704 -1.0199  1.2845 -0.8764
12554SOL    HW241433   8.397   4.371   7.636 -0.3122 -2.4710  1.6914
12555SOL     OW41434   7.713   8.648   3.118 -0.1530  0.1951  0.4607
12555SOL    HW141435   7.683   8.628   3.211  1.7923 -1.1564  0.8211
12555SOL    HW241436   7.809   8.621   3.107 -0.0952  1.1608 -1.6770
12556SOL     OW41437   5.320   9.103   3.316 -0.0062  0.1103 -0.2126
12556SOL    HW141438   5.403   9.052   3.297 -0.6481 -0.0655 -2.6906
12556SOL    HW241439   5.241   9.054   3.279 -0.6486  2.7054 -2.4499
12557SOL     OW41440   8.524   0.397   1.488 -0.2481  0.7577  0.2523
12557SOL    HW141441   8.549   0.411   1.393 -1.0467  0.4189 -0.0128
12557SOL    HW241442   8.428   0.422   1.502  0.3548  2.5311  1.3660
12558SOL     OW41443   7.381   4.362   1.903  0.7939  0.5582  0.2816
12558SOL    HW141444   7.455   4.297   1.922 -0.3969 -0.5795  1.1174
12558SOL    HW241445   7.367   4.420   1.983  1.8021  1.8149 -0.4362
12559SOL     OW41446   0.640   2.049   2.097  0.1499  0.2486  0.0602
12559SOL    HW141447   0.731   2.091   2.102 -0.3459  1.4264 -0.6254
12559SOL    HW241448   0.613   2.038   2.002 -0.3484 -0.2972  0.2565
12562SOL     OW41449   0.263   7.118   4.360 -0.6773  0.1433  0.4757
12562SOL    HW141450   0.239   7.052   4.431 -2.4544  0.7052  0.4015
12562SOL    HW241451   0.225   7.208   4.384 -1.0285  0.4059 -1.0347
12563SOL     OW41452   9.856   3.894   1.044  0.5539 -0.6634  0.2528
12563SOL    HW141453   9.805   3.953   1.107  1.5899 -0.1941  0.6640
12563SOL    HW241454   9.919   3.837   1.096  1.4109 -0.2778 -0.3492
12564SOL     OW41455   7.136   2.331   2.640 -0.1138 -0.0473 -0.4542
12564SOL    HW141456   7.209   2.264   2.653 -0.9795 -0.8032  0.5577
12564SOL    HW241457   7.142   2.401   2.710 -0.3280 -0.0820 -0.4011
12565SOL     OW41458   8.459   2.994   1.136 -0.2781 -0.0728  0.0531
12565SOL    HW141459   8.410   3.038   1.062  0.3932  2.8461  1.2824
12565SOL    HW241460   8.549   2.964   1.104 -1.3547 -2.0739 -1.2097
12566SOL     OW41461   8.339   8.538   4.642 -0.0024  0.2879 -0.0805
12566SOL    HW141462   8.257   8.524   4.696 -0.2089  0.7417 -0.2715
12566SOL    HW241463   8.324   8.613   4.577  1.0007  1.2933  0.8106
12568SOL     OW41464   9.912   4.348   7.363 -0.0069  0.0470 -0.2316
12568SOL    HW141465   9.921   4.416   7.436  0.2231  1.4510 -1.5470
12568SOL    HW241466   9.884   4.261   7.403 -0.5613  0.9655  1.4509
12569SOL     OW41467   0.540   9.879   1.283 -0.1321  0.3114  0.4530
12569SOL    HW141468   0.546   9.920   1.193 -2.7529  1.4975  0.7773
12569SOL    HW241469   0.631   9.849   1.313  0.8818  0.6795 -2.1867
12570SOL     OW41470   8.839   6.004   4.598 -0.5241  0.1522 -0.1034
12570SOL    HW141471   8.853   5.909   4.628 -0.0847  0.3479  0.3229
12570SOL    HW241472   8.872   6.066   4.670 -1.5663  0.6249 -0.0381
12572SOL     OW41473   2.802   8.648   7.273 -0.0201 -1.1072 -0.2878
12572SOL    HW141474   2.740   8.572   7.257 -0.3792 -1.1689  1.2963
12572SOL    HW241475   2.837   8.643   7.366 -1.0761  1.3965  0.2749
12574SOL     OW41476   1.364   4.530   1.771 -0.5488  0.0134 -0.3124
12574SOL    HW141477   1.290   4.590   1.802  0.5145  0.6433  1.0713
12574SOL    HW241478   1.341   4.491   1.682 -1.4615  2.1294 -1.0218
12575SOL     OW41479   4.521   1.035   1.747  0.1890  0.6396 -0.5676
12575SOL    HW141480   4.543   1.038   1.649 -0.8065 -0.1590 -0.8268
12575SOL    HW241481   4.424   1.056   1.760  0.3174  0.7338  0.2491
12576SOL     OW41482   7.216   0.559   6.542  0.5757 -0.2916  0.0946
12576SOL    HW141483   7.208   0.460   6.534 -0.9797 -0.1364 -0.6534
12576SOL    HW241484   7.273   0.594   6.468  0.0668 -0.5189 -0.4134
12577SOL     OW41485   1.881   8.545   0.737  0.0546  0.2538 -0.9195
12577SOL    HW141486   1.911   8.451   0.751  0.1438  0.1875 -1.5602
12577SOL    HW241487   1.787   8.556   0.771  0.7772  0.4624  1.0648
12578SOL     OW41488   9.667   2.435   7.512  0.7080 -0.1520 -0.1878
12578SOL    HW141489   9.711   2.352   7.475 -0.3928 -0.4752 -0.8041
12578SOL    HW241490   9.590   2.409   7.569  0.4307  0.4480 -0.2870
12579SOL     OW41491   1.926   8.380   6.806 -0.6916 -0.1536  0.2351
12579SOL    HW141492   1.852   8.429   6.852 -1.9901 -0.2757 -1.6626
12579SOL    HW241493   2.001   8.444   6.786 -1.2293  0.4560  0.1657
12581SOL     OW41494   5.449   4.185   0.043 -0.6603  0.2181 -0.1519
12581SOL    HW141495   5.455   4.131   0.127  1.2914 -0.1438 -0.4930
12581SOL    HW241496   5.384   4.143  -0.020 -1.2535 -0.1570  0.7063
12582SOL     OW41497   0.388   2.170   3.813  0.0737  0.0925  0.0238
12582SOL    HW141498   0.350   2.227   3.886 -0.1020 -1.3647  1.0932
12582SOL    HW241499   0.469   2.122   3.847 -0.0833 -0.6908 -0.6921
12583SOL     OW41500   1.696   5.072   2.969  0.5688 -0.8892 -0.2143
12583SOL    HW141501   1.597   5.059   2.976  0.7256 -1.7363  0.7207
12583SOL    HW241502   1.718   5.169   2.980  0.0031 -0.9768  1.9219
12584SOL     OW41503   7.671   6.556   4.418  0.0079 -0.8289 -0.1516
12584SOL    HW141504   7.668   6.470   4.468  0.4776  0.1386  1.5653
12584SOL    HW241505   7.763   6.594   4.423 -0.3853  0.1423 -0.2599
12586SOL     OW41506   1.785   7.446   6.512  0.2967 -0.2306 -0.4931
12586SOL    HW141507   1.715   7.466   6.444 -0.3574 -0.4441  0.1193
12586SOL    HW241508   1.782   7.514   6.585 -1.7333 -2.3361  1.4384
12588SOL     OW41509   0.233   2.559   5.491  0.2512 -0.4006  0.3771
12588SOL    HW141510   0.279   2.472   5.508  0.7688 -0.0731  0.6677
12588SOL    HW241511   0.169   2.549   5.414  0.4971 -0.9674  0.2459
12589SOL     OW41512   6.895   7.081   4.978  0.3621  0.3734  0.1809
12589SOL    HW141513   6.995   7.092   4.979  0.5392 -1.1335  1.0216
12589SOL    HW241514   6.859   7.115   4.891  1.8625 -1.0647 -1.0407
12590SOL     OW41515   6.376   9.990   1.110 -0.0710 -0.2626 -0.0685
12590SOL    HW141516   6.289  10.002   1.157  0.3318  0.3194  0.5466
12590SOL    HW241517   6.408   9.896   1.122  0.1448 -0.0566  1.0330
12591SOL     OW41518   9.566   5.851   6.653 -0.1607  0.3662  0.3269
12591SOL    HW141519   9.577   5.758   6.687 -1.8340 -0.5687 -1.6113
12591SOL    HW241520   9.574   5.852   6.554 -0.9223  2.1785  0.2575
12592SOL     OW41521   1.468   4.478   4.683  0.9801 -0.2887 -0.1074
12592SOL    HW141522   1.548   4.467   4.743  0.2402 -0.1636  0.9215
12592SOL    HW241523   1.431   4.389   4.660  0.2278 -0.2773  1.0478
12593SOL     OW41524   9.284   1.654   3.452  0.7878 -0.2901 -0.2840
12593SOL    HW141525   9.247   1.584   3.513  2.4482 -1.7524 -0.9192
12593SOL    HW241526   9.285   1.620   3.358 -1.3827  1.8016 -1.1414
12594SOL     OW41527   2.651   2.826   5.083  0.3118  0.0626 -0.6738
12594SOL    HW141528   2.590   2.876   5.145 -1.9506 -1.8760 -1.2784
12594SOL    HW241529   2.745   2.854   5.100 -0.5159  1.4846  1.8284
12595SOL     OW41530   8.290   9.921   6.869 -0.2763  0.6192  0.4040
12595SOL    HW141531   8.298   9.822   6.857  0.8185  0.7816 -0.2801
12595SOL    HW241532   8.193   9.947   6.868 -0.5373 -0.3590 -0.1824
12597SOL     OW41533   8.376   2.263   4.474  0.2764 -0.3252  0.1020
12597SOL    HW141534   8.299   2.285   4.534 -0.0440  1.1797 -0.8252
12597SOL    HW241535   8.355   2.181   4.421  0.0300 -0.9098  1.0751
12599SOL     OW41536   5.904   9.724   5.013 -0.6430  0.4259 -0.0184
12599SOL    HW141537   5.907   9.689   5.107 -0.9145 -1.5729 -0.7494
12599SOL    HW241538   5.975   9.795   5.003 -0.3402  0.3809  1.5709
12600SOL     OW41539   3.580   9.671   6.524  0.1698 -0.3382 -0.0689
12600SOL    HW141540   3.483   9.653   6.510  0.1920 -0.9259  0.5204
12600SOL    HW241541   3.631   9.642   6.443 -0.0384 -0.8904 -0.0010
12603SOL     OW41542   9.693   6.460   7.263  0.3587  0.5964 -0.3426
12603SOL    HW141543   9.717   6.478   7.359 -1.9248  2.1190 -0.0300
12603SOL    HW241544   9.691   6.361   7.248  0.7665  0.3371  1.1780
12604SOL     OW41545   3.592   2.042   4.561  0.2399  0.0535  0.2812
12604SOL    HW141546   3.564   2.079   4.473  0.2639 -1.0358 -0.1815
12604SOL    HW241547   3.513   2.002   4.607  0.5972 -1.0601 -0.0683
12605SOL     OW41548   8.455   8.655   3.838 -0.1891 -0.4062  0.1530
12605SOL    HW141549   8.452   8.581   3.905 -0.1140 -1.4907 -1.0337
12605SOL    HW241550   8.423   8.622   3.750  2.4996  0.1735 -1.1039
12606SOL     OW41551   6.790   2.097   3.054  0.7813 -0.2097  0.3629
12606SOL    HW141552   6.866   2.161   3.046 -1.6262  2.3754 -2.8381
12606SOL    HW241553   6.722   2.133   3.118  0.6960 -0.9271  0.6843
12607SOL     OW41554   0.335   2.425   0.129  0.0057 -0.3101  0.4045
12607SOL    HW141555   0.346   2.365   0.050  0.5414 -1.7276  1.5415
12607SOL    HW241556   0.424   2.465   0.153  0.1763 -1.2102  1.3124
12610SOL     OW41557   4.331   7.402   5.089  0.7826 -0.1525  0.0884
12610SOL    HW141558   4.375   7.389   5.000  0.9064  1.3480 -0.0708
12610SOL    HW241559   4.254   7.339   5.097  1.3160 -0.9238 -0.7121
12611SOL     OW41560   8.767   9.911   2.220  0.0399  0.4853  0.6341
12611SOL    HW141561   8.750   9.946   2.128 -0.5424 -0.8891  0.1975
12611SOL    HW241562   8.857   9.940   2.251  0.8418 -0.2542 -0.9595
12614SOL     OW41563   7.113   4.233   2.973  0.0062  0.6321 -0.0244
12614SOL    HW141564   7.141   4.328   2.962 -1.3279  0.8559 -1.7120
12614SOL    HW241565   7.055   4.206   2.896  0.9262 -1.7666  0.0719
12616SOL     OW41566   7.680   8.401   7.487 -0.0934  0.2381 -0.1547
12616SOL    HW141567   7.740   8.416   7.566 -1.0554  1.1539  0.4093
12616SOL    HW241568   7.732   8.415   7.403  0.4668  1.1292  0.3331
12617SOL     OW41569   7.964   8.503   6.514 -0.0679 -0.5975  0.2785
12617SOL    HW141570   7.906   8.462   6.444 -1.4078  1.2450  0.2872
12617SOL    HW241571   8.052   8.530   6.474  1.0194 -3.8012  0.3592
12618SOL     OW41572   6.901   4.748   2.026 -0.5192 -0.4186  0.0988
12618SOL    HW141573   6.989   4.773   1.986 -0.7859 -1.5914 -1.2828
12618SOL    HW241574   6.914   4.726   2.123  0.7098 -0.5879 -0.0936
12620SOL     OW41575   3.526   8.739   1.612 -0.0490  0.0233 -0.0776
12620SOL    HW141576   3.541   8.709   1.706 -1.0017  2.7707  1.0022
12620SOL    HW241577   3.454   8.684   1.571  0.1124 -0.9517  0.9335
12621SOL     OW41578   3.091   8.348   5.609  0.1126 -0.2889  0.6055
12621SOL    HW141579   3.154   8.382   5.539 -1.0650 -0.8517 -0.7638
12621SOL    HW241580   3.027   8.420   5.634  0.1717 -0.2588  0.6668
12622SOL     OW41581   0.213   2.991   2.607  0.2886  0.7420 -0.3696
12622SOL    HW141582   0.291   2.928   2.614  0.5041  0.9810 -0.6025
12622SOL    HW241583   0.238   3.067   2.547 -0.2412  0.6365 -0.7277
12623SOL     OW41584   3.952   5.175   7.302  0.2382 -0.1636  0.0835
12623SOL    HW141585   3.902   5.261   7.307  2.6738  1.3510 -1.0588
12623SOL    HW241586   3.975   5.155   7.207  1.1241 -1.2378  0.5100
12624SOL     OW41587   8.366   2.854   0.346  0.0831  0.0837  0.6003
12624SOL    HW141588   8.289   2.883   0.288  1.0942  0.0764 -0.7586
12624SOL    HW241589   8.440   2.820   0.289  0.3109 -1.9044  1.9974
12627SOL     OW41590   2.296   6.519   5.511 -0.0779 -0.2892 -0.2448
12627SOL    HW141591   2.375   6.501   5.570  0.1698 -0.1036 -0.5222
12627SOL    HW241592   2.233   6.581   5.558 -1.0010 -1.9619  0.7830
12628SOL     OW41593   5.699   5.411   0.395  0.1150 -0.0508 -0.3530
12628SOL    HW141594   5.650   5.472   0.333  0.3474 -2.4627 -3.0475
12628SOL    HW241595   5.796   5.407   0.368  0.8292  0.9430  1.9064
12629SOL     OW41596   2.520   9.268   4.098  0.0768  0.4889 -0.1572
12629SOL    HW141597   2.524   9.364   4.070  2.8540 -0.1618 -2.2069
12629SOL    HW241598   2.480   9.214   4.023 -2.0241  0.0719  1.2110
12630SOL     OW41599   9.613   9.535   5.946  0.4030 -0.4756  0.0393
12630SOL    HW141600   9.603   9.502   5.852 -1.8817 -0.0840  0.1254
12630SOL    HW241601   9.579   9.629   5.953 -0.3683 -0.8402  1.4544
12631SOL     OW41602   7.050   8.775   2.336  0.0450 -0.4542  0.0652
12631SOL    HW141603   7.071   8.848   2.271  2.3162  1.4714  2.8421
12631SOL    HW241604   6.961   8.793   2.379  0.2969  0.3200  0.2646
12633SOL     OW41605   2.587   9.553   3.150  0.1611 -0.1519  0.3694
12633SOL    HW141606   2.615   9.579   3.243  2.6495  0.4037 -0.5103
12633SOL    HW241607   2.555   9.633   3.101 -0.9191 -0.4055  0.6351
12635SOL     OW41608   9.482   9.992   2.666 -0.0065  0.2396 -0.3814
12635SOL    HW141609   9.524  10.077   2.634  0.0907  0.2717 -0.1683
12635SOL    HW241610   9.551   9.935   2.710 -0.0722  0.0465 -0.5256
12636SOL     OW41611   3.526   4.917   5.709 -0.1471 -0.5378 -0.4506
12636SOL    HW141612   3.513   4.977   5.788 -0.4183 -2.4653  0.9993
12636SOL    HW241613   3.593   4.846   5.733  0.3581 -0.6730 -2.2264
12637SOL     OW41614   4.599   5.735   2.909 -0.8119 -0.0970 -0.6934
12637SOL    HW141615   4.625   5.828   2.884 -1.5278  0.2698 -0.0993
12637SOL    HW241616   4.598   5.726   3.008  1.1198 -1.2876 -0.7540
12638SOL     OW41617   1.608   0.998   7.925  0.2907  0.4093  0.0525
12638SOL    HW141618   1.701   1.035   7.928  0.1056  0.8654  0.1936
12638SOL    HW241619   1.575   0.981   8.018  0.1713  0.4064  0.0104
12639SOL     OW41620   0.752   9.571   5.794 -0.1823  0.3365 -0.6297
12639SOL    HW141621   0.755   9.582   5.695 -2.3428 -1.6759 -0.9543
12639SOL    HW241622   0.701   9.488   5.817  0.2689  0.7865  2.1690
12641SOL     OW41623   1.747   2.322   6.633  0.5248 -0.0462 -0.6577
12641SOL    HW141624   1.725   2.303   6.537 -1.1686  0.1660 -0.3255
12641SOL    HW241625   1.712   2.413   6.658  0.2802 -0.4087  0.3608
12642SOL     OW41626   2.895   2.621   0.733 -0.3147  0.0047  0.1321
12642SOL    HW141627   2.868   2.629   0.829 -0.6842 -1.6827  0.1767
12642SOL    HW241628   2.843   2.686   0.678 -1.7441 -0.5914  0.7582
12644SOL     OW41629   2.356   1.730   0.757 -0.2627  0.2940  0.1398
12644SOL    HW141630   2.384   1.640   0.790 -0.7917 -0.1323 -0.5472
12644SOL    HW241631   2.326   1.722   0.662  0.0307  1.2641 -0.0401
12645SOL     OW41632   1.384   2.554   2.866  0.2141 -0.0742 -0.1571
12645SOL    HW141633   1.344   2.466   2.891 -0.5543  0.0631 -0.8597
12645SOL    HW241634   1.484   2.547   2.864  0.1170 -1.2289 -1.2634
12646SOL     OW41635   5.891   0.858   3.825 -0.3264  0.1753  0.6545
12646SOL    HW141636   5.942   0.917   3.889  1.2585 -2.7904  2.2056
12646SOL    HW241637   5.946   0.842   3.744 -0.0642 -0.4991  0.9626
12647SOL     OW41638   1.118   2.446   7.054  0.1155  0.0895  0.1336
12647SOL    HW141639   1.056   2.470   7.129  0.7975  0.6300  0.5389
12647SOL    HW241640   1.090   2.493   6.971 -0.3614 -0.1279  0.1713
12649SOL     OW41641   6.560   0.433   2.088  0.0977  0.0059 -0.0161
12649SOL    HW141642   6.630   0.396   2.149 -1.2329  0.6774  1.9795
12649SOL    HW241643   6.527   0.520   2.124 -1.4494 -0.0747 -1.1637
12650SOL     OW41644   4.669   8.098   4.813 -0.1425  0.0550  0.1163
12650SOL    HW141645   4.714   8.139   4.733  0.6315  0.1447  0.5910
12650SOL    HW241646   4.577   8.136   4.823 -0.4549 -0.3575 -1.0473
12652SOL     OW41647   8.791   9.939   5.540  0.3597 -0.1160  0.0722
12652SOL    HW141648   8.771   9.842   5.525 -0.3508  0.3489 -2.0767
12652SOL    HW241649   8.810   9.954   5.637  0.9537 -2.4844  0.3526
12653SOL     OW41650   8.416   3.674   2.211 -0.2223  0.4523  0.7480
12653SOL    HW141651   8.499   3.678   2.154 -0.9415 -0.2622 -0.3868
12653SOL    HW241652   8.344   3.729   2.168 -0.9487 -0.5584  0.6611
12654SOL     OW41653   3.668   6.545   5.516 -0.0920 -0.3343  0.9522
12654SOL    HW141654   3.656   6.643   5.529 -0.1145 -0.1794 -0.1757
12654SOL    HW241655   3.681   6.501   5.605 -0.8190  0.5858  1.5295
12656SOL     OW41656   6.547   8.609   2.988 -0.1749  0.3339  0.1226
12656SOL    HW141657   6.466   8.585   3.041  0.0325  1.8304  1.1402
12656SOL    HW241658   6.554   8.549   2.908 -2.5690  0.5135 -0.2531
12657SOL     OW41659   8.113   9.712   3.276 -0.1733  0.1087 -0.2991
12657SOL    HW141660   8.207   9.745   3.285  0.0243 -0.0309 -1.7544
12657SOL    HW241661   8.054   9.788   3.249  0.7256 -1.0627 -6.3445
12659SOL     OW41662   6.876   7.980   5.732 -0.3853  0.3123 -0.1221
12659SOL    HW141663   6.902   7.944   5.822  4.3442 -0.4702 -1.6288
12659SOL    HW241664   6.836   7.907   5.677  3.5938 -1.2878 -1.0824
12662SOL     OW41665   0.177   1.375   2.935 -0.3997  0.3206  0.4037
12662SOL    HW141666   0.141   1.313   2.865 -1.1780  0.5583  0.5874
12662SOL    HW241667   0.246   1.328   2.989 -0.5739 -0.2029  0.1735
12663SOL     OW41668   8.395   3.342   4.275  0.6802  0.1160  0.0110
12663SOL    HW141669   8.407   3.380   4.367 -0.1438 -1.3079  0.7236
12663SOL    HW241670   8.482   3.346   4.226  1.3263  0.1785  1.1443
12664SOL     OW41671   1.733   9.289   2.377  0.1493 -0.2673  0.1816
12664SOL    HW141672   1.663   9.218   2.384  0.8255 -1.0480 -0.8563
12664SOL    HW241673   1.734   9.326   2.284  0.5496  0.3155  0.4174
12665SOL     OW41674   9.940   6.403   7.130 -0.0702 -0.6198  0.4584
12665SOL    HW141675   9.914   6.313   7.096 -1.1214 -0.1581  0.0045
12665SOL    HW241676   9.859   6.461   7.136  0.8826  0.9228 -1.1752
12666SOL     OW41677   8.114   8.750   6.282  0.0141  0.0791  0.6653
12666SOL    HW141678   8.085   8.814   6.353  0.5877  0.9338  0.1340
12666SOL    HW241679   8.185   8.792   6.225  1.6712 -1.6409  1.3819
12667SOL     OW41680   0.528   8.725   2.928 -0.0189  0.1682 -0.1528
12667SOL    HW141681   0.470   8.683   2.858 -0.9946  1.2144  0.0257
12667SOL    HW241682   0.498   8.818   2.945  2.0246  0.9174 -0.4307
12670SOL     OW41683   7.109   5.030   2.226  0.3429  0.4853 -0.3383
12670SOL    HW141684   7.131   4.933   2.219 -2.4878 -0.2044 -0.4549
12670SOL    HW241685   7.083   5.051   2.320  1.3442  1.2214 -0.2269
12671SOL     OW41686   4.138   0.856   3.154  0.6170  0.1412 -0.0702
12671SOL    HW141687   4.073   0.805   3.097  0.8581  0.2889 -0.4760
12671SOL    HW241688   4.094   0.880   3.241  0.7234 -1.3566  0.4164
12673SOL     OW41689   0.191   7.221   5.368  0.0862  0.0466 -0.4214
12673SOL    HW141690   0.269   7.246   5.426  0.4052 -0.4233 -0.6427
12673SOL    HW241691   0.203   7.262   5.277 -0.4611  0.8628 -0.1328
12674SOL     OW41692   1.228   1.904   7.632  0.4737  0.0757  0.3460
12674SOL    HW141693   1.295   1.831   7.616  0.8743  0.6096 -0.4548
12674SOL    HW241694   1.144   1.865   7.671  0.0390 -1.0534 -1.6881
12676SOL     OW41695   8.575   9.079   3.083 -0.5104  0.2129 -0.2038
12676SOL    HW141696   8.499   9.115   3.029  0.8373  1.6118 -1.2107
12676SOL    HW241697   8.653   9.060   3.023  0.5084  0.3638  1.0435
12677SOL     OW41698   5.892   1.982   4.671 -0.0251 -0.0820  0.4798
12677SOL    HW141699   5.836   1.960   4.751 -0.4344  0.3025  0.2946
12677SOL    HW241700   5.988   1.964   4.693 -0.1877 -0.4810  0.8846
12678SOL     OW41701   4.979   7.762   4.714  0.5395 -0.1599  0.0658
12678SOL    HW141702   4.997   7.676   4.666  0.3513 -0.4435  0.4930
12678SOL    HW241703   5.066   7.804   4.740  0.6333 -0.1813 -0.2117
12679SOL     OW41704   1.666   8.121   7.853 -0.6671  0.7316 -0.7083
12679SOL    HW141705   1.724   8.167   7.920  0.2760 -1.4230 -0.0091
12679SOL    HW241706   1.585   8.178   7.834  0.6607  2.8379 -0.2058
12680SOL     OW41707   7.485   6.002   1.186 -0.8739 -0.1106  0.2339
12680SOL    HW141708   7.443   6.024   1.274  1.1765  2.4157  0.6462
12680SOL    HW241709   7.515   6.086   1.141  0.3759 -1.5508 -1.7216
12681SOL     OW41710   5.791   3.107   0.067 -0.2080 -0.1893  0.0593
12681SOL    HW141711   5.852   3.117   0.146  0.6983 -2.6738 -0.2904
12681SOL    HW241712   5.819   3.028   0.013 -1.3549  0.9715 -2.2999
12682SOL     OW41713   7.935   9.735   5.509  0.0161 -0.4012  0.4286
12682SOL    HW141714   7.995   9.655   5.493  0.7051  0.3343 -0.8115
12682SOL    HW241715   7.946   9.767   5.603  0.6436 -1.0374  0.5785
12683SOL     OW41716   0.325   4.033   3.743 -0.4599  0.3187  0.2714
12683SOL    HW141717   0.313   4.124   3.783  0.1359  0.0178  1.1532
12683SOL    HW241718   0.237   3.986   3.740 -0.6287  0.6093  0.5918
12684SOL     OW41719   1.515   3.496   2.291  0.3462 -0.3933 -0.1244
12684SOL    HW141720   1.529   3.408   2.245 -0.0539 -1.2015  1.2809
12684SOL    HW241721   1.469   3.481   2.378  0.1865  1.2289  0.0774
12685SOL     OW41722   0.472   5.586   0.648 -0.2337  0.4038 -0.1347
12685SOL    HW141723   0.511   5.676   0.666 -0.6413  0.7623 -0.9882
12685SOL    HW241724   0.495   5.524   0.723 -1.6682  1.7556  1.4830
12686SOL     OW41725   4.244   1.161   5.637  0.0692  0.1691  0.7604
12686SOL    HW141726   4.276   1.193   5.726 -2.1056  4.0560  0.2526
12686SOL    HW241727   4.298   1.204   5.565  0.0343 -0.8090  0.1527
12687SOL     OW41728   7.457   8.823   3.047 -0.5947  0.0826  0.3264
12687SOL    HW141729   7.406   8.753   2.998  1.7039 -2.4550  1.4657
12687SOL    HW241730   7.553   8.819   3.020 -0.3842  2.8122  0.4567
12688SOL     OW41731   8.640   0.148   5.801  0.4541 -0.0166  0.1450
12688SOL    HW141732   8.714   0.080   5.798  0.0852 -0.5225  1.8541
12688SOL    HW241733   8.680   0.240   5.794  0.8173 -0.3962 -3.9682
12690SOL     OW41734   9.071   4.812   7.834 -0.1428 -0.1058 -0.3474
12690SOL    HW141735   9.054   4.714   7.840 -3.3886  0.3874 -0.4497
12690SOL    HW241736   9.095   4.837   7.740 -0.2908 -0.6708 -0.5338
12691SOL     OW41737   9.646   9.412   4.938  0.2578  0.1563  0.2393
12691SOL    HW141738   9.677   9.492   4.990  0.0717 -0.6679  1.6496
12691SOL    HW241739   9.566   9.436   4.884  1.5926  1.5311 -1.1554
12693SOL     OW41740   8.882   9.713   7.518 -0.5416 -0.0757 -0.2642
12693SOL    HW141741   8.944   9.754   7.451  0.8983 -0.0933  1.0275
12693SOL    HW241742   8.924   9.718   7.609 -2.4066 -0.1729  0.6183
12695SOL     OW41743   1.577   7.090   4.322 -0.0281 -0.3371 -0.7559
12695SOL    HW141744   1.661   7.044   4.294 -1.0591 -3.9120  1.7557
12695SOL    HW241745   1.500   7.055   4.269 -0.4337  0.4321 -0.6809
12696SOL     OW41746   0.360   9.853   5.580  0.0559 -0.2029 -0.1731
12696SOL    HW141747   0.367   9.782   5.510  1.6800 -0.4537  0.2216
12696SOL    HW241748   0.329   9.938   5.537  1.5155 -0.2158 -1.3204
12698SOL     OW41749   0.142   6.501   3.994 -0.3720  0.1676 -0.5498
12698SOL    HW141750   0.044   6.523   3.984 -0.4982 -0.7188 -1.3309
12698SOL    HW241751   0.185   6.568   4.054 -1.2227  1.2437 -1.1124
12699SOL     OW41752   9.562   2.212   7.864  0.1303  0.0509 -0.2048
12699SOL    HW141753   9.641   2.188   7.807 -0.4316 -1.4290 -0.3650
12699SOL    HW241754   9.504   2.132   7.877 -1.1462  1.0282  0.2530
12701SOL     OW41755   9.006   2.925   5.597  0.4696  0.5599 -0.1624
12701SOL    HW141756   9.053   2.844   5.562 -0.0627 -0.2164  0.8765
12701SOL    HW241757   8.937   2.955   5.531  1.8648  1.2375 -1.3435
12702SOL     OW41758   0.629   1.547   7.391  0.6792  0.4657  0.2740
12702SOL    HW141759   0.722   1.511   7.398  0.3342 -0.5188 -0.0791
12702SOL    HW241760   0.565   1.471   7.383 -0.0330  1.1702 -0.8989
12703SOL     OW41761   7.665   0.597   0.756 -0.3467  0.5955 -0.0046
12703SOL    HW141762   7.752   0.633   0.790  0.5117 -0.1667 -1.3513
12703SOL    HW241763   7.625   0.535   0.824  1.4079 -1.0209 -0.4021
12704SOL     OW41764   6.297   2.135   0.717 -0.2444  1.2653 -0.3522
12704SOL    HW141765   6.215   2.101   0.762 -0.3846 -0.8831 -2.1400
12704SOL    HW241766   6.306   2.233   0.733 -1.5981  1.0007  2.2287
12705SOL     OW41767   3.690   7.421   6.516 -0.4223  0.1828  0.0037
12705SOL    HW141768   3.618   7.460   6.458  0.1953  0.0131 -0.8949
12705SOL    HW241769   3.657   7.338   6.559 -0.9779  0.4512  0.1031
12708SOL     OW41770   3.607   0.979   2.402 -0.0637  0.1620 -0.3822
12708SOL    HW141771   3.546   0.924   2.346 -3.6083  1.7784  1.6776
12708SOL    HW241772   3.612   0.940   2.494  0.4743  1.1172  0.0024
12709SOL     OW41773   0.023   4.689   2.105  0.0674 -0.2803  0.0965
12709SOL    HW141774   0.010   4.735   2.017 -0.2502  1.4848  1.0460
12709SOL    HW241775   0.120   4.669   2.118  0.1191 -0.5321 -0.6351
12710SOL     OW41776   2.150   5.793   2.832  0.7418  0.2166  0.0734
12710SOL    HW141777   2.170   5.696   2.842 -0.6994  0.1495  3.1542
12710SOL    HW241778   2.150   5.819   2.736  0.7920 -2.9085 -0.7985
12711SOL     OW41779   2.235   1.974   5.419 -0.4011 -0.1606  0.0841
12711SOL    HW141780   2.281   1.972   5.508 -2.7084 -1.6698  1.2907
12711SOL    HW241781   2.244   2.065   5.379  2.0857  0.0775  1.0719
12713SOL     OW41782   4.246   6.120   7.544 -0.0285  0.0062  0.6010
12713SOL    HW141783   4.307   6.139   7.467  1.6246  2.5049  2.4494
12713SOL    HW241784   4.295   6.067   7.613 -0.7541 -0.1914  0.9687
12714SOL     OW41785   4.709   3.296   1.705 -0.5249 -0.3238  0.7768
12714SOL    HW141786   4.708   3.328   1.800  0.0757 -1.0892  1.0423
12714SOL    HW241787   4.656   3.212   1.697 -1.2228  0.1577  0.2790
12715SOL     OW41788   3.449   7.412   5.181  0.0910  0.4018  1.0005
12715SOL    HW141789   3.430   7.348   5.106 -0.0833  0.0176  1.3634
12715SOL    HW241790   3.525   7.472   5.156  1.2803 -0.9632  1.2422
12716SOL     OW41791   8.806   7.958   1.522  0.3359  0.2651  0.3778
12716SOL    HW141792   8.792   7.951   1.423  0.0804 -1.4110  0.5188
12716SOL    HW241793   8.903   7.943   1.543 -0.0594 -2.0657  0.6027
12718SOL     OW41794   1.063   7.559   6.095 -0.0417 -0.2688  0.3739
12718SOL    HW141795   1.029   7.562   6.001 -2.7106 -2.6176  1.1885
12718SOL    HW241796   1.098   7.468   6.115  1.5058  0.5206  1.3406
12719SOL     OW41797   2.317   6.251   4.027 -0.0884  0.2353 -0.1733
12719SOL    HW141798   2.268   6.244   4.113 -1.1144  1.4780 -0.6308
12719SOL    HW241799   2.344   6.347   4.012  2.4214 -0.4031  0.0352
12720SOL     OW41800   0.876   2.910   6.274  0.4138  0.1051  0.9283
12720SOL    HW141801   0.934   2.967   6.214  0.9150  0.2196  1.5160
12720SOL    HW241802   0.780   2.933   6.257  0.5281 -0.1141 -0.0855
12724SOL     OW41803   5.596   0.692   5.622  0.2104 -0.4202 -0.0024
12724SOL    HW141804   5.596   0.790   5.639  1.1213 -0.3000 -0.6451
12724SOL    HW241805   5.690   0.659   5.614 -0.0823 -1.4069  0.5621
12725SOL     OW41806   0.422   8.679   1.174  0.4495 -0.4307  0.1923
12725SOL    HW141807   0.479   8.599   1.154 -0.2807 -0.7368 -0.7281
12725SOL    HW241808   0.325   8.652   1.171  0.1117  0.9598 -2.4071
12726SOL     OW41809   2.617   6.541   1.231 -0.5178  0.3123 -0.2758
12726SOL    HW141810   2.631   6.453   1.276  0.1288 -0.5350 -2.0668
12726SOL    HW241811   2.694   6.602   1.250  0.8948 -0.8540 -2.0559
12727SOL     OW41812   1.071   1.514   7.664  0.8139 -0.1252  0.8626
12727SOL    HW141813   1.063   1.613   7.673 -1.0195 -0.1759 -0.1404
12727SOL    HW241814   1.105   1.475   7.750 -0.2248  1.1790  1.8737
12728SOL     OW41815   0.384   9.175   2.869 -0.2559  0.4220 -0.1007
12728SOL    HW141816   0.293   9.152   2.903 -1.2082  4.3968  0.2030
12728SOL    HW241817   0.444   9.195   2.946  0.6778 -1.2842 -0.3482
12729SOL     OW41818   0.512   4.183   3.295 -0.9303 -0.4913 -0.3289
12729SOL    HW141819   0.559   4.213   3.378 -0.0461 -1.6692 -0.3948
12729SOL    HW241820   0.468   4.094   3.312 -0.5310 -0.8605 -1.1939
12730SOL     OW41821   2.560   5.574   3.008 -0.0105  0.7019  0.4843
12730SOL    HW141822   2.654   5.566   2.975 -0.3521 -4.0608  0.3271
12730SOL    HW241823   2.560   5.585   3.107  0.7158 -1.5635  0.7586
12731SOL     OW41824   7.765   7.210   7.763 -0.1654 -0.5890 -0.0528
12731SOL    HW141825   7.782   7.181   7.669  2.2665 -1.0811  0.4832
12731SOL    HW241826   7.746   7.308   7.765 -0.0184 -0.5341 -1.0409
12732SOL     OW41827   6.253   5.168   1.624  0.0519 -0.3023 -0.4147
12732SOL    HW141828   6.345   5.131   1.634 -0.0475  0.2387  2.8776
12732SOL    HW241829   6.258   5.267   1.610 -0.0836  0.0449  1.8896
12733SOL     OW41830   6.669   0.783   5.627 -0.4129  0.3996  0.1729
12733SOL    HW141831   6.605   0.848   5.669  1.2216  1.4502  1.0624
12733SOL    HW241832   6.663   0.695   5.675 -1.7412  0.2326 -0.2604
12734SOL     OW41833   0.816   4.630   6.159 -0.3342 -0.0798  0.5524
12734SOL    HW141834   0.831   4.561   6.089  0.3020  0.2314  0.3767
12734SOL    HW241835   0.825   4.589   6.249  2.7681  0.3092  0.4794
12735SOL     OW41836   3.667   3.536   4.855 -0.1685  0.6942 -0.3413
12735SOL    HW141837   3.588   3.596   4.869 -0.1130  0.0920  2.9763
12735SOL    HW241838   3.679   3.478   4.935  2.7765 -0.2660 -1.4174
12736SOL     OW41839   0.608   4.123   4.849  0.3828 -0.0441 -0.0358
12736SOL    HW141840   0.652   4.038   4.821 -1.7060 -1.1773  0.0498
12736SOL    HW241841   0.611   4.189   4.774 -0.7622 -1.3056 -1.2092
12737SOL     OW41842   4.244   9.489   7.465  0.2202  0.0595 -0.0427
12737SOL    HW141843   4.293   9.512   7.381  0.9407  0.0236  0.3623
12737SOL    HW241844   4.234   9.389   7.470 -1.5014  0.1564 -1.0130
12738SOL     OW41845   3.739   2.982   6.199 -0.0760  0.4287  0.2981
12738SOL    HW141846   3.735   2.887   6.228 -1.9052  0.2606 -0.4703
12738SOL    HW241847   3.810   2.993   6.129  0.3623 -0.2770  0.6218
12739SOL     OW41848   1.450   7.891   6.441  0.8076 -0.3123  0.2038
12739SOL    HW141849   1.418   7.884   6.346  0.8359  0.7760  0.1014
12739SOL    HW241850   1.550   7.902   6.442  0.6742  1.0714  0.2686
12741SOL     OW41851   3.999   2.003   7.433 -0.2618 -0.8691 -0.2035
12741SOL    HW141852   3.904   1.976   7.418 -0.8223  1.6047 -1.2393
12741SOL    HW241853   4.015   2.014   7.532 -1.4499  0.1369 -0.1156
12744SOL     OW41854   4.250   9.092   2.283 -0.1012 -0.9459  0.6374
12744SOL    HW141855   4.283   9.064   2.193  0.4125 -0.7610  0.7682
12744SOL    HW241856   4.151   9.077   2.288 -0.0769 -1.2868  0.1676
12745SOL     OW41857   6.341   8.123   6.530 -0.0761 -0.3504 -1.0728
12745SOL    HW141858   6.250   8.145   6.495 -0.1621  2.6511  0.8313
12745SOL    HW241859   6.334   8.095   6.626  0.8227 -1.9506 -1.4635
12746SOL     OW41860   0.497   5.376   6.686 -0.2969 -0.1293 -0.2639
12746SOL    HW141861   0.566   5.314   6.648  0.9662  0.9597  0.2061
12746SOL    HW241862   0.506   5.379   6.786 -1.6131 -0.6486 -0.1208
12747SOL     OW41863   2.626   4.964   6.331  0.5321  0.1482 -0.2774
12747SOL    HW141864   2.553   4.983   6.264  0.6338 -0.5892 -0.6012
12747SOL    HW241865   2.715   4.982   6.289  0.6495 -1.4009 -0.7185
12748SOL     OW41866   9.219   6.021   3.666 -0.6293  0.1527 -0.4356
12748SOL    HW141867   9.319   6.027   3.664 -0.6663  0.6417 -1.3955
12748SOL    HW241868   9.187   5.987   3.578 -1.2138 -1.8148  0.5070
12749SOL     OW41869   0.858   0.820   0.736 -0.0582  0.8742  0.0747
12749SOL    HW141870   0.879   0.899   0.794 -0.5611 -1.2015  3.1725
12749SOL    HW241871   0.767   0.833   0.695  0.6281  2.7128 -0.9286
12750SOL     OW41872   6.463   7.103   5.805  0.3007  0.2964 -0.2181
12750SOL    HW141873   6.499   7.189   5.768  1.2197 -0.2319 -0.5768
12750SOL    HW241874   6.447   7.113   5.903  2.9600  0.0619  0.2782
12751SOL     OW41875   2.137   9.977   3.389  0.3114 -0.2888 -0.0510
12751SOL    HW141876   2.081  10.004   3.467  1.0775 -1.0983  0.7884
12751SOL    HW241877   2.223  10.028   3.390  0.9633 -1.3725  0.4950
12752SOL     OW41878   8.251   0.533   7.852  0.7385 -0.0649  0.0429
12752SOL    HW141879   8.286   0.440   7.854 -0.2280 -0.4118  2.7017
12752SOL    HW241880   8.297   0.585   7.780  2.2965 -2.1837 -0.5264
12753SOL     OW41881   2.538   2.919   7.573  0.3853 -0.1177 -0.1315
12753SOL    HW141882   2.601   2.989   7.538  1.6198 -0.6440  1.0027
12753SOL    HW241883   2.561   2.830   7.534  0.3026 -0.3031  0.2393
12754SOL     OW41884   4.759   7.618   0.123  0.3069 -0.2863 -0.2479
12754SOL    HW141885   4.663   7.588   0.124  0.1366  0.2590  0.3696
12754SOL    HW241886   4.810   7.563   0.057 -0.7453  0.4054 -1.6549
12755SOL     OW41887   0.199   4.818   3.791 -0.2402  0.0619 -0.4504
12755SOL    HW141888   0.206   4.735   3.737 -0.4043  0.0146 -0.3984
12755SOL    HW241889   0.243   4.803   3.880  2.1532  0.8932 -1.4535
12756SOL     OW41890   5.939   2.197   0.977 -0.1158  0.1312 -0.3867
12756SOL    HW141891   5.879   2.157   1.047  0.8921 -0.1862  0.3067
12756SOL    HW241892   6.001   2.127   0.942 -0.6945  0.2654 -1.6944
12757SOL     OW41893   6.356   0.340   1.450  0.4889  0.0198  0.7278
12757SOL    HW141894   6.383   0.436   1.440  0.6617 -0.0543  0.4919
12757SOL    HW241895   6.386   0.288   1.370  2.4146 -0.7045  1.8891
12758SOL     OW41896   9.988   2.023   6.025 -0.0031 -0.2770  0.4587
12758SOL    HW141897  10.051   1.987   6.094  0.3301  1.2869  0.9713
12758SOL    HW241898  10.027   2.009   5.934  1.1556  0.8323  0.7837
12760SOL     OW41899   8.382   2.294   2.622  0.5822 -0.0533 -0.4140
12760SOL    HW141900   8.400   2.263   2.529  1.5863  1.6078 -0.7894
12760SOL    HW241901   8.468   2.316   2.668  0.3334 -3.3849  1.8630
12762SOL     OW41902   3.962   2.840   0.854 -0.2680  0.2869 -0.3130
12762SOL    HW141903   4.000   2.910   0.793  1.8135  0.5731  1.2564
12762SOL    HW241904   3.863   2.855   0.864 -0.4487  0.8832 -2.7143
12763SOL     OW41905   2.654   8.505   2.493  0.2746 -0.2002 -0.4121
12763SOL    HW141906   2.681   8.590   2.537 -0.0835  0.1423 -0.8531
12763SOL    HW241907   2.558   8.510   2.465  0.1303 -0.9126 -0.0496
12765SOL     OW41908   6.932   4.469   0.630 -0.2231 -0.5300 -0.2018
12765SOL    HW141909   6.941   4.542   0.698  0.2892  0.0118 -0.8421
12765SOL    HW241910   6.853   4.487   0.571 -0.2826 -0.6572 -0.1610
12766SOL     OW41911   8.672   9.083   6.479  0.4470  0.4591 -0.0787
12766SOL    HW141912   8.746   9.150   6.474 -0.4975  1.5882  0.6398
12766SOL    HW241913   8.636   9.081   6.573 -1.9081  1.5595 -0.9423
12767SOL     OW41914   2.999   7.990   0.785  0.0429 -0.7798  0.2971
12767SOL    HW141915   3.096   7.986   0.809  0.6655  0.1465 -2.0075
12767SOL    HW241916   2.957   8.068   0.831  0.7049 -0.3642  0.2046
12768SOL     OW41917   6.770   8.842   7.646 -0.6716 -0.0555  0.4916
12768SOL    HW141918   6.760   8.903   7.567 -1.2632 -2.5028 -1.4078
12768SOL    HW241919   6.698   8.862   7.713 -0.3865  1.8074  0.2717
12769SOL     OW41920   0.797   8.573   4.105  0.2850  0.1900 -0.2762
12769SOL    HW141921   0.878   8.576   4.163 -0.6501  0.3834  1.0434
12769SOL    HW241922   0.715   8.565   4.162 -0.8717  3.2126 -1.3977
12770SOL     OW41923   8.913   3.508   6.898 -0.0405  0.1943  0.1762
12770SOL    HW141924   9.000   3.516   6.849 -0.6695  0.7519 -0.8588
12770SOL    HW241925   8.930   3.512   6.997  1.1559 -0.2057 -0.0084
12771SOL     OW41926   1.361   3.519   6.449  0.5007 -0.4484 -0.1040
12771SOL    HW141927   1.309   3.545   6.530  1.6347 -0.0087  0.4911
12771SOL    HW241928   1.388   3.423   6.456  2.8043  0.2666  1.2727
12773SOL     OW41929   4.976   7.902   6.681  0.2420 -0.4473 -0.2163
12773SOL    HW141930   4.973   7.981   6.742 -1.2889  0.6805 -1.7055
12773SOL    HW241931   5.045   7.837   6.713  0.1623  0.5917  2.1104
12774SOL     OW41932   2.463   2.291   6.197  0.6526  0.2579 -0.1535
12774SOL    HW141933   2.530   2.269   6.126 -1.0165 -1.0325 -1.3957
12774SOL    HW241934   2.389   2.224   6.194  0.7182 -0.0107  3.0782
12777SOL     OW41935   4.922   4.349   0.859 -0.6274  0.3144 -0.2810
12777SOL    HW141936   5.004   4.311   0.817 -0.6599 -0.2941  0.2135
12777SOL    HW241937   4.948   4.420   0.924 -0.5022  0.2238 -0.2328
12778SOL     OW41938   6.152   2.370   0.195 -0.0491  0.1420 -0.3040
12778SOL    HW141939   6.211   2.333   0.267 -1.5417 -0.9374  0.3980
12778SOL    HW241940   6.074   2.416   0.236 -1.2087 -0.9645 -1.2056
12779SOL     OW41941   5.810   4.730   1.647 -0.5608  0.8975  0.6815
12779SOL    HW141942   5.815   4.638   1.684  0.2313  1.0365  0.9280
12779SOL    HW241943   5.832   4.796   1.719  2.5451  1.1042 -0.3823
12780SOL     OW41944   2.112   3.514   7.906  0.4324 -0.0649  0.1408
12780SOL    HW141945   2.090   3.421   7.934 -1.0902  0.6681  1.5150
12780SOL    HW241946   2.027   3.565   7.892  1.2427  1.0093 -1.0166
12783SOL     OW41947   6.503   0.498   1.845 -0.0766  0.0032 -0.3659
12783SOL    HW141948   6.521   0.475   1.940  0.4161  0.0234 -0.4508
12783SOL    HW241949   6.544   0.587   1.824 -0.6087  0.2243 -0.4637
12784SOL     OW41950   8.001   0.134   4.423  0.2211 -0.1560 -0.2803
12784SOL    HW141951   7.943   0.124   4.503 -1.0190  0.0337 -1.1411
12784SOL    HW241952   8.038   0.045   4.397  1.4564 -0.0645  1.0960
12785SOL     OW41953   9.504   6.451   4.634 -0.6586  0.5639 -0.1355
12785SOL    HW141954   9.495   6.540   4.680 -0.4513  0.5835 -0.1301
12785SOL    HW241955   9.418   6.429   4.588 -0.4250  1.1784 -0.8806
12786SOL     OW41956   3.924   3.876   1.580  0.1644  0.5330  0.5564
12786SOL    HW141957   3.843   3.892   1.636  0.3810  0.8965  0.7639
12786SOL    HW241958   4.004   3.867   1.639  0.3984  0.9559  0.3023
12787SOL     OW41959   5.315   1.394   3.735 -0.7747 -0.2185  0.2280
12787SOL    HW141960   5.281   1.486   3.714 -1.2952 -0.9923 -2.5018
12787SOL    HW241961   5.288   1.369   3.828 -0.4411  2.4484  1.0964
12788SOL     OW41962   8.098   2.783   0.840  0.8587  0.4341  0.2149
12788SOL    HW141963   8.150   2.866   0.817  1.1454 -0.1100 -1.1311
12788SOL    HW241964   8.065   2.740   0.757  1.2396 -1.1601  0.8690
12789SOL     OW41965   4.631   3.586   2.532 -0.6318 -0.2694 -0.9823
12789SOL    HW141966   4.606   3.642   2.452  0.7627  0.5022 -0.8872
12789SOL    HW241967   4.720   3.615   2.566 -1.9675  0.5957  1.9238
12790SOL     OW41968   7.614   2.876   4.747  0.0683  0.4931  0.0784
12790SOL    HW141969   7.706   2.908   4.724 -0.3496  0.8208 -1.1746
12790SOL    HW241970   7.547   2.931   4.698 -0.7662 -0.3262  0.2928
12791SOL     OW41971   9.031   3.749   2.590 -0.1082  0.0889 -0.1731
12791SOL    HW141972   9.065   3.714   2.678  1.1248 -0.0362 -0.6791
12791SOL    HW241973   8.932   3.742   2.587 -0.1875  0.4357  1.3570
12793SOL     OW41974   1.215   9.736   2.783  0.1256  0.5679  0.1052
12793SOL    HW141975   1.256   9.678   2.713 -0.1526 -0.6086  0.9042
12793SOL    HW241976   1.117   9.717   2.789  0.0320  1.1170  0.3873
12794SOL     OW41977   5.277   1.629   5.903  0.3971 -0.5629 -0.5335
12794SOL    HW141978   5.331   1.600   5.982  0.3475  2.1995  0.5608
12794SOL    HW241979   5.187   1.587   5.907  0.8059 -1.3785  0.2201
12795SOL     OW41980   3.728   6.919   7.431  0.2630 -0.8590 -0.7260
12795SOL    HW141981   3.802   6.890   7.493 -0.0112 -0.7468 -0.3467
12795SOL    HW241982   3.642   6.877   7.460 -0.3166  1.0206  0.3729
12797SOL     OW41983   4.372   5.597   2.828 -0.5429  0.1260  0.4793
12797SOL    HW141984   4.331   5.594   2.919  0.6037  0.8168  1.0296
12797SOL    HW241985   4.467   5.626   2.836  0.2109 -1.9983 -0.7276
12798SOL     OW41986   9.469   5.629   2.988  0.5026  0.9379  0.0883
12798SOL    HW141987   9.435   5.540   3.017  2.7127  0.3068  0.8026
12798SOL    HW241988   9.527   5.617   2.907 -1.7818  2.1265 -1.7800
12799SOL     OW41989   3.726   4.326   0.461  0.3793 -0.2194  0.4306
12799SOL    HW141990   3.696   4.356   0.551  0.7768  0.5392  0.3161
12799SOL    HW241991   3.825   4.310   0.462  0.2612 -0.9962  0.3421
12800SOL     OW41992   4.607   7.351   4.749 -0.0557  0.5778 -0.6745
12800SOL    HW141993   4.629   7.397   4.835 -1.3299  0.3534 -0.2230
12800SOL    HW241994   4.508   7.348   4.737  0.0860 -0.2104 -1.7099
12801SOL     OW41995   8.409   7.925   2.076  0.0960  0.4636 -0.2535
12801SOL    HW141996   8.454   7.998   2.126 -1.8010  2.3121 -1.1379
12801SOL    HW241997   8.322   7.903   2.120 -0.1905  0.0302 -1.0190
12802SOL     OW41998   9.289   4.901   4.418  0.1151 -0.2807 -0.3904
12802SOL    HW141999   9.351   4.826   4.396 -0.0217 -0.3782 -0.4500
12802SOL    HW242000   9.291   4.919   4.516  1.0677  0.4540 -0.5361
12804SOL     OW42001   1.212   4.332   7.375  0.0355  0.7110 -0.2983
12804SOL    HW142002   1.145   4.309   7.447  1.0655  0.2078  0.5080
12804SOL    HW242003   1.163   4.363   7.294 -1.2165 -0.1890  0.0860
12806SOL     OW42004   8.518   3.730   4.519  0.2852 -0.0516 -0.4033
12806SOL    HW142005   8.436   3.785   4.540  0.1943 -0.0947 -0.6397
12806SOL    HW242006   8.534   3.733   4.420  1.5912  1.4031 -0.1681
12807SOL     OW42007   8.777   7.784   0.156 -0.3684 -0.1085  0.1436
12807SOL    HW142008   8.818   7.706   0.203 -1.9290 -2.0272 -1.5926
12807SOL    HW242009   8.794   7.777   0.058  0.0573  2.1239  0.0172
12809SOL     OW42010   8.422   6.405   2.917 -0.3674  0.2364 -0.1759
12809SOL    HW142011   8.481   6.385   2.995  0.2922 -0.2138 -0.7869
12809SOL    HW242012   8.353   6.473   2.944 -0.5745 -0.4230  0.9837
12810SOL     OW42013   3.692   6.040   4.944 -0.7489  0.0501  0.6519
12810SOL    HW142014   3.666   6.101   4.870 -1.2405 -0.3826  0.4657
12810SOL    HW242015   3.768   5.982   4.915 -0.3417  0.5116  0.7987
12811SOL     OW42016   4.535   2.276   6.429  0.0481 -0.0846  0.2714
12811SOL    HW142017   4.574   2.185   6.443  0.6037 -0.0631 -1.0553
12811SOL    HW242018   4.444   2.268   6.390 -1.5978 -0.1500  3.9715
12812SOL     OW42019   4.998   8.299   4.916  0.1347 -0.3264  0.2180
12812SOL    HW142020   4.955   8.228   4.860  0.0347  0.7987 -1.1810
12812SOL    HW242021   5.013   8.381   4.860 -3.6592  2.3234  2.8326
12813SOL     OW42022   5.008   1.593   5.567 -0.1196  0.4212  0.2921
12813SOL    HW142023   4.977   1.508   5.609  0.2644  0.8474  1.4396
12813SOL    HW242024   5.021   1.579   5.469  1.2664 -1.2118  0.6951
12814SOL     OW42025   9.981   3.397   4.254  0.0044 -0.0129  0.0615
12814SOL    HW142026   9.942   3.319   4.205  0.1452  0.3828 -0.6743
12814SOL    HW242027  10.018   3.463   4.189 -0.9004  1.0945  0.6629
12815SOL     OW42028   8.118   6.217   1.894  0.0820  0.0754 -1.1072
12815SOL    HW142029   8.160   6.128   1.878  0.7331  0.3142 -0.7299
12815SOL    HW242030   8.133   6.275   1.814  1.1111  0.4063 -0.6808
12816SOL     OW42031   1.661   3.548   1.712 -0.0911  0.2642  0.3182
12816SOL    HW142032   1.614   3.496   1.641 -1.9177 -0.0341  1.6997
12816SOL    HW242033   1.751   3.507   1.729 -1.1253 -1.9241  0.7227
12818SOL     OW42034   3.552   8.521   4.579 -0.0680  0.8173  0.5113
12818SOL    HW142035   3.561   8.569   4.491 -2.7401 -0.5769 -0.5618
12818SOL    HW242036   3.619   8.447   4.583 -1.2530 -0.3843 -1.2318
12819SOL     OW42037   8.150   3.121   5.889 -0.7726  0.5563 -0.1582
12819SOL    HW142038   8.142   3.175   5.806 -1.2736  1.1990  0.3065
12819SOL    HW242039   8.225   3.157   5.945  0.4519 -0.7040 -0.9397
12820SOL     OW42040   2.586   7.157   6.836 -0.6652 -0.3636 -0.0423
12820SOL    HW142041   2.501   7.135   6.788 -0.3074 -2.2859  0.1598
12820SOL    HW242042   2.566   7.173   6.933 -0.5438 -2.9244  0.4322
12822SOL     OW42043   7.053   9.388   6.966  0.1622 -0.1116  0.7334
12822SOL    HW142044   7.100   9.347   7.044 -0.1537 -0.0650  0.9481
12822SOL    HW242045   6.982   9.450   6.998  0.3571  0.2803  0.4052
12823SOL     OW42046   8.371   1.291   0.437 -0.1371 -0.7279  0.2208
12823SOL    HW142047   8.443   1.260   0.374  0.9239  0.4992  0.7803
12823SOL    HW242048   8.414   1.330   0.519 -1.4693 -0.5658  0.8496
12824SOL     OW42049   1.533   0.501   0.838 -0.3340 -0.1839  1.5536
12824SOL    HW142050   1.524   0.470   0.743 -0.8162  1.7631  0.9479
12824SOL    HW242051   1.576   0.591   0.840 -1.3400  0.2784  3.1180
12825SOL     OW42052   2.662   1.727   1.406  0.2625 -0.5062 -0.2616
12825SOL    HW142053   2.682   1.641   1.454  0.4749  0.5683  1.6240
12825SOL    HW242054   2.734   1.794   1.427 -0.0778  0.2485 -1.4584
12826SOL     OW42055   9.716   5.166   4.304  0.1678  0.8981  0.1245
12826SOL    HW142056   9.738   5.069   4.296  0.0538  0.6300  2.5104
12826SOL    HW242057   9.618   5.180   4.294  0.3732  0.9844 -1.8487
12827SOL     OW42058   5.596   0.999   6.653 -0.6595  0.1385  0.2865
12827SOL    HW142059   5.674   1.024   6.595  0.3607 -2.3178  0.5372
12827SOL    HW242060   5.621   1.013   6.749 -0.7715  0.0103  0.3338
12828SOL     OW42061   1.042   8.868   4.816 -0.0929  0.2361  0.5193
12828SOL    HW142062   1.014   8.910   4.902 -0.9765 -0.5630  0.6228
12828SOL    HW242063   0.995   8.913   4.740  1.5012  1.6658  0.3503
12831SOL     OW42064   4.295   3.376   5.519 -0.1080 -0.4824  0.1735
12831SOL    HW142065   4.371   3.360   5.455 -0.3619  0.6041 -0.4180
12831SOL    HW242066   4.215   3.408   5.468  0.1464  1.9057  1.1808
12832SOL     OW42067   3.121   6.755   3.932 -0.1385  0.6103  0.3314
12832SOL    HW142068   3.205   6.737   3.983 -0.8433 -2.1680  0.5852
12832SOL    HW242069   3.049   6.785   3.996  0.0735  0.9748  0.4017
12834SOL     OW42070   0.757   5.201   0.017 -0.4094  0.0416  0.5191
12834SOL    HW142071   0.775   5.156  -0.071 -0.9222  0.6250  0.1104
12834SOL    HW242072   0.761   5.300   0.005 -0.5803  0.1265  1.1399
12835SOL     OW42073   2.076   3.086   3.790  0.2102  0.0938 -0.4297
12835SOL    HW142074   2.130   3.091   3.706 -2.7629  0.0339 -2.4269
12835SOL    HW242075   2.073   3.177   3.832  1.0284  0.3231 -0.8496
12836SOL     OW42076   8.992   1.189   2.122 -0.4089 -0.3700  0.0849
12836SOL    HW142077   9.073   1.165   2.070 -0.8411 -0.8061 -0.3947
12836SOL    HW242078   8.985   1.131   2.203  0.4833  0.5814  0.8608
12837SOL     OW42079   5.558   1.178   4.639 -0.3949  0.1922  0.1242
12837SOL    HW142080   5.604   1.192   4.727 -0.6586  3.5374 -0.1903
12837SOL    HW242081   5.627   1.168   4.567 -0.1702 -3.0826  0.7021
12839SOL     OW42082   2.044   0.257   5.183  0.0213 -0.4310 -0.8719
12839SOL    HW142083   2.065   0.191   5.111 -0.5970 -0.1629 -1.2998
12839SOL    HW242084   1.950   0.244   5.215  0.2525 -0.4672 -0.2006
12840SOL     OW42085   0.509   9.442   6.884 -0.4463 -0.0389 -0.4087
12840SOL    HW142086   0.542   9.397   6.801 -0.5044 -1.1318  0.1563
12840SOL    HW242087   0.557   9.529   6.895  0.4499 -0.4486 -0.9336
12841SOL     OW42088   4.255   0.317   4.102  0.0731 -0.0337  0.2114
12841SOL    HW142089   4.263   0.225   4.062 -0.9442  0.1354 -0.3866
12841SOL    HW242090   4.168   0.324   4.150  1.6614 -0.5496  3.2971
12843SOL     OW42091   1.272   8.519   6.082  0.3892 -0.1904 -0.1862
12843SOL    HW142092   1.213   8.453   6.129  1.1319 -1.1088 -0.5123
12843SOL    HW242093   1.329   8.470   6.016  1.0575  0.7730 -0.3263
12844SOL     OW42094   7.096   1.172   7.051  0.2022 -0.5125 -0.0958
12844SOL    HW142095   7.143   1.237   7.111 -0.8184  0.0663  0.0783
12844SOL    HW242096   7.123   1.189   6.956  0.6535 -0.4478  0.0418
12845SOL     OW42097   0.628   7.576   6.675 -0.2735  0.3754  0.6557
12845SOL    HW142098   0.534   7.604   6.654 -0.0854 -0.4756 -1.4575
12845SOL    HW242099   0.672   7.647   6.730 -1.6640  1.5060  0.3411
12846SOL     OW42100   6.672   0.495   4.849  0.4925  0.1952 -0.1598
12846SOL    HW142101   6.693   0.412   4.900  0.1449 -0.4843 -1.1052
12846SOL    HW242102   6.750   0.557   4.852  1.4091 -0.9132 -0.9290
12847SOL     OW42103   3.965   2.011   3.650  0.1122 -0.2840 -0.0680
12847SOL    HW142104   3.927   1.955   3.576  1.2506 -1.2392  0.0464
12847SOL    HW242105   4.003   1.950   3.720  0.5710  0.6415  0.4876
12849SOL     OW42106   1.823   4.524   0.093 -0.6151  0.0341 -0.3154
12849SOL    HW142107   1.734   4.479   0.101 -1.3055  1.2082 -1.2305
12849SOL    HW242108   1.878   4.503   0.174 -2.4143  0.8234  1.1541
12850SOL     OW42109   3.151   4.859   0.139  0.6348  0.3774  0.1132
12850SOL    HW142110   3.155   4.819   0.048 -0.2746 -1.0816  0.6885
12850SOL    HW242111   3.213   4.937   0.144  0.1332  0.9400 -1.9670
12851SOL     OW42112   8.318   1.275   0.868  0.0989 -0.5402 -0.2755
12851SOL    HW142113   8.367   1.213   0.930 -0.1918  0.5694  1.1006
12851SOL    HW242114   8.368   1.282   0.782  1.4542 -0.7578  0.4679
12852SOL     OW42115   1.606   5.304   1.068  0.0749 -0.1217  0.3093
12852SOL    HW142116   1.587   5.231   1.003  1.0217 -1.9643  2.0527
12852SOL    HW242117   1.521   5.334   1.110 -0.1114 -1.6823  1.0858
12853SOL     OW42118   0.650   8.777   4.335 -0.0314 -0.6164  0.8814
12853SOL    HW142119   0.587   8.701   4.352 -0.5571 -1.4106 -3.8818
12853SOL    HW242120   0.603   8.847   4.281  1.6248  1.3050  1.8812
12854SOL     OW42121   2.235   9.090   5.292 -0.3455 -0.0560 -0.2253
12854SOL    HW142122   2.281   9.054   5.211  1.0459 -0.5460  0.7691
12854SOL    HW242123   2.223   9.017   5.359 -2.7406  0.0189 -0.5219
12855SOL     OW42124   3.545   7.865   5.971  0.1427 -0.3546  0.8374
12855SOL    HW142125   3.536   7.909   5.881 -0.8924 -0.8414  0.7049
12855SOL    HW242126   3.640   7.872   6.001 -0.0440  2.2848  0.9633
12856SOL     OW42127   8.644   1.200   4.641  0.1363  0.5659  0.4033
12856SOL    HW142128   8.663   1.295   4.665 -0.7909  0.7789  0.3247
12856SOL    HW242129   8.545   1.187   4.632  0.1990 -0.6222  1.3086
12857SOL     OW42130   4.283   1.181   0.943  0.1388 -0.1722  0.0644
12857SOL    HW142131   4.263   1.176   0.845  1.5945 -1.7344 -0.1724
12857SOL    HW242132   4.198   1.189   0.995 -0.5558  3.5464 -1.4542
12858SOL     OW42133   1.760   6.883   7.068 -0.5878 -0.6005  1.0942
12858SOL    HW142134   1.688   6.919   7.009  0.1264 -2.1674 -0.8045
12858SOL    HW242135   1.812   6.958   7.109 -1.2444  0.5219 -0.1134
12859SOL     OW42136   9.173   6.333   7.017 -0.4545  0.2790 -0.1313
12859SOL    HW142137   9.122   6.371   7.094  0.4237 -0.1075  0.6437
12859SOL    HW242138   9.233   6.260   7.049 -0.4939 -0.2772 -1.2671
12860SOL     OW42139   1.000   8.283   7.873 -0.3302  0.2781 -0.5311
12860SOL    HW142140   0.913   8.299   7.919 -0.3944  1.2348 -0.9612
12860SOL    HW242141   0.985   8.277   7.774  0.2469  1.7620 -0.7187
12863SOL     OW42142   7.298   7.009   5.637 -0.5302 -0.3115 -0.5340
12863SOL    HW142143   7.239   6.997   5.558  0.0082  1.8829 -1.3086
12863SOL    HW242144   7.243   7.038   5.716 -0.9089 -1.3991 -0.3912
12864SOL     OW42145   8.559   0.516   5.692 -0.7704  0.4501 -0.7048
12864SOL    HW142146   8.479   0.527   5.751 -1.0536  0.7167 -1.1384
12864SOL    HW242147   8.550   0.431   5.639  0.7079 -1.1832  1.5378
12865SOL     OW42148   8.539   7.791   5.163 -0.4350 -0.7234 -0.2624
12865SOL    HW142149   8.549   7.791   5.263  0.2257 -2.6452 -0.3023
12865SOL    HW242150   8.626   7.767   5.121 -0.6981  0.1309 -1.3240
12866SOL     OW42151   4.423   2.075   6.869  0.4949 -0.2457 -0.0187
12866SOL    HW142152   4.517   2.044   6.884  0.3508 -0.6396  0.0469
12866SOL    HW242153   4.423   2.175   6.863  0.8341 -0.2066  0.5631
12867SOL     OW42154   8.408   9.223   6.886  0.4023 -0.4205  0.1015
12867SOL    HW142155   8.488   9.166   6.900  1.4652  1.3993  1.6602
12867SOL    HW242156   8.415   9.305   6.943 -2.5955 -0.2715  0.3403
12868SOL     OW42157   8.834   4.254   7.803  0.0029 -0.3985 -0.4838
12868SOL    HW142158   8.751   4.201   7.788 -0.4106  0.6046 -1.7775
12868SOL    HW242159   8.871   4.285   7.715  0.2978  1.3750  0.2442
12870SOL     OW42160   6.564   4.277   0.897 -0.0531 -0.4466 -0.7325
12870SOL    HW142161   6.638   4.306   0.959  0.6833 -2.1907 -0.7777
12870SOL    HW242162   6.506   4.356   0.876 -0.2332  0.2179  2.0690
12871SOL     OW42163   9.778   6.421   3.622 -0.3181 -0.3397  0.1453
12871SOL    HW142164   9.866   6.383   3.592 -1.2862 -1.2073 -1.7075
12871SOL    HW242165   9.772   6.517   3.597 -1.3969 -1.2139 -3.3121
12872SOL     OW42166   4.450   2.871   1.373 -0.7275  0.4159 -0.0510
12872SOL    HW142167   4.477   2.967   1.369  0.3157  0.1625  0.8295
12872SOL    HW242168   4.429   2.838   1.280  2.3266  0.5324 -0.8144
12874SOL     OW42169   0.111   7.632   7.578 -0.0353 -0.3013 -0.2467
12874SOL    HW142170   0.050   7.634   7.498  0.0955 -0.9632 -0.3685
12874SOL    HW242171   0.172   7.552   7.571 -0.1954 -0.5001  0.6455
12877SOL     OW42172   1.803   0.549   5.657  0.1791 -0.0280  0.1268
12877SOL    HW142173   1.715   0.509   5.684  0.0458  0.6286  0.6845
12877SOL    HW242174   1.804   0.566   5.559 -0.4872  0.3977  0.1953
12878SOL     OW42175   9.043   5.084   4.807 -0.4676  0.2113  0.4004
12878SOL    HW142176   9.108   5.160   4.810  0.3748 -0.5052  0.6573
12878SOL    HW242177   9.001   5.072   4.896  0.3779 -0.4494  0.7185
12879SOL     OW42178   3.439   3.963   0.348  0.2927 -0.1760 -0.0191
12879SOL    HW142179   3.475   3.923   0.264 -2.4462 -0.0550 -1.2832
12879SOL    HW242180   3.450   3.897   0.423  0.3744 -1.3136 -1.0122
12881SOL     OW42181   8.224   5.064   5.638 -0.3582 -0.0096  0.0378
12881SOL    HW142182   8.186   4.975   5.664  0.6403 -0.2807  0.5664
12881SOL    HW242183   8.202   5.132   5.709 -0.8316  0.0939 -0.2054
12882SOL     OW42184   8.566   8.256   3.884 -0.0397  0.5725 -0.0665
12882SOL    HW142185   8.623   8.203   3.947 -0.5154  0.3350  0.1732
12882SOL    HW242186   8.554   8.205   3.799 -1.0428 -0.0269  0.4110
12884SOL     OW42187   9.038   8.092   0.141  0.3251 -0.2435 -1.0227
12884SOL    HW142188   8.965   8.051   0.196 -0.2968  0.4518 -1.3110
12884SOL    HW242189   9.002   8.117   0.051  0.8963  0.1861 -1.1381
12885SOL     OW42190   9.242   8.643   7.269  0.0300 -0.2878 -0.0814
12885SOL    HW142191   9.304   8.699   7.215 -0.2548  0.0309 -0.0785
12885SOL    HW242192   9.219   8.559   7.219  1.1622 -0.8258  0.2912
12886SOL     OW42193   0.618   2.528   4.527 -0.3107  0.0399 -1.1552
12886SOL    HW142194   0.678   2.603   4.555  0.9151 -1.2893 -0.1446
12886SOL    HW242195   0.553   2.509   4.600 -1.0071  0.4884 -1.6490
12887SOL     OW42196   2.970   2.607   4.578 -0.0430  0.2829 -0.0528
12887SOL    HW142197   3.013   2.656   4.653  0.0327 -0.5347  0.4383
12887SOL    HW242198   2.891   2.557   4.612  1.3742 -2.0010 -0.0633
12888SOL     OW42199   4.781   5.937   0.432  0.5226 -0.3174  0.6297
12888SOL    HW142200   4.834   5.906   0.511 -0.8897 -0.8307  1.3930
12888SOL    HW242201   4.793   5.871   0.357  2.8182  0.7876 -0.0271
12889SOL     OW42202   0.792   3.918   4.224  0.1195  0.0487 -0.3300
12889SOL    HW142203   0.705   3.956   4.257  2.2217  3.4643  1.6832
12889SOL    HW242204   0.846   3.887   4.302  0.6477 -2.2651 -1.5822
12890SOL     OW42205   3.267   8.966   0.033 -0.1240 -0.1684 -0.3096
12890SOL    HW142206   3.169   8.952   0.022 -0.1587 -0.7782  0.7118
12890SOL    HW242207   3.289   8.975   0.130  0.8028  0.1995 -0.5449
12893SOL     OW42208   4.951   1.812   4.952  0.4039 -0.2237  0.1130
12893SOL    HW142209   4.902   1.882   4.901  0.5744  0.2965  0.6596
12893SOL    HW242210   4.934   1.723   4.911 -1.4621 -0.1316  0.6467
12894SOL     OW42211   4.725   1.822   6.735 -0.2112  0.0691 -0.0772
12894SOL    HW142212   4.707   1.855   6.827 -0.8244  1.1624 -0.5848
12894SOL    HW242213   4.819   1.844   6.709  0.1024 -0.6387  0.4529
12895SOL     OW42214   3.904   9.765   0.195 -0.3661 -1.1732 -0.7099
12895SOL    HW142215   3.987   9.739   0.146 -0.4280 -0.8720 -0.9742
12895SOL    HW242216   3.837   9.802   0.130 -0.4430 -0.7663 -0.3993
12896SOL     OW42217   9.702   4.650   1.299 -0.1616 -0.0670  0.6597
12896SOL    HW142218   9.637   4.675   1.227 -0.9371 -0.8965  1.0694
12896SOL    HW242219   9.787   4.619   1.256  0.3097  1.8852  0.1318
12897SOL     OW42220   1.017   6.659   6.803  0.3298 -0.1644 -0.7750
12897SOL    HW142221   1.076   6.578   6.804  2.2194  1.1781  0.0359
12897SOL    HW242222   1.013   6.697   6.711 -0.5923 -1.1848 -1.1651
12898SOL     OW42223   5.686   1.460   0.585 -0.8503  0.3416  0.0460
12898SOL    HW142224   5.651   1.374   0.623 -0.4820  0.4698  0.6801
12898SOL    HW242225   5.720   1.517   0.659 -1.6072  1.2684 -0.3198
12899SOL     OW42226   2.601   1.673   7.047  0.0363 -0.4452  0.0415
12899SOL    HW142227   2.597   1.748   6.981 -1.6488  1.6747  2.4543
12899SOL    HW242228   2.673   1.691   7.114 -0.9825 -0.4996  1.1644
12900SOL     OW42229   2.065   9.353   1.431  0.4446  0.0032  0.0335
12900SOL    HW142230   2.102   9.297   1.357  0.1852 -2.1132  1.4682
12900SOL    HW242231   1.965   9.342   1.434  0.5054 -0.2787  0.9990
12901SOL     OW42232   9.676   7.318   3.908  0.4563  0.0189 -0.1712
12901SOL    HW142233   9.749   7.303   3.841  2.0004  0.3032  1.4126
12901SOL    HW242234   9.716   7.333   3.998 -1.5848  0.0071  0.7631
12902SOL     OW42235   1.715   9.464   0.165  0.0453 -0.1644  0.2720
12902SOL    HW142236   1.665   9.541   0.125 -2.1111 -2.1825 -1.0703
12902SOL    HW242237   1.781   9.428   0.099 -0.6669 -0.9558 -0.0295
12903SOL     OW42238   2.244   7.343   5.271 -0.0127 -0.4459 -0.0695
12903SOL    HW142239   2.323   7.288   5.298 -0.0925 -1.4584 -1.7620
12903SOL    HW242240   2.262   7.439   5.290  0.9531 -0.8389  1.0774
12905SOL     OW42241   1.578   2.692   4.824  0.3460  0.4101 -0.1963
12905SOL    HW142242   1.488   2.657   4.800  0.2716  1.1851 -1.0440
12905SOL    HW242243   1.648   2.624   4.803  0.0134  0.0076  0.0008
12906SOL     OW42244   9.876   9.208   1.949  0.2762 -0.4281  0.7306
12906SOL    HW142245   9.873   9.234   2.046  1.2701  0.0485  0.6354
12906SOL    HW242246   9.957   9.247   1.906 -0.4404 -0.1964 -0.4318
12907SOL     OW42247   3.487   7.883   3.870 -0.3369 -0.5066 -0.4993
12907SOL    HW142248   3.552   7.869   3.796  1.6787 -0.0636  1.1182
12907SOL    HW242249   3.513   7.827   3.948 -2.6567 -1.2686 -0.2465
12909SOL     OW42250   4.891   7.648   4.098 -0.1084 -0.2142 -0.0552
12909SOL    HW142251   4.841   7.608   4.021 -1.6624  1.0083  0.3117
12909SOL    HW242252   4.945   7.726   4.066  0.6655 -0.8119 -0.2277
12910SOL     OW42253   9.873   3.267   1.392  0.4682  0.4798 -0.3534
12910SOL    HW142254   9.845   3.187   1.445  0.1374  0.1333 -1.0388
12910SOL    HW242255   9.835   3.350   1.433  1.9015  0.4308  1.1323
12913SOL     OW42256   4.229   8.761   1.365  0.4834  0.2172  0.1061
12913SOL    HW142257   4.142   8.726   1.401  1.0810 -0.3915  0.9703
12913SOL    HW242258   4.250   8.717   1.279 -0.1707  0.5196 -0.2126
12914SOL     OW42259   6.205   0.436   3.991 -0.4990 -0.0505 -0.5914
12914SOL    HW142260   6.162   0.348   4.010 -0.6709  0.4420  1.3966
12914SOL    HW242261   6.134   0.507   3.986 -0.0413  0.6098  1.7473
12916SOL     OW42262   1.898   0.497   0.205 -0.7770 -0.1939  0.1733
12916SOL    HW142263   1.989   0.531   0.229 -0.7759 -0.4291  0.5101
12916SOL    HW242264   1.905   0.431   0.130 -0.7825  0.5640 -0.4965
12917SOL     OW42265   7.334   6.804   1.572 -0.6533 -0.5927  0.2531
12917SOL    HW142266   7.356   6.825   1.477  0.7859 -1.1967  0.4476
12917SOL    HW242267   7.298   6.710   1.578 -0.2563 -0.7383  0.3711
12918SOL     OW42268   6.433   2.797   2.574  0.0664 -0.4561 -0.4448
12918SOL    HW142269   6.488   2.735   2.518 -1.5598 -0.2825 -2.2977
12918SOL    HW242270   6.336   2.775   2.563 -0.5511  2.3645 -1.1630
12919SOL     OW42271   2.653   4.617   1.982 -0.1037  0.5093  0.4954
12919SOL    HW142272   2.620   4.597   1.889  0.4239  0.6525  0.2764
12919SOL    HW242273   2.698   4.706   1.982 -0.4460  0.6846  0.9785
12921SOL     OW42274   4.198   3.132   5.312 -0.3322 -0.0595 -0.4048
12921SOL    HW142275   4.198   3.035   5.337 -0.0054 -0.0344 -0.3015
12921SOL    HW242276   4.288   3.172   5.332  0.2896 -0.2915 -2.6516
12922SOL     OW42277   5.969   1.461   0.133 -0.1632  0.2514 -0.3789
12922SOL    HW142278   5.874   1.452   0.103 -0.7709  3.1216  0.5983
12922SOL    HW242279   5.972   1.485   0.230  1.6146 -0.9798 -0.0937
12924SOL     OW42280   7.282   9.950   1.180 -0.3413  0.1691 -0.4658
12924SOL    HW142281   7.261  10.048   1.179  2.6414  0.8800  0.7929
12924SOL    HW242282   7.363   9.933   1.124 -0.2578 -1.4422  0.1238
12925SOL     OW42283   2.614   9.669   1.953  0.0521  0.0959 -0.0444
12925SOL    HW142284   2.657   9.620   2.029  0.4153  0.2550 -0.1452
12925SOL    HW242285   2.648   9.631   1.866  0.0181  0.2492 -0.1243
12926SOL     OW42286   8.208   4.713   2.288 -0.8907 -0.0467  0.0042
12926SOL    HW142287   8.256   4.798   2.307  0.1794 -0.4500 -0.8482
12926SOL    HW242288   8.151   4.724   2.207 -0.2958 -0.3038 -0.4568
12927SOL     OW42289   0.320   0.936   4.756  0.6855  0.0334  0.5212
12927SOL    HW142290   0.270   0.960   4.840  1.1483 -0.9942  1.0936
12927SOL    HW242291   0.296   1.001   4.684 -1.5282 -0.4694  0.7659
12928SOL     OW42292   8.218   7.766   1.678 -0.7810 -0.1854 -0.3875
12928SOL    HW142293   8.244   7.843   1.736 -0.3137  0.3633 -1.3125
12928SOL    HW242294   8.213   7.796   1.583  1.8323 -1.8393 -1.1043
12930SOL     OW42295   8.911   8.189   5.214 -0.2338 -0.3531  0.0313
12930SOL    HW142296   8.976   8.264   5.211  0.3280 -0.8018  0.9876
12930SOL    HW242297   8.906   8.152   5.306  0.0262 -1.9564 -0.5783
12931SOL     OW42298   3.568   7.025   5.145  0.2507 -0.2872  0.0601
12931SOL    HW142299   3.577   6.981   5.234 -1.4449 -0.6138  0.0975
12931SOL    HW242300   3.658   7.040   5.105  0.8627 -3.7818  0.0334
12932SOL     OW42301   8.652   8.515   0.817 -0.4041 -0.4375  0.1770
12932SOL    HW142302   8.749   8.501   0.835 -0.2104 -0.6022 -0.9540
12932SOL    HW242303   8.637   8.605   0.778 -0.8533  0.0109  1.3455
12933SOL     OW42304   0.511   6.941   0.584 -0.1965 -0.1093  0.0412
12933SOL    HW142305   0.575   7.018   0.586 -0.6940  0.3078  0.0919
12933SOL    HW242306   0.423   6.970   0.620 -0.6132 -0.5050 -0.6443
12935SOL     OW42307   7.556   4.490   3.314 -0.3630  0.1856 -0.4290
12935SOL    HW142308   7.585   4.476   3.219 -0.2766 -0.9470 -0.2396
12935SOL    HW242309   7.574   4.407   3.366  0.0246  0.9621  0.6908
12936SOL     OW42310   3.860   4.480   3.975 -0.2157  0.1802 -0.3755
12936SOL    HW142311   3.799   4.552   3.942 -1.4476 -0.3286  0.7397
12936SOL    HW242312   3.871   4.411   3.904 -2.7625 -0.8529  0.1599
12937SOL     OW42313   3.903   0.802   0.474 -0.0175  0.6085 -0.3888
12937SOL    HW142314   3.962   0.873   0.437  0.3264  1.0016  0.8778
12937SOL    HW242315   3.941   0.769   0.561 -0.9112 -0.1250 -0.2658
12939SOL     OW42316   2.600   1.084   7.044  0.3140  0.1745  0.0574
12939SOL    HW142317   2.616   1.035   7.129 -2.3396 -0.5817  0.1393
12939SOL    HW242318   2.648   1.172   7.047  2.2931 -0.9040  1.2849
12940SOL     OW42319   8.616   6.468   4.965 -0.0008  0.3255  0.0119
12940SOL    HW142320   8.665   6.457   5.052 -2.8988 -0.9822  1.5258
12940SOL    HW242321   8.554   6.546   4.971  1.0026  1.2797 -1.5211
12941SOL     OW42322   6.345   4.180   1.868 -0.0858 -0.0048  0.1646
12941SOL    HW142323   6.442   4.200   1.860  0.0721 -0.8815 -0.1666
12941SOL    HW242324   6.302   4.183   1.778 -0.2718 -0.0676  0.2489
12942SOL     OW42325   9.176   2.443   5.155 -0.0809 -0.5305  0.3770
12942SOL    HW142326   9.203   2.479   5.244  0.8589  2.0915 -0.9207
12942SOL    HW242327   9.078   2.454   5.142 -0.1663 -0.6198  0.9593
12943SOL     OW42328   2.054   5.404   7.101  0.0308 -0.3213  0.3411
12943SOL    HW142329   1.957   5.422   7.092  0.0090 -1.0536 -0.9506
12943SOL    HW242330   2.106   5.481   7.064 -0.0561 -0.0577  0.7675
12944SOL     OW42331   7.657   4.472   3.065 -0.8057  0.1100  0.1034
12944SOL    HW142332   7.667   4.379   3.030 -3.7120 -0.8715  1.7378
12944SOL    HW242333   7.628   4.533   2.991  0.4336 -0.3895 -0.8135
12946SOL     OW42334   3.166   7.109   0.012 -0.8559  0.5228 -0.2164
12946SOL    HW142335   3.193   7.193   0.058 -0.0231 -0.3609  0.9568
12946SOL    HW242336   3.068   7.109  -0.003 -0.9005  1.5721  0.0695
12947SOL     OW42337   7.046   9.312   5.116  0.6142 -0.7265  0.1671
12947SOL    HW142338   7.054   9.269   5.026 -1.7534 -2.1046  0.5968
12947SOL    HW242339   7.060   9.411   5.106 -2.3933 -0.4686 -2.1760
12948SOL     OW42340   7.494   5.392   0.292  0.0301  0.6928  0.2922
12948SOL    HW142341   7.403   5.412   0.259  0.5103 -0.3256 -1.7469
12948SOL    HW242342   7.543   5.477   0.311 -0.7586  1.2667 -0.2261
12949SOL     OW42343   1.336   9.309   3.314  0.8497 -0.3174  0.1730
12949SOL    HW142344   1.348   9.397   3.268 -2.4408  0.0952  0.0095
12949SOL    HW242345   1.397   9.304   3.393  1.4444  1.8867 -0.1198
12950SOL     OW42346   3.957   8.304   2.385 -0.5819  0.1159 -0.4176
12950SOL    HW142347   3.922   8.375   2.447  1.5196  0.4358  0.4256
12950SOL    HW242348   3.983   8.223   2.438 -0.6604 -0.3682 -1.1116
12951SOL     OW42349   8.638   5.614   0.526 -0.0751  0.1387 -0.4396
12951SOL    HW142350   8.660   5.665   0.609 -0.8104  0.7160 -0.5918
12951SOL    HW242351   8.711   5.627   0.459  0.1288  0.3334 -0.1812
12952SOL     OW42352   5.036   2.784   7.433  0.0362  0.4226  1.1910
12952SOL    HW142353   4.971   2.708   7.428 -0.0403  0.5757 -0.3290
12952SOL    HW242354   5.055   2.818   7.341  1.2926  1.2177  1.7325
12953SOL     OW42355   9.811   0.433   3.333  0.3966  0.2588 -0.3483
12953SOL    HW142356   9.722   0.399   3.302  0.4447  1.9109 -2.3403
12953SOL    HW242357   9.875   0.433   3.257  1.8337  0.0954  0.8344
12954SOL     OW42358   6.379   0.329   6.532  0.1983  0.3533 -0.1058
12954SOL    HW142359   6.473   0.322   6.498  0.1182 -1.4078  0.0026
12954SOL    HW242360   6.319   0.360   6.457  0.3660 -1.5203 -1.0433
12955SOL     OW42361   8.942   1.848   0.090 -0.1262  0.5336 -0.6216
12955SOL    HW142362   8.930   1.754   0.058  1.2603  0.4325 -0.8782
12955SOL    HW242363   8.863   1.903   0.064  0.1164 -0.0105 -2.5861
12956SOL     OW42364   2.446   5.478   0.456  0.1265 -0.1750  0.2331
12956SOL    HW142365   2.423   5.554   0.518  0.1165  0.4454 -0.5268
12956SOL    HW242366   2.542   5.452   0.472  1.1463  2.1536 -1.7089
12957SOL     OW42367   2.161   6.907   2.898 -0.3608  0.1821 -0.4308
12957SOL    HW142368   2.226   6.916   2.822  1.9809  0.9730  1.5972
12957SOL    HW242369   2.126   6.998   2.922 -0.1871  0.0820  0.1994
12960SOL     OW42370   1.740   2.252   4.354 -0.1618 -0.0845 -0.0872
12960SOL    HW142371   1.734   2.218   4.260  0.8246 -1.5552  0.3622
12960SOL    HW242372   1.671   2.205   4.411  0.9798 -1.1280  0.4643
12961SOL     OW42373   7.316   3.957   3.047 -0.1551  0.5203  0.3075
12961SOL    HW142374   7.243   4.008   3.002 -1.1415 -1.0230  0.1594
12961SOL    HW242375   7.304   3.964   3.146 -1.3176 -0.8760  0.2783
12962SOL     OW42376   2.935   9.150   2.901 -0.2954 -0.0071 -0.0033
12962SOL    HW142377   2.839   9.165   2.925 -0.5867  0.9399 -1.6881
12962SOL    HW242378   2.981   9.238   2.890  0.4571 -0.4517 -0.4443
12965SOL     OW42379   0.759   6.355   0.915 -0.3517  0.0347  0.4246
12965SOL    HW142380   0.800   6.423   0.975 -0.6528  0.0830  0.5731
12965SOL    HW242381   0.699   6.295   0.968 -1.6808  0.9159 -0.0498
12966SOL     OW42382   9.747   9.641   3.587  0.0299 -0.2377 -0.2164
12966SOL    HW142383   9.764   9.702   3.509  1.4042 -2.0857 -1.3820
12966SOL    HW242384   9.666   9.672   3.636 -2.3252 -0.4628 -3.8213
12968SOL     OW42385   8.193   3.536   7.462  0.2858  0.6851  0.2175
12968SOL    HW142386   8.162   3.468   7.529 -0.0363 -0.0357 -0.6536
12968SOL    HW242387   8.267   3.498   7.407 -1.3241  0.2633 -1.6927
12971SOL     OW42388   1.352   2.370   7.169 -0.1775  0.3171  0.1872
12971SOL    HW142389   1.277   2.423   7.129 -0.2147  0.2041  0.1062
12971SOL    HW242390   1.322   2.275   7.182 -0.1465  0.3405  0.4309
12972SOL     OW42391   5.178   9.706   5.549 -0.4089  0.5597 -0.2927
12972SOL    HW142392   5.160   9.674   5.456 -0.3087 -0.3508 -0.0034
12972SOL    HW242393   5.124   9.652   5.614  0.4275  0.3931  0.2743
12973SOL     OW42394   0.349   0.302   5.811  0.0995  0.0026  0.0270
12973SOL    HW142395   0.336   0.323   5.907  0.8179 -1.4216  0.4514
12973SOL    HW242396   0.326   0.206   5.794 -0.7023  0.4130 -1.3649
12975SOL     OW42397   7.334   6.263   4.297  0.4571 -0.1932 -0.3212
12975SOL    HW142398   7.303   6.170   4.314  2.2691 -0.3821  2.2611
12975SOL    HW242399   7.265   6.328   4.329 -0.1157 -0.6376 -0.6609
12976SOL     OW42400   3.405   1.332   6.125 -0.1716 -0.2833 -0.1273
12976SOL    HW142401   3.324   1.346   6.181  0.2668 -0.5058  0.5718
12976SOL    HW242402   3.381   1.339   6.029 -0.6826  1.4367  0.1048
12977SOL     OW42403   6.247   0.954   5.646  0.0048  0.8353 -0.1573
12977SOL    HW142404   6.194   1.009   5.582 -0.2851  1.5850  0.7112
12977SOL    HW242405   6.201   0.953   5.735 -0.1848 -1.1204 -0.2552
12978SOL     OW42406   1.070   2.528   3.924  0.5472 -0.0901 -0.0373
12978SOL    HW142407   1.142   2.556   3.987 -0.8384  1.2805  0.9727
12978SOL    HW242408   1.017   2.608   3.897 -1.8850 -1.3723  0.8410
12979SOL     OW42409   5.763   0.618   2.132 -0.3033 -0.0588 -0.0854
12979SOL    HW142410   5.769   0.603   2.033 -0.1379 -0.3602 -0.0289
12979SOL    HW242411   5.691   0.561   2.171  0.7122 -1.1620  0.2157
12980SOL     OW42412   5.291   7.576   1.817  0.2177 -0.3590  0.0958
12980SOL    HW142413   5.332   7.558   1.907 -0.8012 -2.2015  0.2161
12980SOL    HW242414   5.246   7.493   1.784 -1.7211  1.0574 -0.9132
12981SOL     OW42415   9.011   8.936   7.935 -0.0418 -0.6235 -0.2481
12981SOL    HW142416   9.015   8.951   7.836  0.3354 -0.9939 -0.2893
12981SOL    HW242417   8.927   8.888   7.959  0.8990 -2.5234 -0.6524
12983SOL     OW42418   5.057   0.886   0.055 -0.0937  0.1409 -0.4433
12983SOL    HW142419   5.016   0.961   0.003 -1.7944  0.8753  1.8854
12983SOL    HW242420   4.996   0.807   0.054  0.5941 -0.3969 -0.8613
12984SOL     OW42421   6.728   4.791   1.481 -0.5116  0.2246 -0.4985
12984SOL    HW142422   6.651   4.728   1.477 -0.3863 -0.0058  0.5895
12984SOL    HW242423   6.791   4.772   1.406  0.4053 -2.1018  0.8157
12985SOL     OW42424   8.629   6.495   7.821 -0.2425  0.4335  0.1303
12985SOL    HW142425   8.714   6.441   7.819 -0.9819 -0.8393  1.7028
12985SOL    HW242426   8.623   6.543   7.908 -0.5891  1.4614 -0.4545
12986SOL     OW42427   9.441   0.824   2.465 -0.3348  0.3330  0.1389
12986SOL    HW142428   9.482   0.733   2.474 -2.0923 -0.3670  1.3014
12986SOL    HW242429   9.508   0.894   2.489  1.6717 -0.5130 -2.6435
12987SOL     OW42430   8.279   9.671   7.515  0.6937  0.6039 -0.4450
12987SOL    HW142431   8.252   9.762   7.484  1.0476 -0.1239 -2.9720
12987SOL    HW242432   8.365   9.678   7.567  1.5349  1.5298 -1.9356
12989SOL     OW42433   9.093   0.553   4.214  0.7822 -0.9714  0.0138
12989SOL    HW142434   9.100   0.631   4.151  0.5942 -1.0744 -0.1337
12989SOL    HW242435   9.002   0.552   4.256  1.1534 -0.4755  0.8440
12990SOL     OW42436   1.066   1.630   5.283  0.1029 -0.3702  0.2656
12990SOL    HW142437   1.158   1.667   5.268 -0.5697  1.5988  0.8187
12990SOL    HW242438   1.017   1.625   5.196  0.4976 -0.7366  0.0677
12991SOL     OW42439   9.122   2.266   4.801  0.2933  0.8657  0.3485
12991SOL    HW142440   9.081   2.187   4.755 -0.2244  1.5726 -0.4231
12991SOL    HW242441   9.054   2.339   4.809  1.1576  1.7477 -0.2058
12992SOL     OW42442   9.378   6.854   1.096 -0.0508  0.2111  0.5593
12992SOL    HW142443   9.335   6.935   1.057  0.0733 -0.3210 -0.7225
12992SOL    HW242444   9.307   6.790   1.126 -0.1638 -0.0302 -0.2050
12993SOL     OW42445   0.570   3.893   6.127  0.0795 -0.2954  0.4469
12993SOL    HW142446   0.654   3.920   6.174 -0.3012  0.8755  0.4614
12993SOL    HW242447   0.496   3.954   6.154 -0.4782 -0.5203 -0.5698
12996SOL     OW42448   0.255   0.506   5.369  0.1197  0.3470 -0.0491
12996SOL    HW142449   0.187   0.456   5.315  0.5100 -1.7489  1.3370
12996SOL    HW242450   0.209   0.551   5.446 -0.0225  0.9005 -0.4549
12998SOL     OW42451   3.793   9.132   2.845 -0.4252 -0.5508  0.1886
12998SOL    HW142452   3.775   9.209   2.907 -1.3985 -0.4674 -0.1801
12998SOL    HW242453   3.706   9.089   2.820  0.0621 -1.3396 -0.1604
12999SOL     OW42454   7.396   4.874   0.366 -0.0396  0.0957 -0.0171
12999SOL    HW142455   7.401   4.923   0.453 -1.0306  2.7904 -1.4224
12999SOL    HW242456   7.449   4.789   0.373 -1.8601 -0.8584  3.8636
13000SOL     OW42457   6.528   4.619   1.407 -0.0751 -0.4735  0.3785
13000SOL    HW142458   6.449   4.593   1.462 -0.2925  0.1694  0.3795
13000SOL    HW242459   6.496   4.659   1.321  0.2689 -1.8971 -0.4121
13001SOL     OW42460   9.011   5.133   1.555  0.2987  0.1150 -0.0022
13001SOL    HW142461   8.938   5.113   1.620 -0.7455  0.1834 -1.1552
13001SOL    HW242462   9.095   5.086   1.584 -0.1376  0.1963  1.4216
13003SOL     OW42463   8.854   1.580   6.594 -0.2620  0.6845 -0.4073
13003SOL    HW142464   8.850   1.680   6.605  0.3153  0.5461  1.1503
13003SOL    HW242465   8.913   1.541   6.664 -2.9987 -1.0576  1.0240
13004SOL     OW42466   2.479   9.260   4.353 -0.3368 -0.0368  0.0113
13004SOL    HW142467   2.492   9.267   4.254 -1.0904 -0.4223 -0.1166
13004SOL    HW242468   2.539   9.189   4.389  1.1681  1.2390  0.0859
13006SOL     OW42469   0.578   4.973   6.013  0.4266  0.3209  0.2754
13006SOL    HW142470   0.674   4.950   5.993  0.5115 -0.2491  1.3064
13006SOL    HW242471   0.526   4.889   6.027  0.4525  0.6622  2.7282
13007SOL     OW42472   9.944   1.334   3.330  0.3602  0.1646  0.2728
13007SOL    HW142473   9.983   1.242   3.335 -0.3174 -0.2035 -0.9450
13007SOL    HW242474  10.015   1.402   3.350  0.4903 -0.6707  2.8302
13009SOL     OW42475   5.651   0.193   7.099  0.4732  0.0635 -0.4495
13009SOL    HW142476   5.697   0.217   7.014  0.4989 -2.8306 -1.3099
13009SOL    HW242477   5.566   0.145   7.079 -0.2727  0.6727  1.1577
13010SOL     OW42478   2.993   0.496   4.657  0.2345 -0.0773 -0.6569
13010SOL    HW142479   2.982   0.587   4.617 -3.3282 -0.9690 -1.8998
13010SOL    HW242480   2.945   0.492   4.744  1.9434 -0.2706  0.3052
13012SOL     OW42481   2.435   5.259   1.247 -0.2992 -0.0039  0.0311
13012SOL    HW142482   2.526   5.297   1.237 -0.0979 -0.4294  0.2177
13012SOL    HW242483   2.435   5.190   1.320 -0.1079 -2.0232 -1.8160
13014SOL     OW42484   7.070   5.161   2.490  0.2992  0.0887  0.5456
13014SOL    HW142485   7.039   5.178   2.584  1.9269  1.0083  0.9484
13014SOL    HW242486   7.075   5.248   2.441 -0.4399 -0.3790 -0.3584
13016SOL     OW42487   1.405   9.513   7.124 -0.5904  0.4997  0.0593
13016SOL    HW142488   1.349   9.527   7.042 -0.5473 -0.3419 -0.1106
13016SOL    HW242489   1.422   9.416   7.137  1.0465  0.7567 -0.0213
13019SOL     OW42490   2.735   4.198   5.192  0.4567 -0.4096  0.4715
13019SOL    HW142491   2.736   4.283   5.244 -0.3819 -1.1975  1.8051
13019SOL    HW242492   2.731   4.120   5.255  0.9538 -1.4358 -0.7358
13020SOL     OW42493   9.122   8.351   0.172 -0.3275 -0.5518  0.3976
13020SOL    HW142494   9.108   8.252   0.174  2.1019 -0.9768 -1.0556
13020SOL    HW242495   9.131   8.382   0.077 -1.9904  1.2284  0.7913
13021SOL     OW42496   2.750   1.310   7.089  0.2050 -0.5778  0.7731
13021SOL    HW142497   2.742   1.318   7.188 -2.6532  1.5988  0.4304
13021SOL    HW242498   2.800   1.389   7.053  0.1957 -0.7450  0.3899
13022SOL     OW42499   7.284   8.067   6.840 -0.1774 -0.2451  0.3249
13022SOL    HW142500   7.250   8.110   6.756  0.3525 -2.4918 -1.0917
13022SOL    HW242501   7.355   8.000   6.816  0.0640 -0.8256  2.5926
13024SOL     OW42502   1.213   9.136   0.626  0.1552 -0.2496  0.2414
13024SOL    HW142503   1.122   9.132   0.667 -1.5143  1.6963 -3.0457
13024SOL    HW242504   1.272   9.195   0.681 -2.0785  2.4504 -0.1340
13025SOL     OW42505   6.975   2.752   2.106  0.2329 -0.1893 -0.1243
13025SOL    HW142506   7.067   2.760   2.069  1.2770 -0.8248  2.1889
13025SOL    HW242507   6.928   2.674   2.065  0.7510  0.0873 -1.2432
13026SOL     OW42508   1.503   6.158   6.206 -0.6050  0.3561 -0.0910
13026SOL    HW142509   1.474   6.079   6.261  1.6194 -0.7313 -0.4212
13026SOL    HW242510   1.574   6.208   6.255 -2.3489  2.4907  0.3348
13027SOL     OW42511   9.127   2.989   2.360 -0.3561  0.2220  0.6635
13027SOL    HW142512   9.083   3.028   2.441  0.0353 -0.9580  1.4495
13027SOL    HW242513   9.061   2.934   2.309 -0.3712  0.2514  0.6530
13028SOL     OW42514   1.064   0.175   7.377  0.8656 -0.3376  0.1071
13028SOL    HW142515   1.103   0.195   7.287  1.0862 -0.5749  0.1517
13028SOL    HW242516   0.964   0.178   7.371  0.8839  1.9563  0.3611
13029SOL     OW42517   0.976   3.192   2.048 -0.2609  0.1195  0.1597
13029SOL    HW142518   0.960   3.273   1.993 -1.1441  0.3241  0.7165
13029SOL    HW242519   0.930   3.201   2.136 -1.6235 -1.6236 -0.3432
13031SOL     OW42520   3.332   6.530   7.481 -0.0369 -0.8209  0.1224
13031SOL    HW142521   3.422   6.557   7.446 -0.6070  0.7680 -0.1644
13031SOL    HW242522   3.321   6.564   7.574 -1.7130  2.1828 -1.0980
13032SOL     OW42523   6.610   4.621   0.743  0.3320 -0.1900 -0.0362
13032SOL    HW142524   6.530   4.576   0.782 -0.8487  1.0325 -1.0196
13032SOL    HW242525   6.635   4.700   0.799 -0.7931  1.0075 -1.1817
13034SOL     OW42526   7.164   4.788   3.511 -0.1590  0.2106 -0.6265
13034SOL    HW142527   7.210   4.853   3.572  0.8243 -0.0385 -1.0811
13034SOL    HW242528   7.066   4.792   3.526 -0.0109  0.9137  0.2262
13036SOL     OW42529   8.474   2.900   7.773 -0.4251  0.0238  0.4033
13036SOL    HW142530   8.549   2.948   7.727  0.5314  0.0011  1.9111
13036SOL    HW242531   8.411   2.967   7.814 -0.1111  0.0196  0.8962
13037SOL     OW42532   1.819   7.309   0.095 -0.3211 -0.3685  0.0471
13037SOL    HW142533   1.874   7.371   0.039  0.1317 -1.5981 -0.8998
13037SOL    HW242534   1.862   7.298   0.185 -0.0069  0.1073 -0.0431
13038SOL     OW42535   8.967   8.789   5.630 -0.2805  0.1207 -0.0750
13038SOL    HW142536   9.026   8.822   5.704  2.3442 -1.5479 -1.3572
13038SOL    HW242537   9.000   8.824   5.542 -1.8781  0.0403 -0.7396
13040SOL     OW42538   9.469   4.364   7.003  0.6328 -0.0346  0.2621
13040SOL    HW142539   9.568   4.368   7.017  0.5359 -1.4345  1.4628
13040SOL    HW242540   9.446   4.278   6.957  0.6043  2.9628 -5.8483
13041SOL     OW42541   0.687   6.997   3.645 -0.3828 -0.1695 -0.6524
13041SOL    HW142542   0.648   7.018   3.735  1.9492  1.1307  0.1091
13041SOL    HW242543   0.621   7.022   3.573 -2.0809 -0.7815  0.6579
13042SOL     OW42544   1.155   1.544   3.314  0.8846 -0.3342  0.0769
13042SOL    HW142545   1.100   1.541   3.397  1.1270  0.2310  0.2574
13042SOL    HW242546   1.181   1.638   3.294  1.2137 -0.5193 -0.3861
13043SOL     OW42547   7.500   6.010   3.384  0.0970  0.0738  0.3289
13043SOL    HW142548   7.524   5.917   3.355 -0.3479  0.1161 -0.1821
13043SOL    HW242549   7.457   6.007   3.474 -0.3019 -0.2570  0.1271
13044SOL     OW42550   1.702   2.388   3.796  0.4778  0.1515  0.2751
13044SOL    HW142551   1.679   2.295   3.827 -0.1364  0.7946  1.7957
13044SOL    HW242552   1.649   2.455   3.848  0.8408  1.3596 -0.8874
13045SOL     OW42553   2.345   4.503   1.262  0.2953  0.1100 -0.2454
13045SOL    HW142554   2.248   4.478   1.262 -0.0564  1.3879 -2.1852
13045SOL    HW242555   2.364   4.561   1.341 -0.3668 -0.6549  0.4929
13046SOL     OW42556   2.534   7.787   2.291  0.4169 -0.4320 -0.0641
13046SOL    HW142557   2.618   7.830   2.260  0.3253 -0.0159  0.2560
13046SOL    HW242558   2.550   7.739   2.377 -0.1194  1.2832  1.0097
13048SOL     OW42559   2.848   7.806   0.971  0.1234  0.6499  0.5253
13048SOL    HW142560   2.756   7.775   0.945  0.9102 -0.3758 -1.0777
13048SOL    HW242561   2.870   7.890   0.922  0.4030  0.3905  0.2054
13049SOL     OW42562   9.322   7.963   4.958  0.2214  0.5016 -0.3314
13049SOL    HW142563   9.388   7.990   4.887 -0.1465  3.1867  0.2828
13049SOL    HW242564   9.249   8.031   4.963 -0.5208 -0.3982  1.6693
13050SOL     OW42565   1.288   1.789   6.898  0.3640  0.3503  0.0652
13050SOL    HW142566   1.336   1.734   6.966  0.1598 -0.5056 -0.4802
13050SOL    HW242567   1.305   1.886   6.916  0.6680  0.1198  1.0711
13051SOL     OW42568   2.877   9.803   1.873  0.3107 -0.4589 -0.4745
13051SOL    HW142569   2.788   9.836   1.902  0.9919 -0.6372  1.9024
13051SOL    HW242570   2.906   9.854   1.791 -1.3286  0.5916 -0.4210
13052SOL     OW42571   0.911   8.723   4.347 -0.8015 -0.4239  0.3410
13052SOL    HW142572   0.937   8.818   4.364 -0.0811 -0.5086 -0.2418
13052SOL    HW242573   0.813   8.718   4.326 -0.9901  0.0959  1.0718
13053SOL     OW42574   2.101   2.884   0.817  0.5156  0.0778  0.1950
13053SOL    HW142575   2.015   2.923   0.848  0.7071  0.5726  0.1153
13053SOL    HW242576   2.122   2.802   0.870 -0.0158 -0.0595  0.1914
13054SOL     OW42577   9.532   4.924   7.729 -0.3840 -0.0939  0.0779
13054SOL    HW142578   9.492   5.016   7.720 -0.2728 -0.1538 -1.2451
13054SOL    HW242579   9.628   4.932   7.757 -0.2404  0.2288 -0.4785
13055SOL     OW42580   0.438   9.262   2.072  0.3848  0.3626 -0.1224
13055SOL    HW142581   0.494   9.273   1.990 -0.1119  1.2134 -0.3585
13055SOL    HW242582   0.446   9.344   2.129 -0.8311  0.6116 -0.2909
13056SOL     OW42583   5.283   0.118   3.389 -0.3963  0.0202  0.1827
13056SOL    HW142584   5.263   0.055   3.314 -0.1244  2.0860 -1.6882
13056SOL    HW242585   5.382   0.137   3.391 -0.7272  1.9570 -0.6179
13057SOL     OW42586   4.570   2.571   6.849 -0.3430 -0.7052 -0.0156
13057SOL    HW142587   4.614   2.660   6.839 -1.2618 -0.1594  0.6670
13057SOL    HW242588   4.535   2.561   6.943 -2.0631 -0.9176 -0.6492
13058SOL     OW42589   7.551   1.367   2.854 -0.0760 -0.0665 -0.1537
13058SOL    HW142590   7.592   1.415   2.932  0.8494  0.2119 -0.7990
13058SOL    HW242591   7.611   1.377   2.774 -1.2685  0.0952 -1.0362
13060SOL     OW42592   1.531   6.784   4.894  0.2926  0.1203 -0.2763
13060SOL    HW142593   1.629   6.773   4.876  0.1711  0.8594 -1.4906
13060SOL    HW242594   1.507   6.881   4.888 -0.2756  0.0845  1.3210
13061SOL     OW42595   0.779   1.458   2.619  0.3478  0.4288  0.0552
13061SOL    HW142596   0.746   1.399   2.545  0.2733 -0.5864  0.8865
13061SOL    HW242597   0.875   1.437   2.638  0.3587  0.6686  0.2655
13062SOL     OW42598   5.949   1.128   2.091  0.3809 -0.5599 -0.5983
13062SOL    HW142599   5.953   1.160   1.997 -1.0409 -1.1403 -0.8678
13062SOL    HW242600   5.946   1.028   2.093  0.9430 -0.5702  0.0847
13064SOL     OW42601   9.579   5.099   5.869 -0.0613  0.3578 -0.3138
13064SOL    HW142602   9.672   5.135   5.873  0.4168 -0.7963 -0.9159
13064SOL    HW242603   9.551   5.067   5.959 -0.1519  1.3859  0.0258
13066SOL     OW42604   1.756   6.309   4.803  0.6014 -0.1321 -0.5801
13066SOL    HW142605   1.807   6.235   4.758  0.4999  0.4289 -1.6324
13066SOL    HW242606   1.811   6.392   4.804 -0.1387  0.3875 -1.4264
13067SOL     OW42607   3.350   8.721   7.367 -0.3883  0.2038 -0.1395
13067SOL    HW142608   3.319   8.695   7.276 -0.6153  0.9338 -0.2693
13067SOL    HW242609   3.311   8.658   7.435 -0.5623 -0.0771 -0.4998
13068SOL     OW42610   4.391   3.791   5.228 -0.1220 -0.0416 -0.6295
13068SOL    HW142611   4.375   3.755   5.136 -0.6269 -1.7151  0.0961
13068SOL    HW242612   4.310   3.842   5.259  0.3448  1.1772 -1.4094
13069SOL     OW42613   2.012   9.736   3.661  0.1000  0.1824  0.2113
13069SOL    HW142614   2.032   9.726   3.758  0.2005  1.8307  0.3798
13069SOL    HW242615   1.931   9.794   3.650 -0.7540 -1.1405 -0.6544
13070SOL     OW42616   4.776   9.731   3.197  0.0953 -0.4939  0.3141
13070SOL    HW142617   4.837   9.653   3.188 -1.3845 -1.4705 -1.5922
13070SOL    HW242618   4.788   9.793   3.119 -0.7484 -0.2568  0.3683
13071SOL     OW42619   3.699   4.486   4.356 -0.2912  0.1119 -0.1859
13071SOL    HW142620   3.693   4.550   4.279  0.9210  0.6322  0.1393
13071SOL    HW242621   3.607   4.465   4.389 -0.8677 -0.4629 -2.0456
13073SOL     OW42622   4.917   8.278   5.505  0.0537 -0.0592  0.3978
13073SOL    HW142623   4.999   8.231   5.539 -1.1677 -0.4155  3.0006
13073SOL    HW242624   4.838   8.219   5.517 -0.7761  0.7729 -0.9120
13074SOL     OW42625   0.424   4.634   2.721  0.6133  0.3032 -0.3225
13074SOL    HW142626   0.458   4.694   2.648 -1.0267  0.2372 -1.1612
13074SOL    HW242627   0.337   4.594   2.694 -0.5914  1.1451  2.1380
13075SOL     OW42628   2.724   4.434   5.339  0.5082 -1.0929  0.3600
13075SOL    HW142629   2.696   4.423   5.435 -1.2281 -0.1953 -0.0399
13075SOL    HW242630   2.775   4.519   5.328 -1.1463 -0.1287  0.0806
13076SOL     OW42631   4.906   1.080   7.556 -0.5954 -0.0342 -0.1186
13076SOL    HW142632   4.880   1.093   7.652 -1.0321  0.8234 -0.3423
13076SOL    HW242633   4.962   1.158   7.526  2.9654 -2.2000  0.5773
13077SOL     OW42634   4.719   2.218   7.805  0.1533  0.7140  0.3426
13077SOL    HW142635   4.742   2.212   7.902  0.9550 -1.0245  0.0801
13077SOL    HW242636   4.776   2.153   7.754  0.0864  1.9569 -1.3545
13078SOL     OW42637   1.023   4.072   6.507  0.0935 -0.0680  0.1483
13078SOL    HW142638   1.095   4.035   6.449 -1.8938 -0.7546 -1.9859
13078SOL    HW242639   0.986   4.156   6.465 -0.8513 -0.1595  0.7827
13079SOL     OW42640   9.106   3.446   3.065  0.2180 -0.0108  0.0296
13079SOL    HW142641   9.012   3.419   3.041  0.2382 -0.9652  0.9941
13079SOL    HW242642   9.157   3.365   3.093  1.3300  0.5172 -0.4512
13081SOL     OW42643   2.763   3.153   4.855 -0.4221  0.0976  0.1375
13081SOL    HW142644   2.802   3.212   4.926 -0.2096  0.5386 -0.3507
13081SOL    HW242645   2.832   3.132   4.787 -1.3682  1.9366 -1.4332
13082SOL     OW42646   1.442   4.747   5.260  0.2879  0.0956  0.2809
13082SOL    HW142647   1.404   4.824   5.209  0.6257  0.6136  0.7975
13082SOL    HW242648   1.498   4.691   5.199  2.4739  1.9264  0.5440
13083SOL     OW42649   8.948   1.307   7.788 -0.0534  0.4612  0.1483
13083SOL    HW142650   8.890   1.349   7.718 -0.4043  1.3303  0.9493
13083SOL    HW242651   8.894   1.245   7.844 -0.5540  2.2789  1.7450
13085SOL     OW42652   5.365   4.920   0.268  0.2397 -0.3407  0.1635
13085SOL    HW142653   5.440   4.959   0.214 -0.2516  0.4576  0.0373
13085SOL    HW242654   5.342   4.830   0.233 -1.3064  0.9143 -2.1964
13086SOL     OW42655   3.947   0.180   0.561 -0.4309 -0.3814  0.2215
13086SOL    HW142656   3.956   0.279   0.566 -0.0506 -0.4543  1.2628
13086SOL    HW242657   4.030   0.141   0.522 -0.5954 -0.2883 -0.2215
13087SOL     OW42658   7.051   6.311   1.508  0.3936  0.0948  0.4218
13087SOL    HW142659   7.061   6.404   1.471 -1.9526  0.6877  1.1612
13087SOL    HW242660   7.008   6.253   1.439  1.1339 -0.2393  0.2418
13089SOL     OW42661   7.816   1.752   1.493  0.4199  0.6499 -0.4564
13089SOL    HW142662   7.809   1.652   1.500  1.3807  0.7320  1.9846
13089SOL    HW242663   7.726   1.792   1.509  0.2819  0.2387 -0.1961
13090SOL     OW42664   2.828   2.386   1.854 -0.1515  0.6679  0.6956
13090SOL    HW142665   2.774   2.323   1.797 -1.3655  2.9015 -0.7249
13090SOL    HW242666   2.916   2.403   1.810 -0.4195  1.1071  0.3280
13091SOL     OW42667   4.625   0.335   0.149 -0.3142  0.1570  0.1219
13091SOL    HW142668   4.719   0.360   0.124 -0.4729 -1.2382 -1.9747
13091SOL    HW242669   4.613   0.236   0.142 -1.6616  0.2031  1.4294
13092SOL     OW42670   4.747   3.554   6.925 -0.0645  0.2076  0.1942
13092SOL    HW142671   4.805   3.635   6.929  1.9949 -1.0355 -2.9570
13092SOL    HW242672   4.769   3.500   6.844 -2.0418 -3.0361  1.6789
13093SOL     OW42673   7.525   1.618   3.833  0.6284 -0.4287  0.1426
13093SOL    HW142674   7.444   1.660   3.873 -0.6503 -2.1063 -0.6596
13093SOL    HW242675   7.558   1.544   3.892  1.6105  0.2738  0.4886
13094SOL     OW42676   0.585   1.581   0.038 -0.0186  0.2491 -0.1802
13094SOL    HW142677   0.518   1.507   0.043 -1.1480  1.2990  0.2643
13094SOL    HW242678   0.658   1.563   0.104 -1.0124  0.2478  0.9362
13095SOL     OW42679   2.968   2.515   7.432 -0.1721  0.1809  0.4818
13095SOL    HW142680   2.933   2.574   7.360 -0.4658 -0.6605 -0.0595
13095SOL    HW242681   3.009   2.433   7.392  2.7987  1.3172  1.0574
13097SOL     OW42682   2.408   7.011   7.825 -0.2117 -0.2036 -0.4758
13097SOL    HW142683   2.405   7.062   7.912  0.2361  0.8053 -1.0497
13097SOL    HW242684   2.317   7.011   7.784 -0.6080 -1.3720  0.3852
13099SOL     OW42685   8.037   7.430   1.166  0.6420 -1.0485 -0.0440
13099SOL    HW142686   7.946   7.469   1.181  0.7205 -0.1079 -1.8180
13099SOL    HW242687   8.073   7.464   1.079  2.6691 -1.4597  0.6166
13100SOL     OW42688   1.391   2.369   3.549 -0.0042  0.7956 -0.0578
13100SOL    HW142689   1.385   2.281   3.595  0.6424  0.5186 -0.5048
13100SOL    HW242690   1.392   2.442   3.617  3.2856  0.2870  0.5027
13102SOL     OW42691   7.069   7.260   3.172 -0.4212  0.3946 -0.0378
13102SOL    HW142692   7.021   7.249   3.259  0.8456 -0.9704  0.5058
13102SOL    HW242693   7.167   7.264   3.188 -0.1399 -0.3682 -1.4479
13103SOL     OW42694   9.838   2.266   3.281 -0.2802 -0.0013 -0.6911
13103SOL    HW142695   9.811   2.343   3.339  1.5145  0.4849 -0.4665
13103SOL    HW242696   9.879   2.194   3.338  1.2929  0.3876 -1.2929
13105SOL     OW42697   3.733   6.722   0.509  0.7593  0.2493  0.7250
13105SOL    HW142698   3.788   6.779   0.570  2.9630 -0.7365 -0.2717
13105SOL    HW242699   3.772   6.630   0.506  1.6771  0.6718 -3.3896
13106SOL     OW42700   2.948   5.950   7.070 -0.3177 -0.4003  0.4691
13106SOL    HW142701   2.896   6.034   7.087  0.3935  0.0525  0.4423
13106SOL    HW242702   2.891   5.870   7.091 -0.9338  0.0913  0.6810
13107SOL     OW42703   2.687   7.925   0.511 -0.2165 -0.2703  0.7568
13107SOL    HW142704   2.679   8.000   0.577 -2.9801 -0.1266  0.3236
13107SOL    HW242705   2.630   7.945   0.431  0.9065 -1.7322 -0.4396
13109SOL     OW42706   1.989   4.619   3.994  0.0346 -0.0094  0.2322
13109SOL    HW142707   1.972   4.532   4.040  1.2692 -1.3221 -1.7297
13109SOL    HW242708   2.025   4.685   4.060  2.3876 -2.0522  1.0832
13110SOL     OW42709   2.332   9.827   3.997  0.4844  0.3992 -1.2195
13110SOL    HW142710   2.286   9.891   4.058  0.4656  0.3938 -1.2281
13110SOL    HW242711   2.288   9.738   4.002  0.7145  0.2990 -0.9630
13111SOL     OW42712   4.583   9.077   2.866 -0.2819 -0.4366 -0.0672
13111SOL    HW142713   4.594   9.151   2.801 -0.5746 -0.4082 -0.0835
13111SOL    HW242714   4.654   9.084   2.937 -0.7995  0.3265  0.3823
13116SOL     OW42715   2.011   4.063   2.658 -0.3340 -0.4551  0.4853
13116SOL    HW142716   1.981   4.052   2.753 -1.6518  1.5315  0.3354
13116SOL    HW242717   1.935   4.097   2.603  0.7019 -0.6208 -1.0718
13117SOL     OW42718   8.393   4.213   3.636  0.3825  0.1284 -0.0271
13117SOL    HW142719   8.401   4.312   3.628  2.9563 -0.0329  0.0921
13117SOL    HW242720   8.385   4.172   3.545  0.6268  0.3556 -0.1496
13118SOL     OW42721   3.836   6.021   3.668  0.3977 -0.2800  0.4203
13118SOL    HW142722   3.918   6.057   3.713 -0.8464  0.9506  1.7765
13118SOL    HW242723   3.838   6.043   3.571  1.5951 -0.0915  0.4869
13119SOL     OW42724   3.365   5.630   2.603 -0.4129 -0.7509 -0.0915
13119SOL    HW142725   3.372   5.532   2.586 -1.5895 -1.2160  1.9774
13119SOL    HW242726   3.344   5.677   2.518  0.4527 -2.2472 -1.1645
13120SOL     OW42727   2.864   2.737   5.561 -0.3032  0.0430  0.0143
13120SOL    HW142728   2.843   2.721   5.658  2.6364 -0.0527  0.6673
13120SOL    HW242729   2.828   2.661   5.507 -3.0577  0.6875  0.8249
13121SOL     OW42730   0.652   4.435   1.354  0.0848 -0.4886  0.1327
13121SOL    HW142731   0.617   4.385   1.274  1.2103 -1.9780  0.5459
13121SOL    HW242732   0.588   4.424   1.430 -1.4728  1.7245 -0.8032
13123SOL     OW42733   4.023   5.461   7.918 -0.0176 -0.7019  0.3500
13123SOL    HW142734   3.992   5.498   8.006  1.4297  0.3388  0.4509
13123SOL    HW242735   3.946   5.421   7.869 -1.4654  1.5119  0.7333
13124SOL     OW42736   4.618   6.816   2.491  0.0534  0.3942  0.1102
13124SOL    HW142737   4.671   6.900   2.505 -0.3029  0.5107  0.7693
13124SOL    HW242738   4.681   6.741   2.470  0.3223  0.9739 -1.2385
13125SOL     OW42739   7.577   5.324   2.112  0.1256  0.2512  0.6340
13125SOL    HW142740   7.530   5.395   2.165  1.2656  0.6701  1.0984
13125SOL    HW242741   7.676   5.340   2.115  0.3399 -0.9155  0.0908
13126SOL     OW42742   9.456   0.079   1.159  0.1146 -0.5902 -0.3635
13126SOL    HW142743   9.486   0.158   1.106 -0.7510  0.7180  1.0817
13126SOL    HW242744   9.526   0.008   1.154  0.5383 -0.0683 -2.3377
13127SOL     OW42745   9.646   1.584   6.989  0.7765  0.1491  0.7273
13127SOL    HW142746   9.599   1.496   6.992  0.0267  0.4215 -1.9432
13127SOL    HW242747   9.742   1.572   7.012  0.4546 -1.1946  1.3917
13128SOL     OW42748   2.356   2.401   0.914  0.0087  0.0037  0.4018
13128SOL    HW142749   2.410   2.485   0.914  1.2449 -0.7656 -1.3208
13128SOL    HW242750   2.408   2.328   0.960 -0.2522 -0.3258  0.1711
13129SOL     OW42751   6.274   5.864   1.290  0.6430  0.4007  0.0770
13129SOL    HW142752   6.335   5.849   1.213  2.0974 -0.1643  1.3101
13129SOL    HW242753   6.325   5.904   1.366 -0.5268 -0.0506  1.1221
13130SOL     OW42754   0.825   3.978   6.257 -0.3602  0.0124 -0.2530
13130SOL    HW142755   0.818   4.065   6.306 -0.2550 -0.2584  0.2488
13130SOL    HW242756   0.845   3.904   6.322 -0.9708 -0.4669 -0.6038
13131SOL     OW42757   8.511   7.520   7.454 -0.2385  0.8313  0.7997
13131SOL    HW142758   8.468   7.578   7.384 -0.8556  1.5178  1.7490
13131SOL    HW242759   8.609   7.510   7.432 -0.6007  0.3062 -0.6514
13133SOL     OW42760   8.592   3.048   7.566  0.6365 -0.0840  0.3273
13133SOL    HW142761   8.670   3.050   7.504 -0.9255  1.6268 -1.6636
13133SOL    HW242762   8.571   3.142   7.595 -0.5547 -0.5610  1.0215
13134SOL     OW42763   7.797   8.509   5.003  0.0103 -0.0925  0.5344
13134SOL    HW142764   7.876   8.467   5.048  0.2322 -0.2138  0.0472
13134SOL    HW242765   7.825   8.597   4.963 -0.2741  0.1834  0.9403
13135SOL     OW42766   6.830   2.017   3.857  0.2480  0.1998  0.0324
13135SOL    HW142767   6.834   1.922   3.886 -0.1282 -0.0103 -0.5894
13135SOL    HW242768   6.747   2.032   3.803  0.0942  0.9761  0.4735
13136SOL     OW42769   7.624   3.828   5.297  0.4191 -0.1702 -0.3937
13136SOL    HW142770   7.720   3.802   5.309  0.5909  0.0502 -1.2349
13136SOL    HW242771   7.594   3.802   5.205  0.0732  0.9838 -0.6142
13137SOL     OW42772   9.405   0.202   3.959  0.7316  0.1808  0.3237
13137SOL    HW142773   9.429   0.143   4.036  0.1915  0.1361  0.4667
13137SOL    HW242774   9.340   0.272   3.991 -0.9946 -0.9964 -0.4976
13138SOL     OW42775   7.138   4.726   0.875  0.3345  0.0008  0.4695
13138SOL    HW142776   7.205   4.792   0.910  1.1602 -1.9377  2.7158
13138SOL    HW242777   7.101   4.672   0.951 -2.2066 -0.4312 -0.9996
13139SOL     OW42778   7.197   6.188   0.468  0.0552  0.1832 -0.0502
13139SOL    HW142779   7.193   6.090   0.448  1.5390 -0.1627  1.1808
13139SOL    HW242780   7.161   6.205   0.560 -0.9099  0.9041 -0.5537
13140SOL     OW42781   0.020   1.590   3.627 -0.3772  0.0253  0.1280
13140SOL    HW142782  -0.037   1.525   3.677 -2.0900  2.0652  0.9299
13140SOL    HW242783   0.082   1.636   3.691 -0.9828  1.0157  0.0099
13141SOL     OW42784   0.289   6.123   0.810 -0.4733  0.0428 -0.4902
13141SOL    HW142785   0.216   6.108   0.743 -0.6483  0.4245 -0.3891
13141SOL    HW242786   0.321   6.036   0.845 -1.2744 -0.1057 -0.1140
13142SOL     OW42787   2.731   3.236   2.748  0.1494 -0.0733  0.5136
13142SOL    HW142788   2.795   3.268   2.817  0.8629 -0.1643 -0.1006
13142SOL    HW242789   2.695   3.315   2.697 -0.2903 -0.0161  0.9051
13143SOL     OW42790   5.170   0.556   5.437  0.3760 -0.1708  0.2059
13143SOL    HW142791   5.130   0.564   5.529  0.2922  0.2924  0.1311
13143SOL    HW242792   5.126   0.481   5.388  1.5786 -1.5011  1.1344
13144SOL     OW42793   8.526   9.882   0.806  0.9459  0.2022  0.5262
13144SOL    HW142794   8.579   9.801   0.833  1.4481  0.2232 -0.4037
13144SOL    HW242795   8.494   9.871   0.712  0.5585  0.8477  0.5847
13150SOL     OW42796   2.633   8.184   3.409  0.3530  0.4493  0.2084
13150SOL    HW142797   2.536   8.164   3.421  0.3183  1.3978  1.6951
13150SOL    HW242798   2.646   8.233   3.322 -0.3749 -0.4134 -0.3962
13152SOL     OW42799   0.677   7.197   2.035  0.4842 -0.4416  0.0404
13152SOL    HW142800   0.702   7.218   2.130 -0.8201 -0.4208  0.3841
13152SOL    HW242801   0.669   7.282   1.983  0.7155 -0.4276  0.0245
13153SOL     OW42802   9.704   4.971   4.623 -0.2855  0.0192  0.0449
13153SOL    HW142803   9.770   5.028   4.671  0.2891 -1.3481  0.9064
13153SOL    HW242804   9.645   4.925   4.689 -1.2691  0.2382 -0.6705
13154SOL     OW42805   8.385   4.403   4.168  0.3562  0.1362  0.2684
13154SOL    HW142806   8.456   4.346   4.127  0.7931  0.8040  0.0857
13154SOL    HW242807   8.296   4.356   4.162  0.2952  0.5388 -2.0793
13155SOL     OW42808   4.122   6.075   4.244  0.8950 -0.0640 -0.0911
13155SOL    HW142809   4.031   6.058   4.282  1.4403  0.3722  1.4799
13155SOL    HW242810   4.163   5.989   4.213 -0.4506 -0.1193 -1.7688
13156SOL     OW42811   1.236   5.006   7.499  0.1567 -0.2228  0.2739
13156SOL    HW142812   1.320   5.013   7.553 -0.0069 -4.0801  1.1672
13156SOL    HW242813   1.256   5.028   7.404  1.1007  3.5659  1.2360
13157SOL     OW42814   2.341   3.681   2.061 -0.0190 -0.0815  0.4041
13157SOL    HW142815   2.362   3.709   2.154 -0.1455  0.9506  0.1359
13157SOL    HW242816   2.313   3.585   2.060  2.4310 -0.8364  1.0620
13158SOL     OW42817   5.193   9.404   7.313 -0.6167  0.3260  0.0678
13158SOL    HW142818   5.102   9.389   7.275 -0.8239  0.7389  0.4006
13158SOL    HW242819   5.262   9.370   7.248 -0.8875  2.8011 -1.6062
13159SOL     OW42820   1.657   8.144   1.751  0.0426 -0.0973  0.7083
13159SOL    HW142821   1.619   8.053   1.733  0.2308 -0.0274 -0.0417
13159SOL    HW242822   1.596   8.214   1.714 -1.0728  0.1706  2.9573
13160SOL     OW42823   0.517   3.198   3.427 -0.6927 -0.1244 -0.1934
13160SOL    HW142824   0.580   3.129   3.462  0.0379  0.4764 -0.3020
13160SOL    HW242825   0.504   3.269   3.496 -1.6237 -0.4833  0.0068
13161SOL     OW42826   2.500   9.702   6.853  0.4961  0.3260 -0.2588
13161SOL    HW142827   2.571   9.661   6.911  0.6302  2.0129  0.8063
13161SOL    HW242828   2.418   9.717   6.908 -0.1060 -0.0348 -1.0594
13162SOL     OW42829   3.356   5.700   1.574 -0.0541 -0.6589 -0.3223
13162SOL    HW142830   3.302   5.693   1.658  0.8424  0.0179  0.3296
13162SOL    HW242831   3.347   5.792   1.536 -0.3634 -0.9277 -0.9099
13164SOL     OW42832   8.144   4.741   3.543 -0.1059  0.6814 -0.4534
13164SOL    HW142833   8.103   4.830   3.562  0.9903  1.4386 -1.5253
13164SOL    HW242834   8.209   4.750   3.468  1.0052 -0.7670  0.3102
13165SOL     OW42835   4.512   4.701   3.192 -0.2480 -0.1712  0.3061
13165SOL    HW142836   4.562   4.679   3.108  0.1050  2.5998 -0.2529
13165SOL    HW242837   4.414   4.692   3.176 -0.1192 -1.5462  0.1901
13166SOL     OW42838   3.973   4.091   3.996 -0.1322  0.1532  0.0007
13166SOL    HW142839   3.953   4.133   4.084  0.4651  1.5901 -0.5265
13166SOL    HW242840   3.979   4.163   3.926  1.3123 -0.7669 -0.8489
13167SOL     OW42841   4.411   6.156   2.431  0.1493 -0.8134  0.2902
13167SOL    HW142842   4.444   6.114   2.516 -1.5956 -0.5442  1.1276
13167SOL    HW242843   4.370   6.086   2.373  0.4572 -0.8380  0.0996
13168SOL     OW42844   7.507   6.315   1.281  0.1997  0.0482  0.3470
13168SOL    HW142845   7.586   6.268   1.242 -1.5229  0.0776 -3.3838
13168SOL    HW242846   7.517   6.413   1.267  0.3513  0.2210  1.5890
13169SOL     OW42847   6.003   2.622   2.042 -0.6106  0.1909  0.3549
13169SOL    HW142848   6.004   2.610   1.943 -1.2705 -0.4765  0.4310
13169SOL    HW242849   6.083   2.579   2.082  0.3706  1.6243 -0.0175
13170SOL     OW42850   8.316   5.692   6.389  0.4223 -0.0348 -0.1168
13170SOL    HW142851   8.388   5.661   6.327  1.4200 -1.9481  1.9503
13170SOL    HW242852   8.348   5.773   6.440  0.4389  0.1787 -0.4639
13171SOL     OW42853   4.021   2.759   1.711 -0.1070  0.2822 -0.3004
13171SOL    HW142854   4.096   2.732   1.651  0.4504 -0.9658  0.9395
13171SOL    HW242855   3.995   2.682   1.769 -0.9957  1.3120  0.6999
13175SOL     OW42856   6.573   1.064   4.071 -0.6185  0.6629 -0.4250
13175SOL    HW142857   6.639   1.047   4.144  1.4031  0.7599 -2.1710
13175SOL    HW242858   6.495   1.113   4.107  0.2163  0.4520  1.7252
13176SOL     OW42859   1.374   8.190   6.992  0.2560 -0.2921 -0.0035
13176SOL    HW142860   1.346   8.238   7.075 -1.7713 -2.2878  0.4994
13176SOL    HW242861   1.346   8.244   6.912  3.0401  2.0982  0.5211
13177SOL     OW42862   5.240   7.833   1.108  0.0153 -0.2646 -0.1116
13177SOL    HW142863   5.241   7.920   1.059 -1.6287 -0.2455 -0.1226
13177SOL    HW242864   5.239   7.850   1.206 -0.8120 -0.2770 -0.1219
13178SOL     OW42865   7.042   3.773   3.365 -0.3233 -0.0454  0.1848
13178SOL    HW142866   7.010   3.719   3.443 -1.1033 -0.5810 -0.5077
13178SOL    HW242867   7.106   3.719   3.311  0.2871  0.3583  0.5004
13179SOL     OW42868   0.299   4.737   5.589 -0.0148  0.2368  0.0896
13179SOL    HW142869   0.344   4.736   5.500  0.9894 -0.4027  0.6004
13179SOL    HW242870   0.359   4.696   5.658 -0.6199  1.0880  1.1420
13180SOL     OW42871   7.475   5.623   2.084 -0.2772  0.1330  0.1165
13180SOL    HW142872   7.521   5.583   2.004  0.5116 -1.0004  1.1088
13180SOL    HW242873   7.529   5.699   2.119  0.1390 -0.3087  0.4443
13181SOL     OW42874   4.081   5.077   1.483 -0.4738 -0.5993 -0.1512
13181SOL    HW142875   4.017   5.116   1.417  0.8844  0.7289 -0.7110
13181SOL    HW242876   4.140   5.010   1.438 -0.5907 -0.8507  0.0665
13182SOL     OW42877   7.823   5.116   5.344 -0.1824 -0.1834  0.0942
13182SOL    HW142878   7.792   5.021   5.338  0.9469 -0.6670  1.6044
13182SOL    HW242879   7.819   5.146   5.440 -0.8646  1.4113 -0.4214
13185SOL     OW42880   4.421   4.557   1.528 -0.1991  0.1057 -0.1187
13185SOL    HW142881   4.340   4.611   1.507 -1.4900 -1.8557 -0.3317
13185SOL    HW242882   4.416   4.470   1.480  2.2156  0.0949 -0.3936
13186SOL     OW42883   7.358   7.356   5.078  0.7769 -0.4900  0.2783
13186SOL    HW142884   7.339   7.363   5.176  0.9354  2.5377  0.1641
13186SOL    HW242885   7.442   7.303   5.064  1.9852  0.9046  1.9704
13187SOL     OW42886   6.522   0.583   5.752 -0.6799  0.1990  0.5431
13187SOL    HW142887   6.553   0.528   5.675  0.3578  1.3011  0.1505
13187SOL    HW242888   6.552   0.540   5.838  0.7596  0.5041  0.2158
13189SOL     OW42889   2.524   0.029   6.732 -0.1845  0.2480  0.0711
13189SOL    HW142890   2.587  -0.041   6.767  0.6252  1.5319  1.2621
13189SOL    HW242891   2.440  -0.014   6.701  0.8397 -1.3891 -0.4806
13190SOL     OW42892   0.698   9.785   3.573 -0.1105 -0.2852 -0.3573
13190SOL    HW142893   0.654   9.862   3.619 -1.0553 -0.1641 -1.4557
13190SOL    HW242894   0.630   9.734   3.520  1.0913 -0.0152 -2.2043
13192SOL     OW42895   7.640   5.600   0.372  0.1816 -0.1790  0.0616
13192SOL    HW142896   7.577   5.677   0.384  1.9094  1.5439 -1.6531
13192SOL    HW242897   7.703   5.619   0.297  1.2200 -2.9072  0.1737
13193SOL     OW42898   1.578   1.500   1.601 -0.1865  0.5264  0.3381
13193SOL    HW142899   1.549   1.416   1.556 -3.8261  0.5698  2.4035
13193SOL    HW242900   1.599   1.569   1.532  0.6216 -1.3572 -1.3442
13194SOL     OW42901   4.452   9.250   2.405  0.0440  0.2296  0.9905
13194SOL    HW142902   4.381   9.320   2.415 -0.6601  0.2413 -3.2756
13194SOL    HW242903   4.413   9.171   2.357  2.1731 -0.9782  1.2066
13195SOL     OW42904   8.753   7.084   6.172  0.2235 -0.4043 -0.0783
13195SOL    HW142905   8.750   6.998   6.222 -0.8998  0.4024  1.2867
13195SOL    HW242906   8.760   7.160   6.236 -1.6173  0.6714 -1.1102
13197SOL     OW42907   2.057   2.904   6.421  0.3771  0.3468  0.0236
13197SOL    HW142908   1.986   2.934   6.357  0.1511  1.2847  0.6996
13197SOL    HW242909   2.142   2.888   6.370 -0.0525  0.1523 -0.6480
13198SOL     OW42910   8.450   8.890   4.148  0.1816 -0.3973 -0.1489
13198SOL    HW142911   8.518   8.895   4.074  0.4392  0.2448  0.1234
13198SOL    HW242912   8.436   8.794   4.174  0.1545 -0.6187 -0.9681
13200SOL     OW42913   1.341   0.175   6.975  0.0846 -0.0086 -0.3111
13200SOL    HW142914   1.267   0.195   7.039  0.6889 -1.2710  0.8146
13200SOL    HW242915   1.305   0.173   6.881 -1.7362 -2.6573  0.3829
13201SOL     OW42916   2.237   4.478   3.399  0.3838  0.5626 -0.1735
13201SOL    HW142917   2.176   4.480   3.320  1.4487 -1.4856 -1.0761
13201SOL    HW242918   2.323   4.522   3.376  1.1309 -1.0573 -0.5678
13202SOL     OW42919   1.605   9.467   0.439  0.5728  0.1039 -0.3177
13202SOL    HW142920   1.587   9.565   0.447 -1.2737 -0.1547 -1.1539
13202SOL    HW242921   1.613   9.442   0.343 -0.6423 -0.8575 -0.1769
13203SOL     OW42922   6.872   7.451   5.451 -0.6126 -0.3127 -0.1070
13203SOL    HW142923   6.875   7.408   5.360 -0.9074  0.2088 -0.3687
13203SOL    HW242924   6.853   7.549   5.440 -2.6032 -0.5883  0.5928
13204SOL     OW42925   8.537   6.245   7.375  0.3666 -0.5570 -0.6504
13204SOL    HW142926   8.594   6.174   7.415 -1.0826 -1.4979 -0.1847
13204SOL    HW242927   8.449   6.206   7.349 -1.1488  1.4092  1.2641
13205SOL     OW42928   9.119   7.271   5.045  0.5810  0.4514  0.3359
13205SOL    HW142929   9.032   7.307   5.079 -0.5582 -1.4538 -0.4537
13205SOL    HW242930   9.119   7.274   4.945  1.2019 -0.0093  0.3221
13206SOL     OW42931   1.514   0.067   2.244  0.3494 -0.1976 -0.6871
13206SOL    HW142932   1.488  -0.026   2.271  0.0726  0.1671  0.3281
13206SOL    HW242933   1.539   0.120   2.325  1.1834  0.4136 -1.3347
13207SOL     OW42934   1.750   2.227   5.866  0.4428 -0.4692 -0.1489
13207SOL    HW142935   1.752   2.147   5.926  1.3703 -0.3029  0.0520
13207SOL    HW242936   1.825   2.289   5.890 -0.1056  0.3271 -0.4868
13208SOL     OW42937   2.771   3.724   5.040  0.4954 -0.1225 -0.6213
13208SOL    HW142938   2.784   3.785   5.118  2.4689 -1.0210 -0.2348
13208SOL    HW242939   2.801   3.770   4.956  1.4250 -0.3411 -0.4105
13209SOL     OW42940   9.658   7.774   7.206 -0.1072 -0.0870 -0.0131
13209SOL    HW142941   9.630   7.715   7.131  0.6868  0.7604 -0.9892
13209SOL    HW242942   9.619   7.865   7.194 -2.1480 -0.6294  2.0074
13211SOL     OW42943   7.410   9.609   4.107 -0.4135  0.3854 -0.7806
13211SOL    HW142944   7.357   9.633   4.025 -0.8799 -2.1407 -1.2574
13211SOL    HW242945   7.459   9.524   4.091  1.1322  0.9334  0.8821
13212SOL     OW42946   1.732   2.390   2.182  0.0589 -0.0798 -0.3410
13212SOL    HW142947   1.783   2.475   2.194 -0.6478  0.5208 -1.5590
13212SOL    HW242948   1.790   2.313   2.209  0.2341  0.8497  2.0843
13213SOL     OW42949   7.067   4.741   7.427  0.7436 -0.4289 -0.5134
13213SOL    HW142950   7.142   4.687   7.464  0.5156  0.0102  0.6117
13213SOL    HW242951   6.982   4.690   7.434  0.5416  0.0356  0.4712
13215SOL     OW42952   8.224   6.599   4.738 -0.0196  0.4215  0.1010
13215SOL    HW142953   8.251   6.619   4.644 -0.6048 -0.8725 -0.3567
13215SOL    HW242954   8.276   6.520   4.772 -0.8986 -0.0749  0.3251
13217SOL     OW42955   4.355   8.210   2.198 -0.7404  0.4408  0.1695
13217SOL    HW142956   4.348   8.293   2.143 -0.4014  1.3017  1.4288
13217SOL    HW242957   4.266   8.162   2.197 -0.5206  0.0231 -1.7640
13218SOL     OW42958   8.278   5.022   4.089  0.7529  0.1736 -0.4612
13218SOL    HW142959   8.219   4.958   4.041  2.4742  0.2095 -2.6958
13218SOL    HW242960   8.233   5.111   4.096 -0.9198 -0.7613  1.1134
13220SOL     OW42961   4.483   2.041   6.046  0.3966 -0.1847  0.2982
13220SOL    HW142962   4.464   1.956   5.997 -0.2708  1.2952 -2.1031
13220SOL    HW242963   4.397   2.083   6.074  0.5846  1.1603 -1.1145
13222SOL     OW42964   9.554   9.908   3.428  0.2129  0.1919  0.2844
13222SOL    HW142965   9.611   9.851   3.368  0.3871 -0.9311  1.4984
13222SOL    HW242966   9.612   9.973   3.477  0.1402  0.7240 -0.3386
13223SOL     OW42967   0.117   3.178   1.515 -0.0228 -0.1597  0.5144
13223SOL    HW142968   0.038   3.231   1.482  0.1682  0.3104  0.8110
13223SOL    HW242969   0.146   3.115   1.444 -0.0193  0.3928  0.0199
13226SOL     OW42970   8.947   6.135   6.533 -0.1658  0.0245  0.6989
13226SOL    HW142971   8.905   6.158   6.445  0.9179 -0.9380 -0.0899
13226SOL    HW242972   8.886   6.076   6.584 -0.3412 -0.2972  0.1243
13227SOL     OW42973   1.357   0.291   2.221 -0.5264 -0.2962  0.2501
13227SOL    HW142974   1.397   0.199   2.223 -0.1967 -0.1655 -0.1709
13227SOL    HW242975   1.374   0.337   2.307  2.2287  0.6000 -0.7258
13228SOL     OW42976   7.349   4.129   3.603  0.0839 -0.5967 -0.4831
13228SOL    HW142977   7.413   4.120   3.679  1.0153 -0.4738 -1.2344
13228SOL    HW242978   7.277   4.195   3.626 -0.9209 -2.2365  1.1307
13229SOL     OW42979   9.684   3.948   2.482 -0.1030 -0.2551  0.1003
13229SOL    HW142980   9.750   4.024   2.475 -1.0765  0.4928 -0.9759
13229SOL    HW242981   9.725   3.866   2.443  0.3253  0.1146 -0.2439
13230SOL     OW42982   2.512   4.570   3.333 -0.2095  0.4025  0.2296
13230SOL    HW142983   2.572   4.524   3.398  0.3480  1.1255  0.2342
13230SOL    HW242984   2.540   4.547   3.240 -2.3018 -2.3075  0.2173
13231SOL     OW42985   6.831   2.916   1.771  0.2708  0.2235  0.2687
13231SOL    HW142986   6.859   2.939   1.864 -1.9737  0.3770  0.9369
13231SOL    HW242987   6.819   3.000   1.719 -0.5587  0.2476  0.4873
13232SOL     OW42988   0.540   0.727   6.507  0.1152  0.2771 -0.3743
13232SOL    HW142989   0.529   0.705   6.410  0.4868  0.1588 -0.3917
13232SOL    HW242990   0.575   0.647   6.556 -1.4387 -0.1070  0.1257
13233SOL     OW42991   2.180   0.969   2.301 -0.8127 -0.1604  0.3120
13233SOL    HW142992   2.127   0.936   2.223  1.2258 -1.2340 -0.6791
13233SOL    HW242993   2.167   1.068   2.310 -2.1695 -0.2450 -0.5146
13234SOL     OW42994   1.378   2.395   7.814  0.2206 -0.7315  0.4196
13234SOL    HW142995   1.368   2.427   7.720  0.1324  0.6879  0.8912
13234SOL    HW242996   1.313   2.321   7.831 -0.0340 -0.7330 -0.5168
13235SOL     OW42997   8.013   7.649   3.990  0.4601 -0.0422 -0.1432
13235SOL    HW142998   8.049   7.677   4.079  0.0638  1.3726 -0.4065
13235SOL    HW242999   8.001   7.730   3.932  0.9824 -0.9773 -1.5885
13236SOL     OW43000   4.754   4.119   5.242 -0.4287  0.0448  0.2409
13236SOL    HW143001   4.803   4.205   5.262 -1.5955  1.2151 -1.7500
13236SOL    HW243002   4.688   4.101   5.314  0.1687  0.5710  0.9275
13237SOL     OW43003   3.818   0.535   5.966  0.2968 -0.3212  0.3002
13237SOL    HW143004   3.740   0.597   5.972 -0.7428 -1.4653 -0.8807
13237SOL    HW243005   3.896   0.575   6.012 -1.2151  0.4953  2.2268
13239SOL     OW43006   5.921   5.792   0.802  0.0574 -0.2123 -0.9332
13239SOL    HW143007   5.884   5.705   0.768  1.7387 -0.8954 -1.0438
13239SOL    HW243008   6.021   5.790   0.798  0.1058  1.9284 -1.4005
13240SOL     OW43009   0.663   5.055   0.723  0.3511 -0.2781 -0.5180
13240SOL    HW143010   0.614   5.059   0.810 -0.6077  0.6316 -1.0816
13240SOL    HW243011   0.627   4.979   0.668 -0.6913  0.6049 -1.0738
13241SOL     OW43012   9.099   5.033   0.721 -0.0538  0.1839 -0.4988
13241SOL    HW143013   9.185   5.058   0.765 -0.9169 -0.4837  1.6439
13241SOL    HW243014   9.089   5.084   0.635  1.4169  1.9522  0.3460
13242SOL     OW43015   2.935   0.872   2.793  0.0187  0.0202 -0.2881
13242SOL    HW143016   2.938   0.929   2.711  3.0912 -0.3637 -0.5046
13242SOL    HW243017   2.876   0.792   2.775 -0.2909  0.5424 -1.6881
13243SOL     OW43018   4.552   2.055   0.362 -0.2005  0.1039  0.3266
13243SOL    HW143019   4.509   1.990   0.299  2.3343  0.3980 -1.7854
13243SOL    HW243020   4.488   2.130   0.381 -1.6648 -0.9307 -0.4043
13244SOL     OW43021   3.054   3.811   3.354 -0.1962 -0.2524  0.2426
13244SOL    HW143022   3.024   3.829   3.448 -0.2207  1.9308 -0.1737
13244SOL    HW243023   3.138   3.861   3.336 -0.4212 -0.3342 -1.0439
13247SOL     OW43024   3.452   0.121   3.910 -0.5167  0.1042  0.1089
13247SOL    HW143025   3.362   0.078   3.897  0.3361 -1.5108 -0.6254
13247SOL    HW243026   3.498   0.079   3.987  0.4984 -0.5928 -0.8721
13248SOL     OW43027   1.328   1.212   1.754  0.3311  0.2024  0.1200
13248SOL    HW143028   1.285   1.300   1.734  0.8852  0.4391 -0.0200
13248SOL    HW243029   1.405   1.226   1.817  0.2407 -0.2156  0.3225
13249SOL     OW43030   8.909   4.374   4.853 -0.2607 -0.2581 -0.0603
13249SOL    HW143031   8.859   4.290   4.836  0.2419 -0.6123  0.1818
13249SOL    HW243032   8.845   4.450   4.861 -0.7586 -0.7006  0.2405
13250SOL     OW43033   2.751   6.173   4.213 -0.8278 -0.4569 -0.0728
13250SOL    HW143034   2.751   6.131   4.122 -0.2796  0.5325 -0.5299
13250SOL    HW243035   2.659   6.168   4.252 -0.8561 -1.7326 -0.2830
13251SOL     OW43036   3.778   9.825   6.944  0.6302 -0.4024  0.5603
13251SOL    HW143037   3.845   9.894   6.918 -0.1176  0.3941  0.7294
13251SOL    HW243038   3.774   9.754   6.874 -0.3117  0.9631 -0.8030
13253SOL     OW43039   0.515   6.670   2.666 -0.3141 -0.6597 -0.2135
13253SOL    HW143040   0.453   6.593   2.672 -0.0757 -0.8584 -0.2982
13253SOL    HW243041   0.527   6.711   2.756 -2.7465  1.0997 -0.6398
13254SOL     OW43042   0.101   8.845   5.152 -0.2481  0.0339 -0.4386
13254SOL    HW143043   0.032   8.792   5.103 -1.8274  0.9738  0.7447
13254SOL    HW243044   0.072   8.860   5.246  0.6058  2.1656 -0.4769
13255SOL     OW43045   3.366   0.120   7.790 -0.6441  0.3454 -0.0749
13255SOL    HW143046   3.280   0.172   7.782 -0.7874  0.1080 -0.0658
13255SOL    HW243047   3.371   0.077   7.879 -0.5452  0.3018 -0.1017
13256SOL     OW43048   7.354   1.945   4.955  0.1725 -0.0395  0.4992
13256SOL    HW143049   7.330   1.861   5.004 -0.4711  0.3133  0.8039
13256SOL    HW243050   7.305   2.022   4.996  0.6645  0.4663  0.1447
13257SOL     OW43051   9.872   9.878   0.709  0.1694 -0.0623 -0.2197
13257SOL    HW143052   9.969   9.871   0.731  0.1224 -4.5627 -0.9554
13257SOL    HW243053   9.860   9.870   0.610 -0.9939 -0.1336 -0.0824
13258SOL     OW43054   0.592   5.324   4.680  0.1401 -0.2075  0.2487
13258SOL    HW143055   0.585   5.376   4.595 -1.5293  1.0425  1.1413
13258SOL    HW243056   0.526   5.358   4.746  1.0140 -1.5672  1.8601
13259SOL     OW43057   3.951   7.185   4.615  0.1480  0.9630  0.3940
13259SOL    HW143058   4.018   7.151   4.549  0.1138  0.3694  0.6620
13259SOL    HW243059   3.863   7.138   4.601 -0.3286  2.0164 -0.2141
13260SOL     OW43060   9.137   9.721   6.884 -0.3276  0.1346 -0.0126
13260SOL    HW143061   9.140   9.644   6.947 -1.7078  0.3096  0.2697
13260SOL    HW243062   9.162   9.690   6.792  1.2463 -0.2023  0.5190
13261SOL     OW43063   2.240   3.572   4.402 -0.1525  0.5435 -0.2013
13261SOL    HW143064   2.228   3.490   4.347 -0.4374  0.5369 -0.1268
13261SOL    HW243065   2.275   3.547   4.493  0.1025  0.5367 -0.2997
13263SOL     OW43066   5.815   5.116   0.144  0.0657 -0.5354  0.0312
13263SOL    HW143067   5.717   5.105   0.127  0.1468  1.1383 -1.6329
13263SOL    HW243068   5.837   5.080   0.235 -2.1812 -0.4909  0.6265
13264SOL     OW43069   9.123   5.223   0.493  0.2817  0.4068 -0.4946
13264SOL    HW143070   9.191   5.192   0.426 -2.2124 -3.1467 -1.5124
13264SOL    HW243071   9.049   5.271   0.445 -0.6351 -0.5750 -0.0583
13265SOL     OW43072   7.844   6.919   1.068 -0.1477 -0.4503  0.3977
13265SOL    HW143073   7.872   7.012   1.093 -0.1657 -0.6156  1.0408
13265SOL    HW243074   7.772   6.888   1.130 -0.6331 -0.6324 -0.2560
13266SOL     OW43075   0.617   1.521   5.168  0.3905  0.2480 -0.7761
13266SOL    HW143076   0.596   1.586   5.095  0.2520  2.7949  1.4488
13266SOL    HW243077   0.716   1.507   5.173  0.2826 -1.2562 -2.5183
13267SOL     OW43078   8.528   1.119   6.116 -0.7168 -0.2817  0.0225
13267SOL    HW143079   8.502   1.036   6.167  1.7290 -1.1960 -0.1844
13267SOL    HW243080   8.598   1.097   6.049  1.7807  2.4158  1.6619
13268SOL     OW43081   1.037   3.919   2.540  0.3835 -0.7271 -0.0117
13268SOL    HW143082   1.055   3.991   2.607  0.1732 -2.3784  1.8531
13268SOL    HW243083   0.999   3.960   2.457  0.7601  1.3597  0.8168
13269SOL     OW43084   1.183   2.062   3.913  0.3491  0.5133  0.3867
13269SOL    HW143085   1.215   2.152   3.884  0.9073  0.6622  1.4483
13269SOL    HW243086   1.209   2.046   4.008 -1.5484  0.0874  0.8685
13270SOL     OW43087   8.451   5.212   7.168 -0.1474 -0.0434  0.2744
13270SOL    HW143088   8.499   5.262   7.096 -0.4123  0.1884  0.2588
13270SOL    HW243089   8.501   5.128   7.189 -0.8241 -0.8209 -1.1742
13273SOL     OW43090   8.369   6.184   5.864 -0.0281  0.3658 -0.4260
13273SOL    HW143091   8.312   6.114   5.908  0.9831 -0.9083 -1.0996
13273SOL    HW243092   8.387   6.258   5.928 -1.5520  0.2747  0.1366
13274SOL     OW43093   0.301   8.356   6.054 -0.0037 -0.1359  0.3395
13274SOL    HW143094   0.236   8.350   5.978  0.1395 -1.6146  0.3265
13274SOL    HW243095   0.394   8.349   6.019  0.1526  1.2036  0.4460
13275SOL     OW43096   9.487   3.809   2.127  0.2504  0.3299 -0.0921
13275SOL    HW143097   9.462   3.784   2.034 -2.0377  0.4139  0.4728
13275SOL    HW243098   9.535   3.732   2.170  0.3047 -0.1231 -0.9470
13278SOL     OW43099   4.420   8.078   4.221 -0.0867 -0.1039 -0.6591
13278SOL    HW143100   4.497   8.045   4.277 -0.0055 -0.3787 -0.9354
13278SOL    HW243101   4.345   8.012   4.226 -0.8657  0.8734  0.8019
13279SOL     OW43102   0.233   3.684   7.284  0.1357  0.2828  0.4047
13279SOL    HW143103   0.195   3.662   7.374  1.1606 -0.8790  0.5721
13279SOL    HW243104   0.213   3.609   7.220 -0.0258  0.8049 -0.1573
13280SOL     OW43105   8.029   1.422   4.474 -0.0969 -0.2479  0.3915
13280SOL    HW143106   8.114   1.474   4.467 -0.5943  0.8361  2.0674
13280SOL    HW243107   8.039   1.334   4.426  1.4458  0.5037 -0.6961
13281SOL     OW43108   4.513   5.616   3.148  0.4951  0.6353  0.7466
13281SOL    HW143109   4.493   5.624   3.246  2.0836 -0.4410  1.1918
13281SOL    HW243110   4.437   5.570   3.102  0.8022 -1.1485  1.9368
13282SOL     OW43111   3.755   1.820   7.756  0.3032 -0.1932 -0.2448
13282SOL    HW143112   3.842   1.776   7.732  0.2074 -0.4697 -0.0935
13282SOL    HW243113   3.697   1.754   7.804 -0.1201 -0.1087 -0.6428
13283SOL     OW43114   0.339   5.507   2.789  0.3673  0.1906  0.0187
13283SOL    HW143115   0.324   5.501   2.690 -0.5498 -0.6604  0.2080
13283SOL    HW243116   0.288   5.585   2.825 -0.0707 -0.0849 -0.0167
13285SOL     OW43117   7.288   4.498   3.299 -0.7834  0.0847 -0.5123
13285SOL    HW143118   7.387   4.485   3.301 -0.5414  1.9325  0.4644
13285SOL    HW243119   7.267   4.595   3.281 -2.3889 -0.0788  0.3660
13286SOL     OW43120   6.404   0.189   6.175 -0.1223  0.3591 -0.1861
13286SOL    HW143121   6.472   0.162   6.243 -0.6268 -1.9813 -0.5528
13286SOL    HW243122   6.389   0.288   6.179  1.4550  0.5438  1.5888
13287SOL     OW43123   2.430   8.105   7.650 -0.6433  0.2690  0.2140
13287SOL    HW143124   2.420   8.124   7.747 -1.4339 -0.2201  0.2351
13287SOL    HW243125   2.526   8.113   7.624 -0.6938  2.3921  0.6022
13289SOL     OW43126   0.096   2.029   7.755 -0.5261  0.0357  0.3653
13289SOL    HW143127   0.140   1.955   7.704 -1.3424 -0.0153 -0.2704
13289SOL    HW243128  -0.003   2.015   7.756 -0.7582  1.5180 -0.4349
13290SOL     OW43129   2.006   1.667   3.077  0.2261 -0.4099  0.2921
13290SOL    HW143130   2.072   1.649   3.150  1.2726 -0.7177 -0.7135
13290SOL    HW243131   1.920   1.620   3.097  1.3407 -2.6209  0.0729
13291SOL     OW43132   0.529   6.548   5.661  0.4612 -0.3667  0.1335
13291SOL    HW143133   0.619   6.522   5.625  0.8029  0.9540  0.0115
13291SOL    HW243134   0.499   6.633   5.618  0.2584  0.5052  1.9525
13292SOL     OW43135   8.152   9.037   4.622  0.1084 -0.3740  0.2937
13292SOL    HW143136   8.082   8.980   4.664  1.4574 -0.8825  1.8742
13292SOL    HW243137   8.116   9.129   4.607 -1.1890 -0.8887  0.2255
13293SOL     OW43138   8.514   4.900   4.106 -0.1704 -0.6134 -0.6480
13293SOL    HW143139   8.541   4.872   4.014  0.0239 -1.2928 -0.3806
13293SOL    HW243140   8.432   4.958   4.100 -0.3201 -0.8825 -1.2274
13294SOL     OW43141   9.232   7.882   2.564 -0.2767  0.2556  0.1432
13294SOL    HW143142   9.310   7.945   2.560 -0.3432  0.3782  0.6890
13294SOL    HW243143   9.249   7.814   2.635  0.2016 -0.8972 -1.0654
13295SOL     OW43144   5.653   7.917   4.064 -0.1740  0.4283 -0.2010
13295SOL    HW143145   5.669   8.004   4.018 -0.5869  0.3588 -0.4769
13295SOL    HW243146   5.637   7.846   3.996  0.5062  0.0668  0.0138
13296SOL     OW43147   9.462   1.481   1.594  0.1110  0.3267  0.7817
13296SOL    HW143148   9.383   1.540   1.576 -0.2304 -0.4003 -0.1908
13296SOL    HW243149   9.433   1.385   1.588  1.1355  0.0545  0.0939
13297SOL     OW43150   9.713   7.955   4.850 -0.2141 -0.0208 -0.4823
13297SOL    HW143151   9.710   7.981   4.947 -0.9819 -0.0358 -0.5040
13297SOL    HW243152   9.738   7.858   4.843  2.5177  0.6340 -0.3983
13298SOL     OW43153   6.268   0.505   2.867  0.0604 -0.0671 -0.1671
13298SOL    HW143154   6.177   0.516   2.829  0.1623 -0.2469 -0.4634
13298SOL    HW243155   6.283   0.408   2.890 -0.5998  0.2874  1.8258
13299SOL     OW43156   5.503   7.621   5.098 -0.1278 -0.8969 -0.1340
13299SOL    HW143157   5.410   7.658   5.106  0.9594  2.6713 -2.3847
13299SOL    HW243158   5.559   7.654   5.174 -0.2020 -1.3975  0.1390
13300SOL     OW43159   7.374   0.051   5.384 -0.4004  0.3361 -0.0736
13300SOL    HW143160   7.322   0.060   5.470  1.6410  0.8042  1.1310
13300SOL    HW243161   7.468   0.081   5.398  0.5656 -1.7001 -1.9183
13301SOL     OW43162   2.260   4.917   2.436  0.9526 -0.0569 -0.2196
13301SOL    HW143163   2.195   4.846   2.411  1.4681 -1.0990  1.3120
13301SOL    HW243164   2.316   4.941   2.357 -0.7118  0.2699 -1.3370
13302SOL     OW43165   0.416   5.458   7.690 -0.0434  0.0760 -0.8160
13302SOL    HW143166   0.394   5.503   7.604  0.4782  0.2245 -0.8749
13302SOL    HW243167   0.484   5.386   7.674 -0.5044 -0.4034 -0.6446
13303SOL     OW43168   9.294   6.141   1.973 -0.1328 -0.1564  0.6079
13303SOL    HW143169   9.277   6.067   2.038  1.9125 -1.8737 -0.7330
13303SOL    HW243170   9.293   6.228   2.020 -3.0380 -0.9749  2.1578
13304SOL     OW43171   4.651   1.351   0.781  0.2458  0.4305 -0.2204
13304SOL    HW143172   4.655   1.392   0.690  0.5670  0.4407 -0.2054
13304SOL    HW243173   4.606   1.414   0.845 -0.9118 -0.0091 -0.5953
13306SOL     OW43174   7.098   1.099   7.941  0.2424  0.0286 -0.2296
13306SOL    HW143175   7.089   1.189   7.982 -0.0380  0.2398 -0.7555
13306SOL    HW243176   7.188   1.091   7.897 -0.1342  0.4117 -1.0652
13307SOL     OW43177   0.456   0.062   2.720  0.8887 -0.4879 -0.2428
13307SOL    HW143178   0.360   0.073   2.746  1.1673 -0.4991  0.7726
13307SOL    HW243179   0.497   0.151   2.702  1.0844 -0.3737  0.7391
13308SOL     OW43180   7.273   2.659   4.626  0.3779 -0.3274 -1.2716
13308SOL    HW143181   7.299   2.752   4.599 -0.1391 -0.0289 -0.7589
13308SOL    HW243182   7.352   2.613   4.667  0.1853  0.4961  0.0681
13309SOL     OW43183   3.215   0.560   1.361 -0.1188 -0.5598  0.4226
13309SOL    HW143184   3.161   0.536   1.442 -0.9277  0.0704  0.0792
13309SOL    HW243185   3.155   0.601   1.292  0.5303 -1.2553 -0.5721
13310SOL     OW43186   8.667   6.359   0.223  0.9331  0.3356 -0.0047
13310SOL    HW143187   8.595   6.320   0.281  0.1132  0.8927 -0.6364
13310SOL    HW243188   8.755   6.315   0.245  0.6883  0.7359  1.8319
13312SOL     OW43189   3.314   6.226   3.886 -0.3738  0.2158 -0.6360
13312SOL    HW143190   3.230   6.212   3.938  0.1414  0.8883  0.4076
13312SOL    HW243191   3.383   6.159   3.916  0.6508  2.0292  1.1743
13313SOL     OW43192   1.607   8.017   3.699 -0.0487  0.5003  0.0401
13313SOL    HW143193   1.587   7.938   3.641 -1.3705  0.5545  0.4093
13313SOL    HW243194   1.656   8.086   3.645 -0.3120  0.1000 -0.7139
13314SOL     OW43195   0.803   4.203   1.574  0.0187  0.5525 -0.0556
13314SOL    HW143196   0.765   4.272   1.636  0.5076  0.2797  0.5547
13314SOL    HW243197   0.812   4.242   1.482 -1.2355  0.7852 -0.0894
13315SOL     OW43198   8.591   0.107   1.501 -0.3034  0.0630 -0.4447
13315SOL    HW143199   8.567   0.202   1.519 -1.8206 -0.3559 -0.2172
13315SOL    HW243200   8.558   0.082   1.410 -0.9638 -0.5935 -0.0270
13316SOL     OW43201   9.352   8.954   7.538 -0.2976 -0.0354  0.4819
13316SOL    HW143202   9.297   8.871   7.527  0.1639 -0.3327  0.3879
13316SOL    HW243203   9.346   9.009   7.455  1.8507 -1.4632 -0.6628
13317SOL     OW43204   4.114   2.921   6.359  0.1834  0.3449 -0.2341
13317SOL    HW143205   4.030   2.972   6.377  0.7831  1.7235 -1.2841
13317SOL    HW243206   4.095   2.845   6.298 -0.8097 -1.0201  1.7193
13318SOL     OW43207   9.513   9.784   5.877 -0.0492  0.0556  0.3169
13318SOL    HW143208   9.526   9.845   5.956  1.0810  0.0866  0.1121
13318SOL    HW243209   9.437   9.818   5.821 -1.1581 -0.2173  1.6261
13320SOL     OW43210   2.400   4.492   2.005 -0.6274 -0.3802  0.4079
13320SOL    HW143211   2.391   4.459   1.911 -0.5981 -1.2409  0.7050
13320SOL    HW243212   2.496   4.513   2.024 -0.6237 -0.2705  0.2718
13321SOL     OW43213   3.969   4.432   2.062  0.1051 -0.3935 -0.1193
13321SOL    HW143214   3.874   4.411   2.040 -0.4782  1.6458  0.3315
13321SOL    HW243215   4.024   4.349   2.057 -1.4745 -1.3790 -1.5809
13322SOL     OW43216   8.103   5.102   7.639  0.4865 -0.1190 -0.0137
13322SOL    HW143217   8.040   5.029   7.612  1.6921 -0.7682 -1.1290
13322SOL    HW243218   8.181   5.105   7.576  0.7327  1.7895  0.3410
13323SOL     OW43219   4.248   9.707   5.592  0.4600 -0.4329 -0.3705
13323SOL    HW143220   4.193   9.790   5.589  0.9061 -0.0656  1.2007
13323SOL    HW243221   4.345   9.730   5.582  0.9032 -0.3704  3.5641
13324SOL     OW43222   8.136   1.356   5.847  0.1040  0.0850  0.3646
13324SOL    HW143223   8.190   1.336   5.929  0.5497  2.5911  0.7165
13324SOL    HW243224   8.181   1.317   5.767  0.7421 -0.6192  1.0558
13325SOL     OW43225   0.152   5.760   3.688 -0.7634  0.7316  0.0068
13325SOL    HW143226   0.240   5.738   3.731 -0.1192  1.1563 -1.0673
13325SOL    HW243227   0.121   5.850   3.721  0.4426  1.7185 -1.4754
13327SOL     OW43228   0.801   4.259   0.526  0.3635 -0.0192 -0.0060
13327SOL    HW143229   0.896   4.268   0.555  0.7590 -1.6755 -0.7081
13327SOL    HW243230   0.795   4.188   0.456 -1.5241 -0.5159  0.6421
13328SOL     OW43231   8.951   2.845   2.200 -0.6103 -0.4045 -0.4498
13328SOL    HW143232   8.938   2.761   2.146  0.2586 -0.6181 -0.3283
13328SOL    HW243233   8.864   2.894   2.206 -0.2589  0.8019 -4.0259
13329SOL     OW43234   8.036   5.396   6.590 -0.0232  0.8083 -0.2005
13329SOL    HW143235   8.056   5.344   6.507  0.8559  0.3007  0.3241
13329SOL    HW243236   7.947   5.368   6.626  0.5206 -0.4808  0.1820
13330SOL     OW43237   9.161   5.601   1.082 -0.0101 -0.1968 -0.6548
13330SOL    HW143238   9.218   5.568   1.157  0.0128  0.2961 -0.4556
13330SOL    HW243239   9.088   5.535   1.065  1.8375 -1.8687 -2.3131
13331SOL     OW43240   6.346   5.868   1.020 -0.4372 -0.3285 -0.0467
13331SOL    HW143241   6.434   5.884   0.976  0.2767 -1.3658  0.9720
13331SOL    HW243242   6.285   5.820   0.957  0.8987 -2.6556  0.3937
13333SOL     OW43243   5.548   7.469   4.896 -0.3066  0.2478  0.2180
13333SOL    HW143244   5.521   7.507   4.985 -0.9063  0.4917 -0.0672
13333SOL    HW243245   5.564   7.543   4.831 -1.2778  0.0337 -0.2814
13334SOL     OW43246   6.038   2.429   2.328 -0.0285  0.1366 -0.5025
13334SOL    HW143247   6.006   2.509   2.377  0.1355  0.3171 -0.6906
13334SOL    HW243248   6.062   2.357   2.393 -2.3938 -0.6110 -0.3915
13335SOL     OW43249   1.978   5.282   4.495  0.0151 -0.0839  0.5115
13335SOL    HW143250   1.899   5.343   4.487  1.2504  1.3466 -1.1570
13335SOL    HW243251   2.060   5.335   4.514  0.8874 -1.3810  0.4617
13336SOL     OW43252   4.557   2.768   5.421  0.1638  0.4992  0.0519
13336SOL    HW143253   4.564   2.834   5.496  0.4230 -0.4108  0.8510
13336SOL    HW243254   4.468   2.722   5.426 -1.3588  3.0562 -2.4456
13337SOL     OW43255   0.018   8.034   5.960  0.1527  0.4233 -1.0321
13337SOL    HW143256   0.106   7.990   5.978  0.0636 -0.0998 -1.8360
13337SOL    HW243257   0.011   8.056   5.862 -0.2462  1.2599 -0.8235
13338SOL     OW43258   7.598   0.435   4.430 -0.1676  0.5334 -0.4160
13338SOL    HW143259   7.662   0.379   4.483  0.2877  0.4334 -1.0667
13338SOL    HW243260   7.551   0.378   4.363 -3.9156 -0.2318  2.7082
13339SOL     OW43261   6.453   9.685   6.303  0.0156 -0.2874  0.4840
13339SOL    HW143262   6.527   9.726   6.249 -1.1874  0.5692 -0.5533
13339SOL    HW243263   6.428   9.748   6.377  1.5919 -1.4146  2.0347
13341SOL     OW43264   0.471   8.981   5.904  0.8828  0.5769 -0.4593
13341SOL    HW143265   0.470   8.965   6.003  0.7979 -1.1408 -0.7169
13341SOL    HW243266   0.453   9.078   5.886  0.8578  0.9062  1.1974
13342SOL     OW43267   2.291   9.076   5.645  0.2210 -0.0252 -0.6570
13342SOL    HW143268   2.255   8.990   5.609  0.6198 -0.3917 -0.1889
13342SOL    HW243269   2.276   9.079   5.743 -1.0098  1.0444 -0.8641
13343SOL     OW43270   8.428   9.128   0.185  0.6223 -0.4323  0.2322
13343SOL    HW143271   8.467   9.143   0.276 -0.9811 -1.1883  1.0672
13343SOL    HW243272   8.404   9.216   0.144  0.7214 -0.1283  0.8221
13344SOL     OW43273   7.001   2.744   4.542 -0.6044 -0.7109  0.0002
13344SOL    HW143274   7.093   2.710   4.561  1.3741  3.0049 -2.4325
13344SOL    HW243275   6.974   2.717   4.450 -0.9940  0.1375 -0.1392
13345SOL     OW43276   6.959   8.740   7.232  0.0778 -0.2876  0.3989
13345SOL    HW143277   7.024   8.739   7.156 -0.6295  2.2310 -0.2899
13345SOL    HW243278   6.866   8.728   7.197 -0.1271 -0.6080  1.0380
13347SOL     OW43279   5.080   3.672   7.271 -0.2233  0.7090 -0.3336
13347SOL    HW143280   5.122   3.687   7.181 -1.1500  1.5212 -0.6394
13347SOL    HW243281   5.020   3.749   7.293 -0.5849  0.1534  0.6524
13348SOL     OW43282   8.524   3.983   6.796  0.2497 -0.3860 -0.2966
13348SOL    HW143283   8.567   3.997   6.885  0.7225  1.7506 -0.8412
13348SOL    HW243284   8.515   3.885   6.779  3.1231 -0.8710  0.6924
13349SOL     OW43285   9.484   1.925   1.328  0.0296 -0.3539 -0.2152
13349SOL    HW143286   9.541   1.852   1.367  1.5786  1.3526  0.7868
13349SOL    HW243287   9.472   1.909   1.230  1.0345 -1.5166 -0.1588
13350SOL     OW43288   4.214   8.840   6.263  0.3208  0.0262  0.0841
13350SOL    HW143289   4.139   8.860   6.199  1.7120 -0.8923 -1.8880
13350SOL    HW243290   4.282   8.913   6.257  0.8092 -0.4375 -0.0295
13351SOL     OW43291   3.352   4.356   6.273  0.1401 -0.2017  0.2693
13351SOL    HW143292   3.365   4.307   6.359 -0.8228  1.0027  1.1063
13351SOL    HW243293   3.326   4.450   6.291 -0.0551  0.0758 -1.3450
13352SOL     OW43294   1.283   6.269   5.395 -0.4244  0.2603 -0.2670
13352SOL    HW143295   1.276   6.328   5.315 -0.0098  0.1787 -0.3693
13352SOL    HW243296   1.371   6.220   5.392 -0.1630  0.6637  0.5141
13353SOL     OW43297   4.087   3.437   1.553 -0.1834 -0.3252  0.2539
13353SOL    HW143298   4.028   3.510   1.520 -0.9208 -0.8887  0.3106
13353SOL    HW243299   4.179   3.449   1.516 -0.3964  0.4029 -0.0540
13354SOL     OW43300   1.893   4.169   5.864 -0.4975 -0.3739  0.0632
13354SOL    HW143301   1.829   4.232   5.908  0.9666  1.3649 -0.2182
13354SOL    HW243302   1.858   4.143   5.774 -0.0293  1.9425 -0.8238
13356SOL     OW43303   3.133   1.841   2.809  0.3611 -0.1067  0.0735
13356SOL    HW143304   3.045   1.849   2.763  0.9994 -0.7091 -1.2549
13356SOL    HW243305   3.200   1.899   2.763  0.5038  0.8923  1.4990
13358SOL     OW43306   2.301   8.622   7.795  0.4586 -0.2956  0.3511
13358SOL    HW143307   2.263   8.571   7.872  1.3424 -1.1624  0.2147
13358SOL    HW243308   2.368   8.688   7.829 -0.6159  0.7263  0.5180
13359SOL     OW43309   9.540   0.203   7.324 -0.1844  0.1603  0.1008
13359SOL    HW143310   9.567   0.138   7.253  0.6413  1.5529 -0.8873
13359SOL    HW243311   9.561   0.296   7.293 -1.6399  0.9202  1.3560
13360SOL     OW43312   6.471   2.715   0.940  0.1270 -0.4957 -0.0858
13360SOL    HW143313   6.557   2.761   0.958  0.4430 -1.2790  0.4306
13360SOL    HW243314   6.420   2.766   0.870  0.7471  0.2752  0.0163
13361SOL     OW43315   9.575   7.825   3.435 -0.2771 -0.3909 -0.5192
13361SOL    HW143316   9.580   7.823   3.535  1.0178  1.0828 -0.5249
13361SOL    HW243317   9.536   7.739   3.402 -3.0571  0.0759  1.3486
13362SOL     OW43318   9.807   3.578   0.140 -0.5053 -0.2926  0.3210
13362SOL    HW143319   9.901   3.603   0.165  0.1233 -1.5085 -0.7568
13362SOL    HW243320   9.745   3.651   0.167  0.9792  1.3578 -0.5913
13363SOL     OW43321   0.114   7.973   4.409  0.0332 -0.2894 -0.2358
13363SOL    HW143322   0.136   7.921   4.327 -0.3630 -1.4757  0.3933
13363SOL    HW243323   0.101   7.910   4.486  3.8987  0.9374  1.5719
13364SOL     OW43324   9.520   3.902   5.199  0.4617 -0.5177  0.5791
13364SOL    HW143325   9.463   3.820   5.207 -0.0911 -0.1198  0.7521
13364SOL    HW243326   9.485   3.973   5.260  0.3985  0.1562 -0.2381
13365SOL     OW43327   6.525   9.340   5.536 -0.0354 -0.2083  0.0044
13365SOL    HW143328   6.457   9.310   5.469 -1.2974 -1.3164  1.7406
13365SOL    HW243329   6.540   9.438   5.525 -3.0596  0.3640  0.5685
13366SOL     OW43330   9.983   3.102   2.709 -0.2997 -0.8547 -0.4518
13366SOL    HW143331   9.906   3.042   2.689 -0.3664 -0.3991 -1.5998
13366SOL    HW243332  10.066   3.064   2.669  0.1774 -1.6114  1.2236
13368SOL     OW43333   4.673   7.512   2.545  0.2269  0.6766 -0.0079
13368SOL    HW143334   4.761   7.465   2.541 -0.2345 -0.2780  0.8067
13368SOL    HW243335   4.653   7.536   2.640 -0.0086  1.6271 -0.2991
13369SOL     OW43336   9.801   3.278   6.866 -0.0323 -0.0487 -0.6644
13369SOL    HW143337   9.850   3.346   6.922  1.8333 -1.7231 -0.1914
13369SOL    HW243338   9.812   3.300   6.769  2.2127 -0.7338 -0.5872
13370SOL     OW43339   9.756   9.097   2.473 -0.0929 -0.0648 -0.2088
13370SOL    HW143340   9.692   9.066   2.544 -0.4801  1.8027  0.2867
13370SOL    HW243341   9.832   9.144   2.516  0.9997 -1.1785 -0.8894
13371SOL     OW43342   0.712   6.981   4.733 -0.4411 -0.3179 -0.2789
13371SOL    HW143343   0.789   7.028   4.775 -0.0753 -1.6727  0.5733
13371SOL    HW243344   0.738   6.947   4.643 -0.5337  0.5861 -0.6554
13372SOL     OW43345   3.173   6.835   6.523  0.0339 -0.3251  0.0660
13372SOL    HW143346   3.213   6.782   6.598 -0.6514  0.4482  0.9870
13372SOL    HW243347   3.239   6.841   6.447  1.9838  1.6019  1.8598
13373SOL     OW43348   0.173   8.806   7.081 -0.2159 -0.0701  0.1119
13373SOL    HW143349   0.235   8.806   7.003  0.3323  0.8337  0.5308
13373SOL    HW243350   0.220   8.767   7.160 -0.6935 -0.7732  0.0483
13375SOL     OW43351   5.424   1.573   1.220  0.2340 -0.0516  0.3805
13375SOL    HW143352   5.407   1.672   1.223 -1.6896 -0.3445 -0.0918
13375SOL    HW243353   5.339   1.525   1.241  0.0266 -1.6334 -3.7217
13376SOL     OW43354   2.765   7.867   3.531 -0.4651 -0.0930  0.5113
13376SOL    HW143355   2.797   7.962   3.533  0.4640 -0.3251 -1.5852
13376SOL    HW243356   2.769   7.833   3.437 -4.2016 -1.0813  0.6353
13377SOL     OW43357   7.102   0.667   2.370 -0.2181  0.5483 -0.5663
13377SOL    HW143358   7.064   0.611   2.297 -0.3714 -0.3317  0.1721
13377SOL    HW243359   7.074   0.629   2.459  1.8422  0.2549 -0.0196
13378SOL     OW43360   8.941   2.355   3.020 -0.0092  0.6863  0.3452
13378SOL    HW143361   8.973   2.287   3.086 -2.0923 -0.5022  0.1876
13378SOL    HW243362   9.019   2.396   2.974  1.3270 -1.0513  1.0063
13379SOL     OW43363   4.439   2.167   7.761 -0.1041  0.2017  0.2451
13379SOL    HW143364   4.394   2.102   7.823  2.0387 -1.4302  0.1547
13379SOL    HW243365   4.538   2.154   7.765  0.1868  1.4710 -1.9947
13380SOL     OW43366   3.065   6.594   1.726 -0.4471  0.0172 -0.6363
13380SOL    HW143367   3.054   6.536   1.807 -1.5438  1.2747  0.1523
13380SOL    HW243368   2.998   6.569   1.657  0.0553 -0.6239 -0.8949
13381SOL     OW43369   1.871   9.780   6.895 -0.1320 -0.7937 -0.3789
13381SOL    HW143370   1.954   9.751   6.942  0.1775 -0.8172 -0.9346
13381SOL    HW243371   1.791   9.759   6.951  0.2714 -0.3385  0.3648
13383SOL     OW43372   3.453   4.779   4.566  0.1213 -0.3533  0.1222
13383SOL    HW143373   3.414   4.834   4.640  0.6090  0.3407 -0.1352
13383SOL    HW243374   3.505   4.703   4.605  0.9919  0.4338  0.5120
13384SOL     OW43375   1.359   5.997   0.450  0.3773  0.1025  0.2875
13384SOL    HW143376   1.309   6.001   0.363 -0.9034 -1.2301  0.9458
13384SOL    HW243377   1.420   5.918   0.450  3.3940  2.3292 -0.9490
13386SOL     OW43378   7.926   0.588   5.895 -0.0425  0.1082  0.5884
13386SOL    HW143379   7.995   0.519   5.873  0.8900  0.7540  1.3874
13386SOL    HW243380   7.923   0.657   5.822  1.5857  1.1466  1.4694
13387SOL     OW43381   2.073   9.909   0.836  0.0516 -0.0536  0.1619
13387SOL    HW143382   2.038  10.000   0.859 -1.3992 -0.4690 -0.3480
13387SOL    HW243383   2.022   9.872   0.759 -0.2644 -1.8256  1.1803
13390SOL     OW43384   9.688   8.927   5.426 -0.3610 -0.5274  0.0535
13390SOL    HW143385   9.707   8.853   5.490 -1.8236 -0.7471  0.2432
13390SOL    HW243386   9.743   9.007   5.449 -1.0806 -0.5099  1.7518
13391SOL     OW43387   3.067   3.925   7.409  0.2148  0.0685 -0.2073
13391SOL    HW143388   2.986   3.973   7.374  0.5250  0.7312 -0.0208
13391SOL    HW243389   3.148   3.983   7.397  0.4793 -0.1069  0.6776
13392SOL     OW43390   7.438   8.442   3.966 -0.4160  0.5217  0.0273
13392SOL    HW143391   7.414   8.381   3.890 -0.3254  0.6796 -0.1282
13392SOL    HW243392   7.355   8.461   4.019 -0.1334 -1.0908  1.0779
13393SOL     OW43393   2.131   9.421   4.682  0.1102 -0.9301 -0.3459
13393SOL    HW143394   2.151   9.355   4.609  2.3796 -0.6257 -0.0339
13393SOL    HW243395   2.173   9.509   4.660 -0.3893 -0.4286  0.6592
13394SOL     OW43396   0.830   6.353   6.023  0.4649  0.0465  0.3052
13394SOL    HW143397   0.841   6.383   5.928  0.5311  0.2982  0.3934
13394SOL    HW243398   0.919   6.330   6.062  0.2648 -1.7227 -0.2414
13395SOL     OW43399   9.703   7.975   1.162  0.1708 -0.1249 -0.0868
13395SOL    HW143400   9.652   8.015   1.238  3.2147  1.2348  1.3522
13395SOL    HW243401   9.699   7.875   1.167 -0.7648 -0.0290  1.0841
13396SOL     OW43402   6.654   3.024   2.572 -0.3763  0.4108 -0.0035
13396SOL    HW143403   6.580   2.958   2.556 -0.8924  1.0488 -0.3030
13396SOL    HW243404   6.705   3.037   2.487  0.8731 -0.9670  0.5202
13397SOL     OW43405   1.612   8.442   6.554 -0.0608 -0.3039 -0.2673
13397SOL    HW143406   1.517   8.444   6.586 -0.1517  0.5479 -0.5840
13397SOL    HW243407   1.659   8.365   6.596 -1.0313 -1.0378 -0.4934
13398SOL     OW43408   3.607   0.035   4.711  0.7029  0.2562 -0.1923
13398SOL    HW143409   3.605   0.051   4.612 -0.8404  0.7301 -0.0979
13398SOL    HW243410   3.533   0.086   4.755  1.0323 -0.3848  1.1466
13399SOL     OW43411   6.033   1.150   6.106  0.2906 -0.2366  0.3086
13399SOL    HW143412   6.077   1.114   6.188  0.0672  0.6245  0.8159
13399SOL    HW243413   6.020   1.249   6.116  0.9289 -0.0070 -1.0682
13400SOL     OW43414   5.327   5.877   1.152 -0.1310  0.3982 -0.4119
13400SOL    HW143415   5.237   5.841   1.129  0.9616 -1.7561 -1.4733
13400SOL    HW243416   5.389   5.864   1.074  1.9147 -1.0040  1.3978
13401SOL     OW43417   3.174   4.833   1.673 -0.2269  0.0913 -0.0712
13401SOL    HW143418   3.190   4.775   1.593  2.1875  1.2206 -0.4537
13401SOL    HW243419   3.207   4.785   1.755  0.9499  0.5192 -0.2776
13403SOL     OW43420   1.718   5.577   4.068  0.0754  0.6645 -0.9275
13403SOL    HW143421   1.805   5.569   4.115  0.1443 -1.1653 -1.3166
13403SOL    HW243422   1.648   5.608   4.132  0.7245  0.8106 -0.2869
13404SOL     OW43423   3.030   6.639   7.622  0.4147 -0.0854  0.5154
13404SOL    HW143424   3.130   6.647   7.627  0.5995 -0.1056 -2.7017
13404SOL    HW243425   3.003   6.549   7.658  1.4679  0.2269  2.1339
13406SOL     OW43426   2.541   7.893   3.255  0.3410  0.5700  0.1192
13406SOL    HW143427   2.496   7.908   3.167  0.7122  2.2493  0.1949
13406SOL    HW243428   2.628   7.847   3.240 -0.4912 -0.9493 -0.1967
13407SOL     OW43429   0.589   6.865   7.387  0.0193 -0.5794 -0.0121
13407SOL    HW143430   0.598   6.916   7.473  0.0176 -0.3438 -0.1501
13407SOL    HW243431   0.521   6.910   7.330  0.6070 -0.2747 -0.4732
13408SOL     OW43432   9.663   1.755   7.606  0.2622 -0.3898 -0.1732
13408SOL    HW143433   9.626   1.663   7.592  0.0239 -0.2099 -0.7184
13408SOL    HW243434   9.705   1.787   7.522 -2.4711  1.2833 -0.9608
13409SOL     OW43435   4.180   4.849   0.573 -0.8151 -0.2298  0.0415
13409SOL    HW143436   4.247   4.908   0.529 -0.8991 -0.1857 -0.0287
13409SOL    HW243437   4.189   4.856   0.672 -2.4332  1.7714  0.0868
13410SOL     OW43438   5.036   3.082   5.262 -0.3528 -0.0609  1.0728
13410SOL    HW143439   5.080   3.066   5.174  0.2778  3.0875  0.7590
13410SOL    HW243440   5.091   3.042   5.335  1.0348  0.4837  0.3376
13411SOL     OW43441   1.947   3.121   4.315 -0.2305 -0.0280 -0.3921
13411SOL    HW143442   1.902   3.036   4.287  0.2199 -0.0016 -1.2196
13411SOL    HW243443   1.965   3.119   4.413  0.6600 -1.3112 -0.5699
13412SOL     OW43444   3.337   6.788   4.308 -0.5023 -0.1617 -0.2997
13412SOL    HW143445   3.282   6.848   4.250  1.2393  0.9497 -0.8425
13412SOL    HW243446   3.296   6.697   4.310 -2.7467  0.8174 -0.1013
13413SOL     OW43447   4.034   6.814   1.642  0.0246 -0.2137 -0.5742
13413SOL    HW143448   3.969   6.862   1.584 -0.0114 -1.7689 -1.8493
13413SOL    HW243449   4.121   6.805   1.594  0.0139 -1.4472 -0.3749
13414SOL     OW43450   7.424   8.049   7.660  0.3368 -0.3322  0.0040
13414SOL    HW143451   7.338   8.000   7.645  0.4396 -1.3804  2.6383
13414SOL    HW243452   7.412   8.145   7.635 -1.3315 -0.6615 -0.4974
13415SOL     OW43453   8.686   0.761   5.337 -0.1667  0.0265  0.2733
13415SOL    HW143454   8.734   0.674   5.328 -1.3824 -0.4546 -1.9158
13415SOL    HW243455   8.746   0.836   5.310  0.0547 -0.3736 -0.3489
13416SOL     OW43456   1.550   9.078   3.041 -0.1633 -0.3879  0.1412
13416SOL    HW143457   1.526   9.046   2.949 -0.1902 -2.0795  0.7153
13416SOL    HW243458   1.484   9.042   3.107  0.5735 -0.2190  0.9771
13417SOL     OW43459   5.302   1.292   4.655  0.5625 -0.5943 -0.1115
13417SOL    HW143460   5.331   1.366   4.715  1.1714  0.8769 -2.1834
13417SOL    HW243461   5.380   1.234   4.633  0.5306 -0.5869 -0.2444
13418SOL     OW43462   7.586   1.311   1.669  0.7971 -0.1098 -0.3099
13418SOL    HW143463   7.624   1.241   1.609  0.8182  0.7760 -1.3387
13418SOL    HW243464   7.492   1.331   1.641  1.4644  1.7284 -1.3131
13419SOL     OW43465   8.426   1.883   1.458 -0.1671  0.4537 -0.3607
13419SOL    HW143466   8.478   1.864   1.375  1.2088  3.1296 -0.1737
13419SOL    HW243467   8.346   1.938   1.435 -1.6229 -1.6061 -0.3214
13420SOL     OW43468   0.030   1.369   5.542 -0.1798 -0.2788  0.2334
13420SOL    HW143469  -0.049   1.316   5.511 -1.4165  2.1295 -0.8735
13420SOL    HW243470   0.001   1.433   5.614  0.6391  0.9819 -0.5303
13421SOL     OW43471   2.170   6.686   7.687  0.7437 -0.4412  0.2706
13421SOL    HW143472   2.111   6.633   7.626 -0.6055 -0.4872  1.5847
13421SOL    HW243473   2.138   6.781   7.691  1.5703 -0.1448 -0.0472
13422SOL     OW43474   8.368   6.630   5.618 -0.2398 -0.2789 -0.6549
13422SOL    HW143475   8.349   6.532   5.620  0.4979 -0.4132 -0.4779
13422SOL    HW243476   8.302   6.678   5.677  0.4265 -0.8313  0.5537
13423SOL     OW43477   3.685   6.301   1.469 -0.0804 -0.5454 -0.1686
13423SOL    HW143478   3.636   6.238   1.529  1.4595 -1.9118 -0.2996
13423SOL    HW243479   3.622   6.369   1.431 -1.5684 -1.3974  0.7787
13424SOL     OW43480   1.567   3.813   1.726 -0.5840  0.5393 -0.2464
13424SOL    HW143481   1.649   3.870   1.720 -0.4264  0.2935 -0.4436
13424SOL    HW243482   1.593   3.718   1.742 -0.8498  0.5395  0.1902
13425SOL     OW43483   1.365   4.272   5.950 -0.2994 -0.1050 -0.2937
13425SOL    HW143484   1.369   4.332   6.030 -1.0564 -0.5455  0.0791
13425SOL    HW243485   1.314   4.189   5.973 -0.6978 -0.1446 -1.2932
13426SOL     OW43486   3.134   6.098   3.344  0.0772  0.3860 -0.0078
13426SOL    HW143487   3.187   6.013   3.347 -1.0239 -0.3267 -0.4911
13426SOL    HW243488   3.099   6.111   3.251  1.5810  2.2000 -0.3426
13427SOL     OW43489   6.302   4.520   1.530  0.1291  0.0442  0.0456
13427SOL    HW143490   6.223   4.501   1.472  0.4530  2.5426 -1.3257
13427SOL    HW243491   6.272   4.535   1.624 -0.9786  0.4425 -0.3599
13428SOL     OW43492   6.832   0.273   4.017 -0.4394 -0.7039  0.3996
13428SOL    HW143493   6.871   0.219   3.942 -0.7775  2.5492 -2.2166
13428SOL    HW243494   6.905   0.298   4.081  0.2825 -1.5438 -0.0721
13430SOL     OW43495   4.793   6.098   1.105 -0.1976 -0.3924 -0.2555
13430SOL    HW143496   4.720   6.068   1.166  1.8592 -0.3247  2.3389
13430SOL    HW243497   4.845   6.172   1.149  0.2023  0.9289 -2.8804
13432SOL     OW43498   7.317   1.305   1.647  0.1634  0.3112  0.1690
13432SOL    HW143499   7.290   1.330   1.554  0.1978  2.4400  0.7121
13432SOL    HW243500   7.256   1.347   1.713  0.0199 -1.3461  1.1388
13433SOL     OW43501   0.051   8.809   7.495 -0.6202 -0.0667  0.1631
13433SOL    HW143502   0.044   8.900   7.454 -0.5382  0.1885  0.7220
13433SOL    HW243503  -0.007   8.745   7.443 -0.4296  0.2331 -0.4226
13434SOL     OW43504   7.066   7.490   2.229 -0.2852 -0.3455 -0.3032
13434SOL    HW143505   7.110   7.557   2.289  0.2322 -1.1948  0.2822
13434SOL    HW243506   6.982   7.458   2.272 -0.7217  0.1924 -0.7496
13435SOL     OW43507   9.230   4.942   6.698  0.0352 -0.2055 -0.7868
13435SOL    HW143508   9.242   4.843   6.701  2.1193 -0.0006 -1.2405
13435SOL    HW243509   9.310   4.987   6.737 -0.9626  1.3071 -0.4228
13436SOL     OW43510   9.638   9.419   3.291  0.4912 -0.1040 -0.1804
13436SOL    HW143511   9.569   9.350   3.273  0.6979 -0.2551 -0.4013
13436SOL    HW243512   9.686   9.398   3.377  0.0222  0.1973  0.1579
13437SOL     OW43513   9.594   0.968   5.676 -0.3077 -0.2596  0.2118
13437SOL    HW143514   9.610   0.876   5.710  1.1647 -0.3921 -0.7925
13437SOL    HW243515   9.534   1.017   5.739  0.9910 -1.0550  2.0916
13438SOL     OW43516   4.721   3.329   7.946  0.4236  1.1030 -0.2462
13438SOL    HW143517   4.752   3.234   7.947  0.0384  0.9610 -1.1894
13438SOL    HW243518   4.797   3.389   7.924  0.8489  1.0863  1.1474
13439SOL     OW43519   0.321   3.263   5.974 -0.1504  0.0821 -0.1270
13439SOL    HW143520   0.337   3.241   6.070 -0.8654 -1.2901 -0.3033
13439SOL    HW243521   0.255   3.338   5.968 -1.4155 -0.9600  0.4451
13440SOL     OW43522   8.875   5.357   3.591 -0.1300 -0.3044 -0.1613
13440SOL    HW143523   8.874   5.406   3.504 -0.6479 -2.5513 -1.4441
13440SOL    HW243524   8.968   5.324   3.609  0.1028  0.6480  0.4456
13441SOL     OW43525   9.775   0.883   6.711  0.2542  0.3469  0.4761
13441SOL    HW143526   9.859   0.862   6.660  0.6470  0.3439  1.1297
13441SOL    HW243527   9.745   0.976   6.688 -1.8149 -1.0399 -2.8776
13442SOL     OW43528   5.742   2.753   1.093 -0.1372  0.8416 -0.0300
13442SOL    HW143529   5.819   2.771   1.153 -1.6976  1.9893  1.6954
13442SOL    HW243530   5.724   2.833   1.036  0.2111  0.4205 -0.7341
13443SOL     OW43531   8.674   8.169   1.662 -0.0719  0.3444 -0.5201
13443SOL    HW143532   8.603   8.200   1.598  1.8147 -0.2623 -3.0038
13443SOL    HW243533   8.728   8.096   1.619  0.4132 -1.0626  2.3218
13445SOL     OW43534   9.324   2.039   7.426 -0.3521  0.9205 -0.2388
13445SOL    HW143535   9.416   2.032   7.466 -0.5165 -3.7506 -0.4048
13445SOL    HW243536   9.330   2.076   7.334  1.7462 -1.8133 -1.2660
13447SOL     OW43537   6.112   0.521   3.196 -0.1612 -0.3850  0.3343
13447SOL    HW143538   6.202   0.496   3.160 -0.0814 -0.3458  0.5077
13447SOL    HW243539   6.045   0.521   3.121  0.3002  1.1523 -0.1004
13448SOL     OW43540   8.385   4.398   3.251 -0.2600  0.5523  0.0397
13448SOL    HW143541   8.472   4.409   3.299  0.6738  1.1919 -1.7902
13448SOL    HW243542   8.370   4.475   3.189 -1.0391 -0.6920 -1.3609
13449SOL     OW43543   2.036   4.749   7.074  0.2258 -0.3344 -0.3996
13449SOL    HW143544   2.040   4.650   7.086  0.8541  0.0219  2.6641
13449SOL    HW243545   1.973   4.789   7.141 -1.7398  1.1790 -3.0083
13450SOL     OW43546   4.464   8.353   3.563  0.0037 -0.3912 -0.5522
13450SOL    HW143547   4.552   8.342   3.609 -1.6231 -0.7825  2.6032
13450SOL    HW243548   4.402   8.279   3.590 -1.3623 -0.0594 -2.6314
13451SOL     OW43549   3.428   4.227   6.541 -0.1968  0.5910 -0.2389
13451SOL    HW143550   3.374   4.145   6.526 -0.0990  0.4936 -0.0542
13451SOL    HW243551   3.413   4.262   6.634 -0.4256  0.9187 -0.4000
13452SOL     OW43552   7.633   8.490   2.362 -0.5463 -0.2512 -0.2068
13452SOL    HW143553   7.718   8.502   2.414 -0.4513  0.2516 -0.4765
13452SOL    HW243554   7.651   8.430   2.283  0.1277  1.7668 -1.6191
13453SOL     OW43555   1.701   2.004   7.787  0.1876  0.2014  0.8466
13453SOL    HW143556   1.607   1.969   7.782  0.2049  0.3122 -0.4045
13453SOL    HW243557   1.699   2.102   7.807 -0.0499  0.7144 -1.6053
13455SOL     OW43558   2.148   9.754   2.956 -0.3271  0.3975  0.2358
13455SOL    HW143559   2.186   9.801   3.036  1.0664 -0.2673 -0.0076
13455SOL    HW243560   2.180   9.799   2.873  1.4863 -1.2831 -0.0108
13456SOL     OW43561   3.396   8.230   6.551  0.1206 -0.3621  0.0468
13456SOL    HW143562   3.322   8.295   6.539  0.7988  0.4178  0.0574
13456SOL    HW243563   3.454   8.258   6.628  1.1042 -0.3161 -0.6944
13457SOL     OW43564   3.133   9.667   6.793  0.0579  0.3954  0.2424
13457SOL    HW143565   3.094   9.701   6.879 -0.3812  0.8877 -0.1423
13457SOL    HW243566   3.107   9.729   6.719  1.8860  0.9270  0.0255
13458SOL     OW43567   9.926   1.167   2.631  0.3624 -0.1962 -0.1946
13458SOL    HW143568   9.915   1.071   2.607  1.4495 -0.6395  0.9925
13458SOL    HW243569   9.852   1.195   2.693 -0.0342 -0.2317 -0.6579
13460SOL     OW43570   3.059   7.580   2.979  0.2040  0.2962  0.2524
13460SOL    HW143571   3.092   7.582   3.073  0.8273 -0.0202  0.0430
13460SOL    HW243572   2.996   7.656   2.964 -0.3318  0.0194  1.0791
13463SOL     OW43573   9.730   3.588   1.192 -0.1228  0.2295 -0.6074
13463SOL    HW143574   9.702   3.633   1.107  0.2407  2.1450  0.2693
13463SOL    HW243575   9.777   3.654   1.251 -0.9125 -0.9214  1.3441
13464SOL     OW43576   1.225   5.911   3.416  0.8291  0.3993  0.5731
13464SOL    HW143577   1.299   5.856   3.377  0.5144  0.2080  0.2376
13464SOL    HW243578   1.229   5.906   3.515  0.2128 -1.0250  0.5391
13465SOL     OW43579   2.469   6.775   4.685  0.1207 -0.2188  0.5160
13465SOL    HW143580   2.493   6.746   4.777 -1.0351 -0.6002  0.7048
13465SOL    HW243581   2.535   6.736   4.620  0.4932 -0.5735  1.0971
13466SOL     OW43582   0.306   2.009   0.852 -0.6976 -0.1474 -0.7939
13466SOL    HW143583   0.234   2.059   0.804 -0.7595  1.8764  1.3514
13466SOL    HW243584   0.336   2.060   0.932  2.1121 -1.6549 -0.7920
13467SOL     OW43585   6.617   1.908   5.761 -0.2921 -0.4671  0.2954
13467SOL    HW143586   6.701   1.954   5.791  0.6592 -2.2949  0.5011
13467SOL    HW243587   6.554   1.975   5.723  1.5283  0.8459 -0.4552
13468SOL     OW43588   0.244   3.725   5.318  0.1885  0.1801 -0.2567
13468SOL    HW143589   0.183   3.788   5.270  0.6664 -0.1469 -1.3018
13468SOL    HW243590   0.206   3.704   5.408 -2.1113 -1.3914 -1.5694
13469SOL     OW43591   4.429   0.517   3.553  0.3828 -0.2993 -0.2409
13469SOL    HW143592   4.468   0.478   3.637  1.9054 -0.1625 -0.8735
13469SOL    HW243593   4.429   0.617   3.560  0.2555 -0.2960 -0.2886
13471SOL     OW43594   9.392   4.450   0.495  0.2756 -0.1331  0.5646
13471SOL    HW143595   9.390   4.526   0.430  0.3796  0.2579  1.0113
13471SOL    HW243596   9.303   4.443   0.540 -0.1056 -1.0047 -0.2966
13472SOL     OW43597   3.951   5.644   5.500 -0.2626 -0.8121  0.1082
13472SOL    HW143598   3.942   5.550   5.468  1.0576 -0.9320  0.0256
13472SOL    HW243599   4.046   5.660   5.529 -0.7071  0.2009  1.0523
13473SOL     OW43600   9.256   4.432   3.888  0.1892 -0.5544 -0.4788
13473SOL    HW143601   9.269   4.382   3.803  0.6775 -0.6456 -0.3500
13473SOL    HW243602   9.286   4.376   3.965 -2.2628 -1.3366 -0.0391
13474SOL     OW43603   2.992   4.056   1.201 -0.1909  0.0880 -0.0686
13474SOL    HW143604   2.907   4.047   1.251 -0.1787  0.4472  0.0176
13474SOL    HW243605   2.976   4.035   1.104 -0.3519  0.0472 -0.0332
13475SOL     OW43606   0.629   4.906   6.900  0.4730 -0.0414 -0.1317
13475SOL    HW143607   0.596   4.989   6.945 -0.0757 -0.8334  0.9387
13475SOL    HW243608   0.664   4.930   6.809 -1.3280  1.0894 -0.5636
13476SOL     OW43609   2.495   5.869   4.658 -0.4228  0.1811  0.2247
13476SOL    HW143610   2.483   5.769   4.660 -0.7922  0.2057 -0.7122
13476SOL    HW243611   2.570   5.892   4.596 -0.7928  0.5300 -0.0908
13477SOL     OW43612   9.515   7.336   7.367 -0.5656 -0.2997 -0.0677
13477SOL    HW143613   9.499   7.314   7.463 -1.3260  4.0436  0.8996
13477SOL    HW243614   9.454   7.411   7.338  2.2656  1.0982 -2.8060
13478SOL     OW43615   4.959   8.129   2.427  0.2450 -0.4822 -0.0534
13478SOL    HW143616   4.923   8.081   2.347  0.1698  1.4359 -1.2199
13478SOL    HW243617   5.053   8.100   2.444  0.5110 -0.3755 -1.3002
13480SOL     OW43618   3.301   4.433   4.125 -0.6394  0.2229 -0.4006
13480SOL    HW143619   3.350   4.371   4.063 -1.3312 -0.1396 -0.5906
13480SOL    HW243620   3.226   4.476   4.075  0.1505  1.6000 -0.4033
13481SOL     OW43621   7.832   9.254   6.119  0.5192 -0.1088  0.1095
13481SOL    HW143622   7.885   9.186   6.170 -0.4904 -0.0761  1.2235
13481SOL    HW243623   7.888   9.336   6.105  1.4942 -0.9016 -0.6177
13483SOL     OW43624   0.674   2.637   1.626  0.2931 -0.1099  0.4813
13483SOL    HW143625   0.754   2.691   1.652  1.5496 -1.4072 -0.5532
13483SOL    HW243626   0.703   2.543   1.605 -1.3933 -0.4051 -0.6431
13484SOL     OW43627   0.916   5.440   0.651 -0.4993  0.2082 -0.3194
13484SOL    HW143628   0.831   5.404   0.613 -1.9712  4.1259 -1.0367
13484SOL    HW243629   0.908   5.539   0.661  3.2788  0.4106  1.5333
13485SOL     OW43630   6.166   9.542   4.944  0.0076 -0.2096 -0.7351
13485SOL    HW143631   6.157   9.454   4.991 -1.0296  0.4395  0.3162
13485SOL    HW243632   6.105   9.609   4.986  0.1059  0.7808 -2.1148
13486SOL     OW43633   3.966   9.779   3.776  0.2030  0.0362 -0.0744
13486SOL    HW143634   4.023   9.706   3.813  0.2380  0.4784  0.7589
13486SOL    HW243635   3.935   9.838   3.850  1.1869  1.5985 -0.8864
13487SOL     OW43636   1.212   3.477   6.903 -0.1174 -0.1846 -0.3373
13487SOL    HW143637   1.170   3.390   6.930 -1.0040 -0.3360 -2.1459
13487SOL    HW243638   1.309   3.464   6.886 -0.1971 -0.7737 -0.3573
13488SOL     OW43639   2.513   6.976   6.451  0.6941  0.2725  0.2976
13488SOL    HW143640   2.574   7.049   6.480  0.8731  0.4883 -0.6064
13488SOL    HW243641   2.418   7.009   6.454  0.9374  1.2875 -2.2572
13490SOL     OW43642   9.267   5.986   2.203 -0.3048  0.0366 -0.1696
13490SOL    HW143643   9.283   6.037   2.288 -0.3778 -1.0597  0.5186
13490SOL    HW243644   9.238   5.893   2.226 -0.0582 -0.3477 -1.4102
13491SOL     OW43645   1.422   2.895   2.521  0.2679 -0.1849 -0.2187
13491SOL    HW143646   1.467   2.819   2.473  0.0572 -0.9025  0.7002
13491SOL    HW243647   1.385   2.862   2.608  0.5464  1.0798  0.3914
13492SOL     OW43648   3.502   7.847   0.213 -0.3512 -0.4055 -0.4961
13492SOL    HW143649   3.600   7.831   0.202 -0.5572 -0.9661 -1.5744
13492SOL    HW243650   3.465   7.783   0.281 -0.1239 -0.7375 -0.6874
13493SOL     OW43651   7.745   5.915   5.066  1.0451 -0.3260  0.2213
13493SOL    HW143652   7.734   5.965   5.152  0.3564 -0.0557 -0.0210
13493SOL    HW243653   7.722   5.819   5.080  1.2404 -0.3442  0.4137
13494SOL     OW43654   1.664   8.102   2.887 -0.3529 -0.3280 -0.3927
13494SOL    HW143655   1.667   8.022   2.828 -0.8316  0.2532 -1.2037
13494SOL    HW243656   1.676   8.073   2.982  0.0646 -1.2966 -0.7363
13495SOL     OW43657   6.439   4.888  10.086 -0.0843 -0.3261 -0.2424
13495SOL    HW143658   6.450   4.966  10.023  0.3301 -0.1573  0.0366
13495SOL    HW243659   6.517   4.826  10.075 -0.7542 -1.0566 -0.9553
13497SOL     OW43660   6.885   0.629   2.032  0.7699 -0.0317 -0.4185
13497SOL    HW143661   6.934   0.654   1.948  0.6017  2.6845  0.2549
13497SOL    HW243662   6.943   0.570   2.088  2.0443  0.5783 -1.0788
13498SOL     OW43663   4.926   8.415   0.948 -0.7504  0.7021 -0.1164
13498SOL    HW143664   4.846   8.386   1.001 -1.2604  0.7410 -0.8562
13498SOL    HW243665   5.001   8.350   0.964 -1.4531 -0.2730 -0.7021
13500SOL     OW43666   8.866   8.746   5.243  0.1575 -0.3200  0.1329
13500SOL    HW143667   8.914   8.702   5.167  1.5769 -1.9255  1.8686
13500SOL    HW243668   8.815   8.677   5.295 -0.6279  0.7078  0.7534
13501SOL     OW43669   2.168   3.815   4.031 -0.8136  0.1032  0.2545
13501SOL    HW143670   2.089   3.809   4.093  1.0882 -1.1132  2.6660
13501SOL    HW243671   2.233   3.881   4.068  3.2441 -5.0830  3.1560
13503SOL     OW43672   1.313   7.321   1.130 -0.4851 -0.0179 -0.3454
13503SOL    HW143673   1.330   7.365   1.042  2.0311 -2.3679 -1.0982
13503SOL    HW243674   1.392   7.333   1.189 -0.7417 -1.3980  0.3087
13504SOL     OW43675   6.792   6.460   2.083  0.2684  0.2985  0.5364
13504SOL    HW143676   6.745   6.548   2.078 -1.5381 -0.5870  1.4883
13504SOL    HW243677   6.734   6.393   2.128  1.7217 -1.3385  0.0659
13505SOL     OW43678   0.349   1.861   2.234  0.4138  0.3779  0.3670
13505SOL    HW143679   0.274   1.880   2.298  0.4483  2.9873 -0.2983
13505SOL    HW243680   0.433   1.905   2.267  1.0073 -0.2923 -0.2350
13506SOL     OW43681   7.063   9.358   7.861 -0.3163  0.1178 -0.0403
13506SOL    HW143682   6.998   9.291   7.827 -1.0159 -0.4039  2.2385
13506SOL    HW243683   7.152   9.315   7.874 -0.7375 -0.3556  1.3181
13508SOL     OW43684   3.758   5.362   4.764  0.3141  0.2866  0.2706
13508SOL    HW143685   3.667   5.404   4.769  0.2775  0.3005 -0.4820
13508SOL    HW243686   3.754   5.279   4.709  1.1093  1.2713 -1.3373
13512SOL     OW43687   7.369   0.438   5.457  0.1141 -0.1034  0.5331
13512SOL    HW143688   7.329   0.372   5.521  1.4038  0.4981  1.9974
13512SOL    HW243689   7.295   0.488   5.411 -0.8482 -1.4584  0.5788
13513SOL     OW43690   7.601   1.875   5.201 -0.1564  0.0711  0.2631
13513SOL    HW143691   7.512   1.919   5.216 -0.3990  0.1425 -1.3004
13513SOL    HW243692   7.639   1.906   5.114  1.5733  0.3079  1.0908
13514SOL     OW43693   7.462   7.799   5.901 -0.7445  0.2790 -0.8022
13514SOL    HW143694   7.552   7.839   5.914  0.1275 -1.8092 -0.2327
13514SOL    HW243695   7.469   7.718   5.843 -2.1580 -0.2659 -0.2443
13515SOL     OW43696   7.337   3.806   7.434 -0.4313 -0.2882  0.0024
13515SOL    HW143697   7.395   3.726   7.422 -0.0145 -0.4729  2.8122
13515SOL    HW243698   7.366   3.878   7.371 -0.7234 -2.2672 -2.4501
13516SOL     OW43699   3.802   1.091   7.792 -0.2418 -0.4923 -0.1310
13516SOL    HW143700   3.717   1.133   7.823  0.5876  0.4471  0.8776
13516SOL    HW243701   3.780   1.015   7.731 -1.7964  0.0637 -0.3034
13517SOL     OW43702   7.302   6.234   2.041 -0.5486 -0.1819  0.5659
13517SOL    HW143703   7.229   6.236   2.110 -1.1497  1.1621 -0.1101
13517SOL    HW243704   7.263   6.213   1.952  0.1596 -1.3348  0.5162
13518SOL     OW43705   4.800   4.365   1.724 -0.6080 -0.8752  0.6666
13518SOL    HW143706   4.731   4.311   1.675 -1.3436  2.3724 -2.0850
13518SOL    HW243707   4.760   4.406   1.805 -1.5357 -0.2443 -0.0965
13519SOL     OW43708   9.503   4.268   3.528  0.2078  0.4096  0.0435
13519SOL    HW143709   9.528   4.298   3.621 -0.7187  1.1302  0.0613
13519SOL    HW243710   9.528   4.172   3.517  0.6091  0.4037  0.9396
13520SOL     OW43711   3.957   5.600   1.858 -0.1813  0.3827  0.7943
13520SOL    HW143712   3.872   5.555   1.886 -1.4259  1.6390 -0.8715
13520SOL    HW243713   4.022   5.531   1.824 -0.8168 -0.4973  1.3607
13521SOL     OW43714   9.678   1.258   4.654 -0.5653  0.0080  0.5480
13521SOL    HW143715   9.754   1.261   4.719  0.0769  3.7107 -0.2469
13521SOL    HW243716   9.707   1.210   4.571  0.1801 -0.4502  1.0630
13522SOL     OW43717   0.555   8.373   6.893  0.0931  0.2996  0.1686
13522SOL    HW143718   0.471   8.319   6.879  0.5121 -0.9122  2.1719
13522SOL    HW243719   0.532   8.459   6.938 -0.2516  0.6233 -0.6210
13524SOL     OW43720   6.787   3.471   3.118 -0.0624 -0.2102 -0.1729
13524SOL    HW143721   6.822   3.459   3.211 -0.2656  1.0719  0.0743
13524SOL    HW243722   6.750   3.564   3.107  1.6831  0.2915 -2.0984
13525SOL     OW43723   8.452   8.532   0.528 -0.0394 -0.0542  0.3743
13525SOL    HW143724   8.458   8.625   0.493  1.5590 -0.4860 -0.5550
13525SOL    HW243725   8.518   8.474   0.480 -1.5307 -1.8364  0.4249
13526SOL     OW43726   0.808   9.166   3.533  0.3198 -0.0682 -0.1979
13526SOL    HW143727   0.728   9.107   3.520  1.7742 -1.8634 -1.2197
13526SOL    HW243728   0.777   9.260   3.549 -1.9787 -0.6239 -1.0770
13527SOL     OW43729   6.118   8.682   6.262  0.2526  0.0180  0.1205
13527SOL    HW143730   6.069   8.709   6.179  0.5969 -0.6611 -0.3104
13527SOL    HW243731   6.084   8.593   6.292 -0.3234  0.5585  1.0778
13529SOL     OW43732   9.876   8.981   0.398 -0.1288 -0.4516  0.0697
13529SOL    HW143733   9.952   8.924   0.368 -0.0423 -1.0962  1.4709
13529SOL    HW243734   9.866   9.059   0.336  1.0471 -0.8970 -0.6875
13530SOL     OW43735   4.253   7.880   0.882 -0.0165  0.1794 -0.2431
13530SOL    HW143736   4.351   7.896   0.888  0.2695 -1.3042 -0.9274
13530SOL    HW243737   4.204   7.965   0.903  1.3983  0.8492  0.3647
13531SOL     OW43738   3.046   9.010   6.664  0.0913 -0.2190  0.5783
13531SOL    HW143739   3.011   9.053   6.581 -1.1633 -1.0797  0.6472
13531SOL    HW243740   3.057   9.078   6.736 -1.8649  0.0077  0.6875
13532SOL     OW43741   1.566   4.885   3.626 -0.0301 -0.0124 -0.7137
13532SOL    HW143742   1.651   4.929   3.599  0.9933 -2.0608 -0.9777
13532SOL    HW243743   1.565   4.791   3.592 -2.5800  0.1000 -1.0461
13533SOL     OW43744   4.936   0.187   3.781 -0.2746  0.1592 -0.2097
13533SOL    HW143745   4.994   0.264   3.809 -1.0174  0.1729  1.3889
13533SOL    HW243746   4.965   0.105   3.829 -0.6466 -0.1469 -0.5108
13534SOL     OW43747   2.250   7.438   0.646  0.1519  0.1206 -0.0058
13534SOL    HW143748   2.189   7.414   0.722  1.2786 -1.9761  0.2630
13534SOL    HW243749   2.306   7.359   0.622  2.4539  1.8697 -0.5411
13535SOL     OW43750   3.089   2.031   1.456  0.6331 -0.1845  0.4425
13535SOL    HW143751   3.179   2.007   1.418  0.7414  2.9456 -1.4704
13535SOL    HW243752   3.100   2.061   1.551  1.3346 -1.5107  0.7970
13536SOL     OW43753   2.456   8.015   6.182  0.4523  0.4903 -0.3591
13536SOL    HW143754   2.417   8.006   6.274 -0.1102 -0.4429 -0.6829
13536SOL    HW243755   2.385   8.047   6.119  1.1872  2.5070 -0.2111
13537SOL     OW43756   4.084   4.451   2.935 -0.2342 -0.0900  0.1686
13537SOL    HW143757   4.173   4.452   2.982 -0.5562  0.1257  0.7679
13537SOL    HW243758   4.063   4.357   2.907  0.1311 -0.1601  0.1205
13538SOL     OW43759   6.981   8.662   4.081  0.1106 -0.2877 -0.0991
13538SOL    HW143760   7.022   8.753   4.080  1.6623 -0.9768 -1.1862
13538SOL    HW243761   6.934   8.647   3.994 -1.3929  0.0045  0.6423
13539SOL     OW43762   1.363   7.369   2.883  0.4400 -0.0956  0.1435
13539SOL    HW143763   1.330   7.408   2.798  1.5332  3.3003  1.2118
13539SOL    HW243764   1.312   7.407   2.960  1.2268 -1.1151  1.1907
13540SOL     OW43765   0.918   3.381   1.859  0.5503  0.1867  0.5961
13540SOL    HW143766   0.828   3.420   1.838  2.4323  3.5911 -1.6339
13540SOL    HW243767   0.944   3.316   1.787 -1.0751 -2.6468  2.4846
13542SOL     OW43768   1.836   5.631   7.760  0.1368 -0.2383 -0.5938
13542SOL    HW143769   1.867   5.637   7.665  1.0947 -0.6388 -0.3070
13542SOL    HW243770   1.770   5.705   7.778  0.0730 -0.0647 -1.5173
13543SOL     OW43771   2.081   7.063   5.818 -0.5527  0.0210 -0.5649
13543SOL    HW143772   2.072   7.082   5.916 -2.1414  2.9417 -1.2187
13543SOL    HW243773   2.177   7.064   5.793 -0.2405  1.0859  0.6300
13544SOL     OW43774   8.985   5.008   6.764  0.3162  0.1875 -0.0041
13544SOL    HW143775   8.995   5.053   6.853 -0.4925 -0.4132  0.3958
13544SOL    HW243776   9.075   4.978   6.732  0.5238 -0.2366  0.9575
13545SOL     OW43777   1.612   3.728   1.065  0.1009 -0.0184 -0.5688
13545SOL    HW143778   1.634   3.683   1.151 -1.1091 -1.5924 -1.0658
13545SOL    HW243779   1.550   3.671   1.012 -1.0331  2.0004 -1.4648
13547SOL     OW43780   9.262   9.915   1.974  0.2916 -0.3460  0.1243
13547SOL    HW143781   9.260   9.927   1.875  0.4876  1.8591  0.3603
13547SOL    HW243782   9.178   9.869   2.004 -0.0898 -0.3791 -0.9871
13548SOL     OW43783   0.332   0.772   0.260 -0.2803  0.0671 -0.0507
13548SOL    HW143784   0.416   0.731   0.224  1.2102  1.9858  1.1703
13548SOL    HW243785   0.311   0.855   0.209 -0.9459  0.0962  0.2592
13551SOL     OW43786   8.232   7.944   3.376 -0.0822  0.1884 -0.4675
13551SOL    HW143787   8.254   7.871   3.441 -1.3529  0.0834 -0.1570
13551SOL    HW243788   8.276   7.924   3.288  1.1692  0.0421  0.1736
13553SOL     OW43789   8.651   3.262   0.120  0.3137 -0.4717  0.7344
13553SOL    HW143790   8.749   3.252   0.134  0.4598 -0.0804  0.0206
13553SOL    HW243791   8.622   3.204   0.043  0.0611 -0.2819  0.6847
13554SOL     OW43792   9.185   1.729   3.963 -0.3131  0.5489  0.1714
13554SOL    HW143793   9.247   1.752   3.887 -1.0712 -0.1034 -0.6535
13554SOL    HW243794   9.096   1.701   3.926 -1.3537  2.1828  1.3514
13556SOL     OW43795   8.971   6.339   4.440  0.5067  0.0854 -0.4553
13556SOL    HW143796   9.068   6.361   4.431  0.5903  0.0366  0.2638
13556SOL    HW243797   8.960   6.240   4.442  0.5149  0.0954  0.1744
13557SOL     OW43798   3.322   8.421   5.797 -0.1130 -0.0349  0.1710
13557SOL    HW143799   3.419   8.441   5.803 -0.3103  0.4370  2.0580
13557SOL    HW243800   3.306   8.351   5.726  1.5451  0.0671 -0.3140
13558SOL     OW43801   4.155   0.333   1.580  0.3121  0.0475 -0.8378
13558SOL    HW143802   4.102   0.260   1.624  0.4444  0.4693  0.0301
13558SOL    HW243803   4.109   0.360   1.496 -0.7997  0.3151 -0.1640
13559SOL     OW43804   8.304   9.691   2.425  0.6831  0.1460  0.4034
13559SOL    HW143805   8.403   9.704   2.421  0.5889  0.9682  0.5933
13559SOL    HW243806   8.261   9.774   2.461  0.0067 -0.5504  1.2310
13560SOL     OW43807   4.264   8.499   7.197 -0.7978  0.2571 -0.0506
13560SOL    HW143808   4.340   8.565   7.191 -1.9805  1.6195 -0.2008
13560SOL    HW243809   4.237   8.471   7.105  0.5380 -1.4290  0.0497
13561SOL     OW43810   1.048   5.123   7.835  0.4324  0.0387 -0.2171
13561SOL    HW143811   1.148   5.132   7.834  0.4945 -0.4240  0.9670
13561SOL    HW243812   1.009   5.192   7.896  0.0532 -0.0659 -0.3424
13562SOL     OW43813   3.690   0.630   1.917 -0.5016  0.3524  0.2262
13562SOL    HW143814   3.775   0.626   1.866 -2.2082 -1.3422 -2.6252
13562SOL    HW243815   3.614   0.644   1.854 -2.5310 -0.0516  2.5057
13563SOL     OW43816   7.388   6.753   7.726 -0.0026 -0.1402  0.1423
13563SOL    HW143817   7.363   6.719   7.817 -0.5368  0.6439  0.2860
13563SOL    HW243818   7.376   6.852   7.722  2.9552  0.2795  0.1850
13564SOL     OW43819   5.206   8.493   2.790 -0.0673  0.5180 -0.5384
13564SOL    HW143820   5.159   8.425   2.847  2.0409  2.3557  3.6288
13564SOL    HW243821   5.151   8.576   2.786 -0.0500  0.5118 -0.9077
13565SOL     OW43822   3.361   3.986   4.807 -0.7395 -0.4764  0.3247
13565SOL    HW143823   3.277   4.015   4.761  0.5983  0.7340 -1.4229
13565SOL    HW243824   3.385   4.053   4.878 -0.4495 -0.0442 -0.1816
13566SOL     OW43825   0.017   3.957   3.144 -0.1839 -0.1718  0.2985
13566SOL    HW143826   0.097   3.997   3.100 -0.8113 -0.8247 -1.4908
13566SOL    HW243827  -0.029   4.027   3.199 -0.2792  1.1439 -1.3834
13567SOL     OW43828   0.915   6.008   5.754  0.3001 -0.1695 -0.6444
13567SOL    HW143829   1.013   6.019   5.738  0.4652 -3.0768 -1.8318
13567SOL    HW243830   0.863   6.049   5.679  0.5234  2.2588  0.4715
13568SOL     OW43831   9.857   6.539   0.888  0.2081 -0.0647  0.2309
13568SOL    HW143832   9.824   6.633   0.878  1.5056  0.2593 -1.4286
13568SOL    HW243833   9.850   6.511   0.984 -2.0738  0.9889  0.4079
13570SOL     OW43834   1.485   9.320   5.538 -0.1912 -0.4777  0.0125
13570SOL    HW143835   1.585   9.323   5.542 -0.1544 -0.9007 -0.6020
13570SOL    HW243836   1.447   9.396   5.592  0.4701  1.0155 -1.5953
13571SOL     OW43837   8.441   8.680   7.735  0.4335 -0.5150  0.9381
13571SOL    HW143838   8.384   8.691   7.816 -0.4615  0.8830  0.1325
13571SOL    HW243839   8.385   8.653   7.657  1.1598 -0.9881  0.5669
13572SOL     OW43840   5.211   9.333   6.949  0.2058 -0.2316 -0.1189
13572SOL    HW143841   5.145   9.396   6.991  1.0394  1.4390 -1.2444
13572SOL    HW243842   5.291   9.324   7.010  0.1802 -0.0230 -0.0534
13573SOL     OW43843   7.899   0.159   2.130  0.6090  0.7042 -0.3749
13573SOL    HW143844   7.805   0.126   2.122  0.0152  2.3768 -0.4929
13573SOL    HW243845   7.941   0.162   2.039  1.0652 -0.8528 -0.2202
13574SOL     OW43846   6.424   0.497   3.853 -0.1117  0.4093 -0.4681
13574SOL    HW143847   6.343   0.473   3.906  1.3591 -0.2925  1.4950
13574SOL    HW243848   6.463   0.414   3.812  1.2717  0.3035  1.0093
13575SOL     OW43849   2.943   5.689   6.722  0.4745  0.0935 -0.2317
13575SOL    HW143850   2.919   5.783   6.748  0.4626  0.3850 -1.2767
13575SOL    HW243851   3.011   5.691   6.649  1.0416 -0.7207  0.2784
13576SOL     OW43852   8.472   8.383   7.386  0.3211  0.2896  0.3584
13576SOL    HW143853   8.474   8.352   7.481 -0.8398  0.0797  0.3224
13576SOL    HW243854   8.557   8.432   7.365  1.2733 -1.0198  1.0338
13578SOL     OW43855   3.467   6.516   5.125  0.3387  0.1357  0.5981
13578SOL    HW143856   3.503   6.427   5.153 -0.2566 -0.4825 -0.5704
13578SOL    HW243857   3.466   6.577   5.204  1.1561 -0.7544  1.3183
13580SOL     OW43858   7.821   6.942   5.154  0.3535 -0.1878  0.6333
13580SOL    HW143859   7.841   6.844   5.155  2.2527  0.1833 -0.1869
13580SOL    HW243860   7.792   6.969   5.062  3.3918  0.6972 -0.1045
13581SOL     OW43861   2.826   3.241   6.534  0.1131 -0.3320  0.4728
13581SOL    HW143862   2.738   3.278   6.505  1.6799  1.8404 -1.7884
13581SOL    HW243863   2.837   3.253   6.632 -1.9196 -0.3044  0.7268
13582SOL     OW43864   7.270   7.799   7.622  0.0071  0.0163 -0.1196
13582SOL    HW143865   7.334   7.747   7.565 -1.7123 -2.0371 -0.2510
13582SOL    HW243866   7.225   7.869   7.566 -0.9072 -1.2989 -1.0638
13583SOL     OW43867   7.302   1.463   5.159 -0.7688  0.1600 -0.4046
13583SOL    HW143868   7.208   1.473   5.191 -0.4540  1.4345  0.1529
13583SOL    HW243869   7.305   1.476   5.060 -0.9719  1.6203 -0.2290
13584SOL     OW43870   0.327   6.998   5.197 -0.5759 -0.4241  0.3366
13584SOL    HW143871   0.288   6.945   5.122  0.5769 -1.1734  0.2478
13584SOL    HW243872   0.255   7.023   5.262 -1.3239 -1.1115 -0.2262
13585SOL     OW43873   6.930   0.340   6.323  0.1390  0.3916 -0.2049
13585SOL    HW143874   6.955   0.436   6.338 -0.2649  0.4180  0.3396
13585SOL    HW243875   6.985   0.302   6.249  1.7619  0.4447  0.9553
13586SOL     OW43876   4.435   3.188   6.654 -0.2298 -0.1068  0.5809
13586SOL    HW143877   4.451   3.184   6.752 -0.9812 -2.8572  0.6223
13586SOL    HW243878   4.473   3.106   6.610  2.9221  2.4983 -1.8853
13589SOL     OW43879   4.872   6.609   0.901 -0.2748  0.3317 -0.0446
13589SOL    HW143880   4.849   6.513   0.884  0.5872  0.5447 -2.7734
13589SOL    HW243881   4.881   6.625   0.999 -3.1333 -1.7157  0.6157
13590SOL     OW43882   8.279   0.226   7.009 -0.2870 -0.0147 -0.6146
13590SOL    HW143883   8.230   0.256   7.091 -2.6407 -1.1616 -1.5439
13590SOL    HW243884   8.375   0.253   7.015 -1.4430  4.1754  0.3309
13593SOL     OW43885   8.612   4.400   1.355  0.3893  0.2928  0.1023
13593SOL    HW143886   8.637   4.304   1.347  1.2551  0.3783  1.4482
13593SOL    HW243887   8.634   4.448   1.270  0.0835 -0.6719 -0.5212
13594SOL     OW43888   8.375   9.235   0.866 -0.0723  0.0449 -0.0092
13594SOL    HW143889   8.361   9.259   0.962  0.1053  1.2191 -0.2760
13594SOL    HW243890   8.470   9.207   0.853 -0.3756 -1.2149  0.3766
13595SOL     OW43891   0.604   7.528   5.020  0.2036  0.3221 -0.6678
13595SOL    HW143892   0.543   7.590   4.970  0.2744  1.0201  0.1139
13595SOL    HW243893   0.686   7.510   4.965  0.6662  1.7446 -0.4582
13596SOL     OW43894   7.983   6.952   1.763 -0.0320 -0.5431  0.0898
13596SOL    HW143895   8.013   6.995   1.848 -0.2114 -2.3133  1.0712
13596SOL    HW243896   7.895   6.906   1.779  0.4211 -1.7294 -0.7904
13597SOL     OW43897   6.087   4.757   1.984  0.3113  0.1683 -0.3787
13597SOL    HW143898   6.030   4.770   1.904 -0.5443  2.4819  0.5744
13597SOL    HW243899   6.182   4.781   1.963 -0.4260  3.6439  0.0634
13598SOL     OW43900   4.008   5.554   0.215  0.2874  0.6876  0.0879
13598SOL    HW143901   4.000   5.505   0.301 -0.4501 -0.3925 -0.5763
13598SOL    HW243902   3.919   5.553   0.168  1.2198 -0.8001 -1.7555
13599SOL     OW43903   9.765   7.149   4.788  0.7169 -0.0443  0.4068
13599SOL    HW143904   9.810   7.189   4.868 -0.9795  0.4749  1.1181
13599SOL    HW243905   9.666   7.151   4.801  0.4726 -1.0963 -1.1735
13602SOL     OW43906   6.492   5.604   1.571  0.4288 -0.2791  0.0372
13602SOL    HW143907   6.550   5.648   1.503  1.2661 -1.7230 -0.1914
13602SOL    HW243908   6.543   5.592   1.656 -0.4953  1.1752  0.8059
13604SOL     OW43909   8.526   1.561   5.317 -0.0074 -0.1896  0.0243
13604SOL    HW143910   8.601   1.600   5.371 -0.0059  0.7531 -0.6465
13604SOL    HW243911   8.507   1.468   5.350  0.5629  0.0468  1.0751
13605SOL     OW43912   4.211   3.095   6.943  0.1480  0.5905  0.4153
13605SOL    HW143913   4.192   3.137   6.854  1.2525  0.1209 -0.0489
13605SOL    HW243914   4.152   3.137   7.012  0.1872  1.8666 -0.3059
13606SOL     OW43915   4.629   3.384   7.501  0.3468 -0.1440 -0.1898
13606SOL    HW143916   4.678   3.433   7.574  0.8862 -0.2421 -0.4830
13606SOL    HW243917   4.674   3.296   7.484  0.5594  0.1254 -1.0344
13607SOL     OW43918   5.352   5.398   1.433  0.3072  0.2414  0.6107
13607SOL    HW143919   5.306   5.473   1.386  1.5152  0.0867 -0.8418
13607SOL    HW243920   5.298   5.371   1.513 -1.0639  1.4202  0.1043
13608SOL     OW43921   1.618   6.144   4.075  0.4328 -0.3699 -0.1702
13608SOL    HW143922   1.565   6.060   4.088 -1.4939  0.9248  0.5039
13608SOL    HW243923   1.630   6.190   4.162  1.0937  0.2841 -0.6039
13610SOL     OW43924   0.477   0.149   6.173  0.0687  0.4207 -0.1351
13610SOL    HW143925   0.537   0.173   6.096  0.2979  3.0864  0.8245
13610SOL    HW243926   0.529   0.156   6.258 -1.6356  3.0446  0.7397
13611SOL     OW43927   4.614   5.478   1.530 -0.0411 -0.3621 -0.3012
13611SOL    HW143928   4.658   5.505   1.616 -1.7488  2.3608 -0.2329
13611SOL    HW243929   4.559   5.554   1.495 -2.7607 -2.8629 -1.6365
13612SOL     OW43930   4.949   9.010   0.616 -0.0747  0.5786 -0.3156
13612SOL    HW143931   4.985   9.005   0.523  1.6400 -0.6278  0.3951
13612SOL    HW243932   5.007   8.956   0.677 -1.3380  1.1450  1.4074
13613SOL     OW43933   8.428   9.297   2.551 -0.3384  0.0852 -0.3625
13613SOL    HW143934   8.487   9.377   2.538  0.8565 -1.1610 -3.1113
13613SOL    HW243935   8.467   9.219   2.502 -0.8282 -2.5451  3.2602
13614SOL     OW43936   9.452   9.903   0.002  0.3708 -0.2404  0.3698
13614SOL    HW143937   9.414   9.888   0.093 -0.3662  0.8356  0.2516
13614SOL    HW243938   9.380   9.890  -0.066  1.0503 -1.5791 -0.1018
13615SOL     OW43939   6.719   2.046   1.185  0.1343 -0.2077 -0.0853
13615SOL    HW143940   6.696   2.059   1.281  1.3192 -1.0230  0.3126
13615SOL    HW243941   6.675   2.118   1.130 -1.9766 -0.7664  0.8339
13616SOL     OW43942   2.472   5.664   7.208 -0.6880  0.0665 -0.2826
13616SOL    HW143943   2.429   5.734   7.265  3.0608  2.8191 -0.6807
13616SOL    HW243944   2.502   5.588   7.265  1.5944  2.0649  1.2510
13617SOL     OW43945   4.022   7.689   1.963 -0.2139  0.5340  0.1322
13617SOL    HW143946   4.097   7.671   2.025  0.6898 -1.2163 -1.3928
13617SOL    HW243947   4.029   7.628   1.884 -2.3986  1.3652 -0.7555
13619SOL     OW43948   9.988   0.181   5.790  0.3640 -0.2207 -0.1582
13619SOL    HW143949   9.995   0.226   5.879 -0.0105 -1.3540  0.4557
13619SOL    HW243950  10.046   0.099   5.789  0.6313 -0.0286 -1.0708
13620SOL     OW43951   3.712   7.327   2.407 -0.4108  0.3455 -0.2827
13620SOL    HW143952   3.758   7.246   2.372 -0.8528 -0.5897  1.2619
13620SOL    HW243953   3.725   7.403   2.343  1.4112 -0.4833 -0.9264
13621SOL     OW43954   3.241   8.592   0.930  0.1202 -0.0082  0.1811
13621SOL    HW143955   3.278   8.534   0.857  1.5153  1.1122 -0.0247
13621SOL    HW243956   3.142   8.594   0.923  0.1503 -1.0568 -0.8170
13622SOL     OW43957   8.925   1.245   6.901 -0.1909  0.0449 -0.5023
13622SOL    HW143958   8.876   1.275   6.983  1.2912  0.1530  0.3517
13622SOL    HW243959   8.867   1.182   6.850 -1.1806  0.0622  0.5627
13623SOL     OW43960   2.202   7.084   6.439  0.1276  0.1974 -0.3595
13623SOL    HW143961   2.182   6.986   6.436  2.0545 -0.2247 -0.0230
13623SOL    HW243962   2.174   7.127   6.353 -0.9893 -0.5683 -0.3966
13624SOL     OW43963   6.422   7.818   4.399  0.1084 -0.0408 -0.4124
13624SOL    HW143964   6.503   7.792   4.452 -1.5190 -1.2764  1.4785
13624SOL    HW243965   6.394   7.910   4.426 -2.1648 -1.5775  2.7355
13625SOL     OW43966   7.351   1.093   7.818  0.5411  0.1475 -0.1395
13625SOL    HW143967   7.408   1.019   7.785  0.6512 -0.9038  2.3198
13625SOL    HW243968   7.406   1.176   7.830  0.8722  0.0240 -0.8200
13626SOL     OW43969   1.030   4.732   0.827  0.0281  0.5098 -0.6985
13626SOL    HW143970   1.031   4.815   0.771  0.7207 -1.4539 -3.7279
13626SOL    HW243971   0.954   4.735   0.891 -1.4967  2.3355 -2.5461
13627SOL     OW43972   1.157   5.401   2.096  0.4902  0.1803 -0.1506
13627SOL    HW143973   1.108   5.469   2.042 -2.0309  0.3089  2.1941
13627SOL    HW243974   1.132   5.309   2.065 -2.2756  0.2134  1.7823
13628SOL     OW43975   0.812   4.697   3.903 -0.5364  0.5757  0.0169
13628SOL    HW143976   0.787   4.763   3.974  0.5449  0.8702  0.1403
13628SOL    HW243977   0.859   4.744   3.828  2.1216 -0.3080  1.0573
13629SOL     OW43978   2.834   2.677   6.193  0.1441 -0.1185  0.1988
13629SOL    HW143979   2.870   2.771   6.194 -0.5795  0.1599  1.8004
13629SOL    HW243980   2.744   2.676   6.151  0.2405 -0.1218 -0.0064
13630SOL     OW43981   0.699   2.408   3.392 -0.2698  0.2741  0.7101
13630SOL    HW143982   0.677   2.329   3.336 -2.3287  0.1751  1.6033
13630SOL    HW243983   0.754   2.380   3.470 -0.4797 -0.1863  0.6949
13631SOL     OW43984   1.763   1.480   2.270 -0.1045 -0.1995  0.1834
13631SOL    HW143985   1.692   1.410   2.275 -0.4505  0.1946  0.7846
13631SOL    HW243986   1.733   1.563   2.318 -0.4198  0.9914 -2.0184
13634SOL     OW43987   0.171   6.888   2.169 -0.0080 -0.0419  0.5630
13634SOL    HW143988   0.226   6.861   2.090  0.4103  1.0136  0.4749
13634SOL    HW243989   0.204   6.976   2.203 -3.2201  1.8871 -1.0461
13636SOL     OW43990   4.012   4.205   0.760 -0.0297 -0.6179 -0.1310
13636SOL    HW143991   4.102   4.177   0.793 -1.0963 -2.3736  1.3827
13636SOL    HW243992   3.966   4.127   0.718 -1.3593 -0.0845  0.2967
13638SOL     OW43993   1.837   7.118   2.934 -0.1106  0.2330  0.2094
13638SOL    HW143994   1.930   7.151   2.921  0.0525  0.7661  2.4695
13638SOL    HW243995   1.835   7.018   2.924  0.7614  0.1921  0.3860
13640SOL     OW43996   1.249   5.261   3.101  0.0393 -0.0356 -0.0790
13640SOL    HW143997   1.333   5.316   3.111  0.8646 -1.1781 -0.6094
13640SOL    HW243998   1.248   5.189   3.170 -0.3131 -0.2657 -0.3227
13641SOL     OW43999   8.548   8.714   4.825  0.4093 -0.0167  0.1986
13641SOL    HW144000   8.521   8.741   4.918 -0.1072 -1.5522  0.5078
13641SOL    HW244001   8.466   8.693   4.771  0.8012 -0.9973 -0.0170
13642SOL     OW44002   7.357   2.522   3.556 -0.1734  0.1988 -0.2067
13642SOL    HW144003   7.370   2.426   3.583 -0.8996  0.4251  0.9484
13642SOL    HW244004   7.260   2.546   3.562 -0.1025  0.7679 -1.3063
13643SOL     OW44005   3.930   5.516   4.611 -0.5359  0.1744 -0.3216
13643SOL    HW144006   3.870   5.470   4.676  0.5154  0.2155  0.6894
13643SOL    HW244007   3.974   5.448   4.552 -2.9867  0.2686 -2.3223
13644SOL     OW44008   2.257   5.908   3.068  0.5268  0.0639 -0.8440
13644SOL    HW144009   2.220   5.999   3.087  0.6029  0.3463 -2.0064
13644SOL    HW244010   2.224   5.877   2.979  2.1064 -0.1953 -1.3558
13645SOL     OW44011   3.933   2.301   1.673 -0.1976 -0.5061  0.1420
13645SOL    HW144012   4.007   2.281   1.608  0.0144  1.8937 -0.4158
13645SOL    HW244013   3.968   2.297   1.766 -0.0240 -2.0501  0.0130
13646SOL     OW44014   3.926   4.708   6.161 -0.4149  0.0736 -0.3012
13646SOL    HW144015   3.951   4.630   6.103  1.6450 -0.3487  1.1075
13646SOL    HW244016   3.841   4.688   6.209  0.5373 -1.7053  0.7121
13647SOL     OW44017   6.375   1.794   5.311 -0.1395 -0.3569  0.4793
13647SOL    HW144018   6.466   1.786   5.352  0.1013 -0.5378 -0.0902
13647SOL    HW244019   6.378   1.862   5.237 -0.6082  0.0782  0.8565
13648SOL     OW44020   5.205   3.794   0.763 -0.1675  0.0870 -0.3703
13648SOL    HW144021   5.107   3.812   0.777  0.0861  1.6135 -0.4735
13648SOL    HW244022   5.229   3.708   0.808 -1.5244 -0.2221 -0.1955
13649SOL     OW44023   9.546   9.605   2.043  0.7318 -0.2572  0.1037
13649SOL    HW144024   9.634   9.652   2.037 -0.1121  1.4562  0.7814
13649SOL    HW244025   9.481   9.661   2.094 -0.2854 -2.2237  1.0634
13650SOL     OW44026   7.251   0.297   4.678  0.2734  0.0724  0.0455
13650SOL    HW144027   7.207   0.338   4.757 -0.9011 -0.1280 -0.4975
13650SOL    HW244028   7.287   0.369   4.618 -0.5588  0.2804 -0.2113
13651SOL     OW44029   9.450   5.594   0.030 -0.2302 -0.7373  0.5476
13651SOL    HW144030   9.529   5.533   0.025 -1.1594 -2.1031  2.0545
13651SOL    HW244031   9.378   5.562  -0.031  0.0564  0.0439 -0.2110
13652SOL     OW44032   4.071   6.852   4.592 -0.3911 -0.4619 -0.3071
13652SOL    HW144033   4.123   6.807   4.664 -0.8299  1.3532  1.1676
13652SOL    HW244034   3.974   6.830   4.603 -0.5995  0.7584  0.3793
13653SOL     OW44035   7.948   7.332   3.159 -0.4305  0.1770  0.3791
13653SOL    HW144036   7.869   7.278   3.189 -1.9543  0.7240 -2.5205
13653SOL    HW244037   8.000   7.280   3.091  1.2633  0.1822  1.6224
13654SOL     OW44038   3.787   8.992   7.026 -0.1460  0.2421  0.7399
13654SOL    HW144039   3.860   8.947   6.974 -0.3189  0.8894 -0.0749
13654SOL    HW244040   3.698   8.966   6.988 -0.2097  2.2611 -0.5778
13655SOL     OW44041   3.905   1.469   5.395 -0.7846  0.4697 -0.3052
13655SOL    HW144042   3.946   1.413   5.323 -0.8364 -0.6077  0.4899
13655SOL    HW244043   3.887   1.561   5.360 -1.6027 -0.2929 -1.9251
13656SOL     OW44044   9.005   4.017   4.877  0.5047 -0.4811 -0.2720
13656SOL    HW144045   8.972   4.079   4.948  0.9289 -2.2307  1.5091
13656SOL    HW244046   8.964   4.041   4.789 -0.3334  1.4773  0.6365
13657SOL     OW44047   9.625   7.048   6.737  0.2238 -0.3059  0.7861
13657SOL    HW144048   9.669   6.996   6.811  4.1202 -0.2517 -1.3569
13657SOL    HW244049   9.616   6.990   6.656 -1.0697  0.5471  0.3134
13658SOL     OW44050   1.312   5.939   3.711 -0.5812  0.7626 -0.2203
13658SOL    HW144051   1.407   5.913   3.698 -0.3480  1.2465  0.5315
13658SOL    HW244052   1.305   6.008   3.783 -1.5733  0.2287  0.2058
13660SOL     OW44053   2.836   7.597   6.545  0.7319  0.4786 -0.1191
13660SOL    HW144054   2.787   7.652   6.478  0.2274  1.3936  0.9854
13660SOL    HW244055   2.771   7.549   6.603  1.1652 -0.2706 -0.2523
13661SOL     OW44056   3.469   8.253   6.175 -0.3875  0.4755 -0.3126
13661SOL    HW144057   3.507   8.311   6.248  2.0539 -0.6792 -0.6039
13661SOL    HW244058   3.449   8.162   6.213  1.7057 -0.4026 -1.2142
13662SOL     OW44059   7.868   5.582   5.092 -0.4382 -0.3100 -0.4367
13662SOL    HW144060   7.805   5.588   5.170 -1.2218 -2.0164 -0.9204
13662SOL    HW244061   7.816   5.585   5.007  0.4035  1.3778 -0.9271
13663SOL     OW44062   4.392   9.667   4.424  0.0432 -0.2829  0.4602
13663SOL    HW144063   4.432   9.581   4.456  1.2343 -0.5495 -1.6833
13663SOL    HW244064   4.464   9.726   4.388 -0.7823  1.5976  1.8035
13664SOL     OW44065   3.179   9.739   3.661 -0.2350 -0.4303 -0.1325
13664SOL    HW144066   3.232   9.736   3.746  1.0562 -0.1418 -0.9058
13664SOL    HW244067   3.240   9.761   3.585 -1.6844  1.1069 -0.8828
13665SOL     OW44068   1.106   4.850   7.887  0.4841  0.1161  0.2101
13665SOL    HW144069   1.043   4.783   7.848  1.9790  0.1126 -2.2931
13665SOL    HW244070   1.060   4.938   7.897 -0.0345  0.0261 -1.3049
13666SOL     OW44071   3.848   9.592   7.315  0.4454  0.3083  0.2260
13666SOL    HW144072   3.939   9.627   7.293  0.5621  0.7214  1.3428
13666SOL    HW244073   3.799   9.659   7.371  0.3636 -0.9035  1.6536
13667SOL     OW44074   2.254   7.346   3.674 -0.0568 -0.1646  0.1193
13667SOL    HW144075   2.286   7.436   3.701  1.5719 -0.3939 -0.9814
13667SOL    HW244076   2.310   7.275   3.718  0.7534 -0.5719 -1.5306
13668SOL     OW44077   5.578   2.063   5.466  0.4230  0.2256  0.1496
13668SOL    HW144078   5.678   2.053   5.469  0.5781  1.6847  0.4854
13668SOL    HW244079   5.547   2.052   5.372  0.7456 -1.4732  0.2223
13669SOL     OW44080   8.581   6.808   1.653  0.1117 -0.3265  0.1828
13669SOL    HW144081   8.667   6.781   1.698  0.7391  0.5179 -0.4828
13669SOL    HW244082   8.504   6.776   1.708  0.8254 -2.2785  0.1219
13672SOL     OW44083   6.936   2.732   2.601  0.3525  0.3240 -0.0242
13672SOL    HW144084   7.024   2.772   2.575  2.4499 -1.8561  3.4726
13672SOL    HW244085   6.889   2.793   2.665 -0.3568  1.0978 -1.2559
13673SOL     OW44086   5.014   8.526   6.301 -0.3115 -0.1914 -0.1433
13673SOL    HW144087   4.919   8.496   6.302  0.5695 -3.1523  0.6048
13673SOL    HW244088   5.020   8.616   6.257 -3.5839  0.6853  1.0289
13674SOL     OW44089   3.121   0.751   1.694 -0.5880  0.0268 -0.2713
13674SOL    HW144090   3.131   0.751   1.793 -1.7046  1.4977 -0.1404
13674SOL    HW244091   3.198   0.800   1.652 -1.0794  1.0576  0.0030
13675SOL     OW44092   8.243   8.917   7.361  0.3026  0.4830  0.0705
13675SOL    HW144093   8.209   8.982   7.428  0.4195  0.0583  0.5498
13675SOL    HW244094   8.197   8.931   7.274 -0.4436  0.5004  0.4651
13676SOL     OW44095   4.070   8.351   1.187  0.3497  0.3634  0.1026
13676SOL    HW144096   4.092   8.411   1.110  3.8527  0.2580  0.9588
13676SOL    HW244097   3.976   8.368   1.217  0.0786  2.8046 -2.0128
13678SOL     OW44098   3.138   5.500   5.661 -0.2528 -0.0979  0.3487
13678SOL    HW144099   3.048   5.458   5.675 -0.5889  0.6821  0.5756
13678SOL    HW244100   3.127   5.584   5.608  0.1247  1.0047  2.0057
13679SOL     OW44101   8.129   4.827   5.776 -0.0021 -0.5038  0.2717
13679SOL    HW144102   8.194   4.837   5.852 -2.0325 -1.7890  2.2638
13679SOL    HW244103   8.118   4.730   5.755 -1.0851 -0.2893 -0.1851
13680SOL     OW44104   3.721   3.415   3.027  0.1637  0.1769  0.2287
13680SOL    HW144105   3.737   3.510   3.051  3.2088 -0.8054  2.5652
13680SOL    HW244106   3.802   3.379   2.979  0.2712 -1.9364  1.9063
13681SOL     OW44107   2.899   3.049   3.909  0.6048 -0.3111  0.4178
13681SOL    HW144108   2.934   2.956   3.916 -0.8281 -0.9478 -0.8073
13681SOL    HW244109   2.816   3.050   3.854 -1.0287  1.2766  2.8201
13682SOL     OW44110   2.341   5.256   1.732 -0.0279  0.1481 -0.5661
13682SOL    HW144111   2.356   5.338   1.787 -0.4419 -0.2919  0.2205
13682SOL    HW244112   2.249   5.258   1.692  0.1114  0.2600 -0.8812
13683SOL     OW44113   4.081   2.231   7.000 -0.1385  0.1696  0.2468
13683SOL    HW144114   4.154   2.238   6.933  0.3860  1.1577  0.9128
13683SOL    HW244115   4.034   2.319   7.007 -1.1135 -0.3346  0.1380
13684SOL     OW44116   0.446   6.575   6.641  0.0214  0.0310 -0.2086
13684SOL    HW144117   0.377   6.647   6.632 -0.9303 -0.9063 -0.4347
13684SOL    HW244118   0.530   6.615   6.678  0.2397  1.7111 -2.3552
13685SOL     OW44119   7.208   7.499   2.724 -0.3249 -0.1198  0.8253
13685SOL    HW144120   7.143   7.550   2.667 -0.6067 -1.7158 -0.3499
13685SOL    HW244121   7.208   7.403   2.695  2.2934 -0.2181  1.0728
13686SOL     OW44122   3.506   9.361   1.889  0.0477 -0.1018 -0.0849
13686SOL    HW144123   3.573   9.427   1.854 -0.4317  0.6711  0.4466
13686SOL    HW244124   3.423   9.365   1.833  0.8558 -1.8759 -1.4583
13687SOL     OW44125   4.768   9.628   0.759  0.0445  0.4545 -0.0422
13687SOL    HW144126   4.864   9.641   0.732  0.2020 -1.0130 -0.2185
13687SOL    HW244127   4.763   9.560   0.832 -1.0514 -1.0433 -1.4902
13688SOL     OW44128   0.874   2.353   2.069 -0.5325  0.0342 -0.3616
13688SOL    HW144129   0.873   2.254   2.056 -0.4683 -0.2116  1.4337
13688SOL    HW244130   0.951   2.378   2.128 -1.7213  0.9410  0.8361
13689SOL     OW44131   1.653   4.924   4.178  1.2650 -0.2251  0.1733
13689SOL    HW144132   1.685   5.014   4.149 -0.5138  0.4535  0.2732
13689SOL    HW244133   1.630   4.869   4.098 -0.4931  0.4801  0.1744
13691SOL     OW44134   4.201   3.873   6.504  0.1543 -0.9677 -0.4011
13691SOL    HW144135   4.294   3.840   6.490 -0.0347 -0.9074 -1.8645
13691SOL    HW244136   4.185   3.955   6.450 -0.9360 -1.3158 -0.6306
13692SOL     OW44137   9.792   2.104   2.368  0.3220  0.3357 -0.0904
13692SOL    HW144138   9.762   2.173   2.302 -1.0842 -0.5057 -0.3582
13692SOL    HW244139   9.827   2.149   2.450 -2.9182  1.3991  0.7752
13693SOL     OW44140   1.239   2.307   3.851 -0.1906  0.2501  0.0541
13693SOL    HW144141   1.213   2.402   3.837 -0.2055  0.1067 -0.9411
13693SOL    HW244142   1.305   2.300   3.926 -0.1237  1.0495  0.0663
13694SOL     OW44143   2.544   8.335   1.757  0.6928  0.5022  0.2217
13694SOL    HW144144   2.530   8.433   1.771 -0.7242  0.5099 -1.0640
13694SOL    HW244145   2.603   8.322   1.677 -0.2362  0.2843 -0.4277
13695SOL     OW44146   7.851   0.062   7.807 -0.4138 -0.5045 -0.5214
13695SOL    HW144147   7.767   0.109   7.781 -1.3350 -2.5313 -1.2801
13695SOL    HW244148   7.830  -0.031   7.836  1.6995 -1.5237 -2.1071
13696SOL     OW44149   8.905   6.571   4.867  0.4165 -0.9164 -0.2589
13696SOL    HW144150   8.870   6.614   4.951  1.2998 -1.5434  0.4420
13696SOL    HW244151   8.839   6.585   4.793 -1.2159 -1.8202  0.9729
13697SOL     OW44152   3.074   2.530   6.933 -0.6492 -0.1764  0.3291
13697SOL    HW144153   3.141   2.539   6.860 -0.5127  1.8054  0.6735
13697SOL    HW244154   3.073   2.614   6.988 -2.7981 -0.4947  0.8373
13698SOL     OW44155   2.549   7.524   7.808  0.1362 -0.3006  0.0494
13698SOL    HW144156   2.581   7.430   7.812 -1.1585 -0.7365  0.7817
13698SOL    HW244157   2.471   7.535   7.871  0.2643  1.2450 -0.0432
13699SOL     OW44158   7.793   6.952   7.865 -0.1527 -0.4683 -0.2580
13699SOL    HW144159   7.779   7.044   7.829 -1.1295  0.1717  1.6573
13699SOL    HW244160   7.879   6.949   7.916 -0.2729 -0.5318 -0.0566
13700SOL     OW44161   9.228   6.408   4.537 -0.0407  0.3762 -0.0958
13700SOL    HW144162   9.195   6.405   4.632  0.3281 -0.6432  0.0032
13700SOL    HW244163   9.257   6.501   4.515  0.6821  0.4339  1.0715
13701SOL     OW44164   5.966   9.104   4.410 -0.4679 -0.3241 -0.4052
13701SOL    HW144165   5.978   9.202   4.427  2.6633 -0.7490  0.1700
13701SOL    HW244166   5.954   9.088   4.312  1.1889  0.4976 -0.7748
13702SOL     OW44167   1.936   1.751   3.356  0.0081 -0.3352  0.5518
13702SOL    HW144168   1.953   1.849   3.359 -0.1206 -0.2584 -0.7854
13702SOL    HW244169   1.846   1.734   3.317  0.3604 -1.0132  0.0141
13703SOL     OW44170   4.267   5.634   1.009 -1.0343  0.3486  0.3402
13703SOL    HW144171   4.246   5.591   0.921  1.4049 -1.2877  0.5371
13703SOL    HW244172   4.245   5.571   1.083  1.2210 -0.0624  0.6914
13704SOL     OW44173   1.826   4.908   1.338 -0.1153 -0.0007  0.0095
13704SOL    HW144174   1.885   4.852   1.278 -0.5306 -0.6687  0.2194
13704SOL    HW244175   1.852   5.004   1.329  3.3870 -0.5975  2.7180
13706SOL     OW44176   2.333   9.811   7.048 -0.9166 -0.1026 -0.6083
13706SOL    HW144177   2.284   9.894   7.023 -1.6394 -0.0835  0.7980
13706SOL    HW244178   2.402   9.833   7.117 -2.6844 -0.9979  1.5283
13707SOL     OW44179   4.789   8.725   1.968 -0.0134 -0.2171 -0.2753
13707SOL    HW144180   4.765   8.765   1.880 -0.8232 -0.4389 -0.1612
13707SOL    HW244181   4.796   8.797   2.037 -2.2626 -0.3363  0.1037
13708SOL     OW44182   2.885   1.212   5.061  0.0046  0.0417  0.3782
13708SOL    HW144183   2.856   1.282   5.126  1.4573 -1.5163  2.7587
13708SOL    HW244184   2.844   1.124   5.085 -3.2500  0.3047 -3.6369
13709SOL     OW44185   2.436   9.771   5.017  0.4696 -0.7781  0.3006
13709SOL    HW144186   2.535   9.765   5.009  0.5210  1.3823 -1.2305
13709SOL    HW244187   2.400   9.687   5.058  2.8829 -1.6884  0.6177
13710SOL     OW44188   4.031   2.300   5.058  0.7910 -0.0929 -0.1823
13710SOL    HW144189   4.066   2.393   5.058  2.3583 -0.6483 -1.1461
13710SOL    HW244190   4.066   2.251   5.138  0.1386  0.0831  0.2125
13711SOL     OW44191   6.659   1.226   5.991 -0.0572 -0.3541 -0.3118
13711SOL    HW144192   6.636   1.141   6.039 -0.6532 -0.3641 -0.6192
13711SOL    HW244193   6.740   1.267   6.034 -0.4505 -0.4838  0.5541
13712SOL     OW44194   8.125   3.436   1.493 -0.2982 -0.1822 -0.2847
13712SOL    HW144195   8.224   3.421   1.488 -0.0504  1.6270 -0.9009
13712SOL    HW244196   8.078   3.354   1.460  0.9801 -0.9934 -0.1506
13713SOL     OW44197   8.864   1.091   6.109  0.0976  0.2534  0.6246
13713SOL    HW144198   8.915   1.005   6.110  1.8564  1.2741  0.8733
13713SOL    HW244199   8.813   1.098   6.024  0.2964 -0.8213  0.4024
13714SOL     OW44200   6.318   3.995   0.368  0.1913  0.3127 -0.3388
13714SOL    HW144201   6.365   3.977   0.282 -0.6271  0.3388 -0.7940
13714SOL    HW244202   6.386   4.012   0.440  0.9029 -0.6983 -0.7490
13715SOL     OW44203   1.163   5.094   5.720  0.4395  0.2412 -0.7758
13715SOL    HW144204   1.072   5.095   5.679  0.5497  1.2411 -1.0084
13715SOL    HW244205   1.163   5.036   5.801 -0.5324  0.6404 -0.4847
13716SOL     OW44206   2.131   0.978   4.594 -0.3051 -0.4609 -0.2247
13716SOL    HW144207   2.063   1.017   4.656  0.8311  0.1172  0.6698
13716SOL    HW244208   2.216   0.961   4.644  0.1530 -1.3659 -1.2878
13717SOL     OW44209   2.720   7.240   3.252  0.0582 -0.2505 -0.5833
13717SOL    HW144210   2.774   7.156   3.260  0.9266  0.3216 -0.3335
13717SOL    HW244211   2.758   7.298   3.180  0.4857  0.6654  0.3642
13718SOL     OW44212   7.702   1.746   3.645 -0.4445  0.4428  0.4787
13718SOL    HW144213   7.628   1.694   3.687 -0.7106  1.4841  1.3430
13718SOL    HW244214   7.745   1.805   3.714  0.6550  0.4510 -0.1945
13719SOL     OW44215   2.208   6.774   2.065 -0.1433 -0.0836  0.6777
13719SOL    HW144216   2.126   6.768   2.010 -0.3342  2.5861  0.6344
13719SOL    HW244217   2.261   6.855   2.038  1.0560 -0.1925  2.6204
13721SOL     OW44218   2.727   4.190   4.631  0.2318  0.1028  0.0891
13721SOL    HW144219   2.668   4.267   4.656  0.3008  0.2699 -0.2565
13721SOL    HW244220   2.692   4.147   4.548  0.9448  0.5824 -0.4681
13723SOL     OW44221   1.738   8.697   0.363  0.0013  0.3887 -0.1688
13723SOL    HW144222   1.770   8.613   0.407  0.8783  1.2133  0.8034
13723SOL    HW244223   1.805   8.725   0.294  0.3796  1.0007  0.4368
13724SOL     OW44224   2.328   9.465   1.151 -0.5452 -0.4400 -0.0570
13724SOL    HW144225   2.233   9.447   1.174 -1.2013 -0.1672 -2.4479
13724SOL    HW244226   2.387   9.400   1.200 -2.1456 -2.4308 -0.7057
13727SOL     OW44227   0.294   9.826   2.409 -0.0025  0.4048  0.0901
13727SOL    HW144228   0.221   9.770   2.369  1.0702 -0.5375 -0.5818
13727SOL    HW244229   0.360   9.767   2.455 -0.0378  1.3097  1.3220
13728SOL     OW44230   4.649   0.074   6.353  0.0139 -0.5630  0.3913
13728SOL    HW144231   4.684  -0.002   6.408  2.8822 -0.2981 -0.9887
13728SOL    HW244232   4.631   0.043   6.259 -1.0601 -0.0664  0.4151
13729SOL     OW44233   4.382   8.472   0.295  0.2844  0.2684  0.2587
13729SOL    HW144234   4.283   8.467   0.283  0.3487 -3.3617  0.6303
13729SOL    HW244235   4.427   8.478   0.206 -0.1746 -1.2020 -0.0808
13730SOL     OW44236   4.924   3.113   4.850  0.1701  0.4330 -0.4027
13730SOL    HW144237   5.010   3.107   4.800  0.6003 -0.0127  0.3749
13730SOL    HW244238   4.940   3.158   4.938 -0.2812 -0.1135 -0.0312
13731SOL     OW44239   8.638   3.686   3.365 -0.1389  0.6657  0.0352
13731SOL    HW144240   8.599   3.720   3.279  0.9934  0.3432 -0.6075
13731SOL    HW244241   8.581   3.610   3.399 -0.5629  0.7605 -0.4502
13732SOL     OW44242   9.167   8.826   3.917  0.1045 -0.1985 -0.0043
13732SOL    HW144243   9.134   8.920   3.912  1.5836  0.2726 -0.8163
13732SOL    HW244244   9.089   8.765   3.936 -0.9794  1.0830 -0.2577
13733SOL     OW44245   9.592   0.614   5.090  0.1430  0.6408 -0.7123
13733SOL    HW144246   9.548   0.630   5.002 -0.1061 -1.9578 -1.1005
13733SOL    HW244247   9.560   0.681   5.157 -3.8812 -0.6738 -1.1852
13734SOL     OW44248   1.075   8.124   0.977 -0.2266  0.3667  0.2172
13734SOL    HW144249   1.160   8.148   1.025  0.3741 -1.9079  0.3391
13734SOL    HW244250   1.064   8.025   0.975 -3.1796  0.6289  0.6719
13735SOL     OW44251   4.841   7.943   5.284 -0.1187  0.2956 -0.2836
13735SOL    HW144252   4.811   7.991   5.202  0.6118  0.7255 -0.3028
13735SOL    HW244253   4.798   7.983   5.365  0.8860  1.3332 -0.2491
13736SOL     OW44254   2.317   6.392   0.890  0.4087  0.1433 -0.7827
13736SOL    HW144255   2.303   6.320   0.822 -0.5060 -1.2169  0.8028
13736SOL    HW244256   2.391   6.365   0.952  0.6384  0.9536 -0.7013
13739SOL     OW44257   0.771   1.494   2.005 -0.0742  0.2402 -0.3365
13739SOL    HW144258   0.738   1.527   2.093 -1.1181 -1.0843 -0.2166
13739SOL    HW244259   0.694   1.488   1.941  0.3513 -0.5294 -0.7896
13740SOL     OW44260   1.366   2.901   1.816 -0.1811  0.3402  0.3546
13740SOL    HW144261   1.408   2.879   1.728 -1.5392  0.1952 -0.2685
13740SOL    HW244262   1.370   2.999   1.832 -0.3884  0.4233 -0.1075
13741SOL     OW44263   3.674   5.138   7.087 -0.3205 -0.5975  0.0352
13741SOL    HW144264   3.720   5.063   7.135  0.7907 -0.1844 -0.3499
13741SOL    HW244265   3.579   5.143   7.116 -0.2377 -1.7473  0.5454
13742SOL     OW44266   2.756   9.449   5.195  0.5433 -0.6123  0.3955
13742SOL    HW144267   2.754   9.385   5.117 -1.6654  0.6513 -0.6383
13742SOL    HW244268   2.708   9.408   5.272 -1.6568  0.0781 -0.5517
13743SOL     OW44269   1.152   3.609   1.058 -0.1187 -0.1092  0.1514
13743SOL    HW144270   1.110   3.536   1.111  0.7117 -0.0106  0.9491
13743SOL    HW244271   1.251   3.612   1.077  0.1226  0.1819 -1.0847
13744SOL     OW44272   1.247   9.798   3.334 -0.2138 -0.0662 -0.6554
13744SOL    HW144273   1.231   9.895   3.316 -1.5803 -0.2274 -0.3586
13744SOL    HW244274   1.206   9.743   3.261 -0.0281 -0.4503 -0.4717
13745SOL     OW44275   9.335   2.275   1.232  0.0955  0.3348  0.3994
13745SOL    HW144276   9.272   2.340   1.189 -0.7465 -0.0195  1.0664
13745SOL    HW244277   9.321   2.184   1.192  0.5523  0.3578  0.1844
13746SOL     OW44278   5.324   9.137   5.078  0.4498  0.2541 -0.6973
13746SOL    HW144279   5.255   9.154   5.147  0.4821  0.7029 -0.7786
13746SOL    HW244280   5.360   9.044   5.089  1.6569  0.9087  0.9252
13747SOL     OW44281   2.482   0.416   7.639  0.4052 -0.3939  0.5229
13747SOL    HW144282   2.452   0.499   7.686 -2.2980 -0.8147 -0.3460
13747SOL    HW244283   2.491   0.342   7.706  1.0521  0.1224  1.0242
13748SOL     OW44284   5.932   4.744   0.407  0.0282 -0.0136 -0.0903
13748SOL    HW144285   5.904   4.764   0.313  0.3432 -0.1670 -0.2185
13748SOL    HW244286   5.996   4.668   0.407  1.2164  0.9590  0.0916
13749SOL     OW44287   0.897   0.059   6.260 -0.1950 -1.4704  0.5904
13749SOL    HW144288   0.964   0.116   6.309  0.2956 -0.4174 -1.2528
13749SOL    HW244289   0.910   0.070   6.161 -0.4931 -4.3729  0.2020
13750SOL     OW44290   3.648   0.737   0.371  0.1682 -0.6338 -0.3120
13750SOL    HW144291   3.637   0.654   0.316  1.2781  0.3030 -2.0049
13750SOL    HW244292   3.738   0.736   0.416 -0.5647 -1.1970  1.1659
13751SOL     OW44293   3.670   3.903   3.297  0.4051 -0.0953 -0.2742
13751SOL    HW144294   3.747   3.936   3.351  1.8011 -0.8470 -1.7608
13751SOL    HW244295   3.607   3.853   3.356  2.1981 -1.4172  0.5887
13752SOL     OW44296   4.777   9.254   6.900  0.2791  0.3671  0.3629
13752SOL    HW144297   4.806   9.158   6.898 -0.2180  0.2311 -0.7136
13752SOL    HW244298   4.781   9.292   6.808 -2.3249  0.5249  0.2753
13753SOL     OW44299   5.117   3.666   1.579 -0.2593  0.0401  0.1660
13753SOL    HW144300   5.069   3.583   1.608 -1.1302  0.4683 -0.0496
13753SOL    HW244301   5.153   3.714   1.659  1.6124 -1.3549  0.2049
13754SOL     OW44302   7.917   6.639   4.461  0.2519 -0.4124 -0.3608
13754SOL    HW144303   7.979   6.629   4.382  0.3111 -1.0406 -0.2383
13754SOL    HW244304   7.948   6.715   4.518 -1.1163  1.5424 -2.1538
13755SOL     OW44305   2.042   3.938   1.266  0.4132 -0.2295  0.7355
13755SOL    HW144306   2.021   3.898   1.356 -1.8913  0.0714  0.3581
13755SOL    HW244307   2.117   4.002   1.275  0.5844 -0.6350  2.3546
13756SOL     OW44308   1.027   3.830   5.326  0.2030 -0.3465 -0.1577
13756SOL    HW144309   0.950   3.795   5.273 -1.3189  3.7169 -0.7649
13756SOL    HW244310   1.070   3.905   5.276  2.0311  0.1252  2.0428
13757SOL     OW44311   4.946   2.484   7.407  0.8701 -0.2895 -0.1962
13757SOL    HW144312   4.936   2.412   7.475  0.7149  0.6447  0.7815
13757SOL    HW244313   4.856   2.518   7.379  0.9763  1.1562  1.1255
13760SOL     OW44314   1.513   1.290   7.198  0.1097 -0.0191 -0.3729
13760SOL    HW144315   1.431   1.343   7.179  1.1016  1.1366 -1.5119
13760SOL    HW244316   1.584   1.351   7.234  0.1642 -1.1745  1.5869
13761SOL     OW44317   8.447   0.708   6.754 -0.4111  0.1025  0.3396
13761SOL    HW144318   8.358   0.709   6.798 -0.2884 -0.5965  0.6050
13761SOL    HW244319   8.473   0.614   6.733 -0.1743  0.3776 -0.6238
13762SOL     OW44320   0.771   5.108   5.702  0.0302  0.4656 -0.7005
13762SOL    HW144321   0.801   5.160   5.622  0.3687  3.2045  1.1420
13762SOL    HW244322   0.677   5.134   5.724  0.3187  0.5575  0.4293
13763SOL     OW44323   3.897   3.730   2.625 -0.3688  0.1807  0.3181
13763SOL    HW144324   3.919   3.632   2.632 -1.2007  0.0308  0.9457
13763SOL    HW244325   3.864   3.763   2.714  0.6879  1.2298  0.3296
13764SOL     OW44326   3.051   5.320   6.039  0.1858 -0.2917  0.2866
13764SOL    HW144327   2.968   5.369   6.066  1.1519  2.3799 -1.3872
13764SOL    HW244328   3.111   5.382   5.989  3.7653 -1.8479  2.4990
13765SOL     OW44329   7.263   2.659   3.950  0.5540  0.1291  0.6578
13765SOL    HW144330   7.247   2.565   3.919  0.8647  0.0417  0.7648
13765SOL    HW244331   7.324   2.705   3.885 -0.6819  0.6821 -0.1279
13766SOL     OW44332   2.973   9.015   7.466  0.3593  0.6542 -0.4495
13766SOL    HW144333   3.035   9.087   7.436  0.1807  0.9067 -0.2099
13766SOL    HW244334   2.924   8.978   7.386  0.4589  0.7881 -0.5729
13767SOL     OW44335   2.052   0.375   2.709 -0.1495  0.8122  0.5322
13767SOL    HW144336   2.079   0.471   2.712  1.8437  0.3987 -1.8178
13767SOL    HW244337   2.120   0.319   2.757 -1.2882  0.5415  1.8737
13768SOL     OW44338   0.451   3.383   2.322  0.0473 -0.5441 -0.4284
13768SOL    HW144339   0.402   3.466   2.294  2.2698  0.1686 -2.3567
13768SOL    HW244340   0.523   3.407   2.386  1.2284 -0.8628 -1.6239
13769SOL     OW44341   2.986   6.973   1.064 -0.7497  0.4499  0.1913
13769SOL    HW144342   2.938   6.907   1.006 -0.0992 -0.2941  0.5031
13769SOL    HW244343   3.034   7.039   1.006  0.5753 -0.7766 -0.1349
13770SOL     OW44344   7.979   6.284   2.289 -0.5278 -0.5680  0.1914
13770SOL    HW144345   7.911   6.325   2.348 -1.5394 -2.4597  0.3936
13770SOL    HW244346   7.946   6.283   2.194  0.0879  0.3239 -0.0427
13772SOL     OW44347   1.673   7.525   7.127 -0.1610  0.6727 -0.0312
13772SOL    HW144348   1.619   7.511   7.045 -0.9477 -2.5587  0.9911
13772SOL    HW244349   1.679   7.623   7.146 -1.3000  1.3771 -3.0111
13773SOL     OW44350   2.311   2.308   4.952 -0.5596  0.0878  0.4995
13773SOL    HW144351   2.252   2.246   5.004 -0.5682  0.3633  0.8190
13773SOL    HW244352   2.352   2.375   5.014  0.8810 -0.7215  0.4261
13775SOL     OW44353   7.093   6.387   5.095 -0.1527 -0.3348  0.0877
13775SOL    HW144354   7.014   6.432   5.137 -1.5598 -2.2505 -0.4395
13775SOL    HW244355   7.062   6.330   5.018  1.7199 -1.2276 -0.0336
13776SOL     OW44356   9.795   1.426   3.745  0.2682  0.0411 -0.0385
13776SOL    HW144357   9.700   1.455   3.756  0.7724  2.1514 -1.0180
13776SOL    HW244358   9.800   1.350   3.680 -0.5589  1.2806 -1.5865
13777SOL     OW44359   1.557   6.032   7.790  0.0932  1.0595  0.4711
13777SOL    HW144360   1.588   5.989   7.875  0.8830 -1.0583 -0.8537
13777SOL    HW244361   1.469   6.077   7.806 -0.2574 -0.1850  2.1487
13778SOL     OW44362   2.063   5.868   5.471 -0.2673 -0.5347 -0.5221
13778SOL    HW144363   2.047   5.781   5.423  0.7588 -0.0918 -1.7101
13778SOL    HW244364   2.005   5.873   5.552 -1.4924 -1.6453 -1.3062
13779SOL     OW44365   3.205   0.843   4.555  0.3329  0.0272 -0.7241
13779SOL    HW144366   3.272   0.777   4.590 -1.2749  0.4899  3.5433
13779SOL    HW244367   3.119   0.796   4.536  0.4802  0.2054 -1.8793
13780SOL     OW44368   0.438   5.517   1.554  0.2301  0.0950 -0.3792
13780SOL    HW144369   0.415   5.604   1.598  0.1795 -0.4495  0.7063
13780SOL    HW244370   0.427   5.443   1.621  0.7639 -0.6818 -1.1508
13782SOL     OW44371   2.589   1.588   5.094  0.2148 -0.4785  0.0136
13782SOL    HW144372   2.619   1.649   5.021 -0.9929 -0.4065 -0.4410
13782SOL    HW244373   2.513   1.532   5.061 -0.3054 -0.4785  1.1871
13784SOL     OW44374   2.642   7.182   6.544 -0.5514 -0.5522  0.0045
13784SOL    HW144375   2.723   7.233   6.514 -1.7526  0.9065 -0.8394
13784SOL    HW244376   2.650   7.160   6.641 -0.0723  1.4057  0.4299
13785SOL     OW44377   9.165   3.430   0.858  0.3280  0.1394 -0.1547
13785SOL    HW144378   9.105   3.497   0.813 -1.1722 -1.3821 -0.4711
13785SOL    HW244379   9.130   3.409   0.949  1.6641  0.9311  0.5538
13786SOL     OW44380   9.694   8.114   5.566 -0.2394 -0.1749  0.0349
13786SOL    HW144381   9.646   8.176   5.628  0.5810  0.7918 -0.2842
13786SOL    HW244382   9.645   8.112   5.478 -0.2066  0.1183  0.0063
13787SOL     OW44383   2.535   5.396   4.439 -0.5622 -0.5519 -0.4920
13787SOL    HW144384   2.526   5.304   4.476  0.0430 -0.3217  0.2479
13787SOL    HW244385   2.523   5.394   4.340 -4.0013 -0.9324 -0.1329
13788SOL     OW44386   0.197   5.597   4.731  0.3057 -0.2858  0.3274
13788SOL    HW144387   0.172   5.693   4.741  0.1226 -0.3072  0.0946
13788SOL    HW244388   0.170   5.566   4.640  0.9918 -0.3695  0.1551
13789SOL     OW44389   9.442   5.542   6.447 -0.6809 -0.7839 -0.8321
13789SOL    HW144390   9.524   5.499   6.484 -0.7836 -0.4887 -0.2631
13789SOL    HW244391   9.458   5.567   6.351  1.4472  3.2787  0.5084
13790SOL     OW44392   1.106   7.644   3.616 -0.0637  0.0077  0.4641
13790SOL    HW144393   1.163   7.640   3.534 -2.1252  3.8503 -1.2865
13790SOL    HW244394   1.139   7.718   3.676 -0.0550 -1.1775  1.9533
13791SOL     OW44395   2.032   7.639   4.420 -0.1618  0.7124  0.3617
13791SOL    HW144396   1.973   7.674   4.347 -0.8442  0.4362  0.7730
13791SOL    HW244397   2.126   7.632   4.387 -0.6500 -0.4215 -0.8304
13792SOL     OW44398   6.449   1.561   0.062  0.1675  0.3555 -0.3039
13792SOL    HW144399   6.352   1.542   0.047 -0.0964  2.0730 -0.9319
13792SOL    HW244400   6.479   1.518   0.148 -1.4487  0.8413  0.5242
13793SOL     OW44401   4.042   3.964   6.159  0.1723  0.0835  0.1875
13793SOL    HW144402   4.108   3.929   6.092 -1.1459  0.2150 -1.2227
13793SOL    HW244403   4.088   4.028   6.220  1.7472 -1.1854  0.3807
13794SOL     OW44404   2.916   5.462   3.414 -0.7962  0.1308 -0.1931
13794SOL    HW144405   3.013   5.455   3.437 -0.1283  2.7317 -2.0265
13794SOL    HW244406   2.902   5.438   3.318 -2.0208 -0.4668  0.1168
13795SOL     OW44407   9.283   7.101   6.510 -0.0781 -0.2012  0.0205
13795SOL    HW144408   9.212   7.130   6.447  0.5328 -2.8502 -1.9904
13795SOL    HW244409   9.361   7.163   6.504 -0.2430 -0.1283 -1.4622
13796SOL     OW44410   8.469   0.851   3.879  0.4756  0.0915  0.5095
13796SOL    HW144411   8.436   0.942   3.903 -0.6175 -0.0872 -0.2946
13796SOL    HW244412   8.556   0.834   3.926 -0.9783  0.2121  3.3214
13797SOL     OW44413   4.616   7.350   3.033 -0.1937  0.2134 -0.0125
13797SOL    HW144414   4.686   7.397   2.980  0.4889  0.4805  1.1097
13797SOL    HW244415   4.658   7.278   3.088 -0.6799  0.9056  1.2884
13799SOL     OW44416   0.369   4.168   0.365 -0.1448  0.7183  0.0725
13799SOL    HW144417   0.297   4.229   0.399 -0.8675  0.2636 -0.6521
13799SOL    HW244418   0.458   4.209   0.384 -0.6167  1.7798  0.0144
13800SOL     OW44419   2.483   9.214   0.640 -0.6485  0.3306 -0.3186
13800SOL    HW144420   2.396   9.177   0.674 -0.0089 -2.0500 -1.1397
13800SOL    HW244421   2.470   9.306   0.606 -2.4349  0.7399  1.4059
13801SOL     OW44422   2.543   8.187   6.743  0.0663 -0.3206  0.6152
13801SOL    HW144423   2.571   8.104   6.695  1.4716  1.1477 -1.1403
13801SOL    HW244424   2.624   8.237   6.773 -0.7769  0.4516  1.6443
13802SOL     OW44425   4.203   5.148   2.400  0.0701  0.0112  0.0758
13802SOL    HW144426   4.221   5.246   2.410 -0.0982 -0.1229  1.8364
13802SOL    HW244427   4.283   5.104   2.360  0.8499  0.5917  0.9460
13803SOL     OW44428   2.990   9.032   0.111 -0.7741 -0.0425 -0.0450
13803SOL    HW144429   2.998   9.071   0.202 -0.5625 -3.6149  1.5272
13803SOL    HW244430   2.895   9.042   0.079 -1.3065 -0.5578  1.3795
13804SOL     OW44431   0.684   7.815   3.411  0.5720  0.3097 -0.1191
13804SOL    HW144432   0.704   7.902   3.456  0.7575  1.2199 -1.9273
13804SOL    HW244433   0.736   7.742   3.457  1.3424  1.3225  0.6617
13805SOL     OW44434   3.443   5.359   6.220  0.2246  0.6640  0.3207
13805SOL    HW144435   3.537   5.377   6.194  0.8181  0.1049  1.9807
13805SOL    HW244436   3.425   5.261   6.213 -0.5139  0.8781 -0.8605
13806SOL     OW44437   7.163   7.544   5.741 -0.2679 -1.0146  0.3827
13806SOL    HW144438   7.129   7.468   5.685 -0.4291  0.2429 -1.2446
13806SOL    HW244439   7.262   7.535   5.752  0.3350  0.6629 -3.1485
13807SOL     OW44440   6.113   0.113   5.108 -0.6778 -0.3229  0.0462
13807SOL    HW144441   6.109   0.040   5.039  1.0401  1.7259 -2.2935
13807SOL    HW244442   6.075   0.197   5.070  1.3222  1.1366  1.1740
13808SOL     OW44443   2.377   6.279   1.505  0.0909 -0.6017 -0.5033
13808SOL    HW144444   2.381   6.379   1.497  0.4340 -0.5571  0.2281
13808SOL    HW244445   2.299   6.245   1.453  0.0308  0.0399 -0.8377
13810SOL     OW44446   0.298   2.995   4.042  0.6931 -0.4129  0.0619
13810SOL    HW144447   0.243   3.040   4.112  0.0866 -2.4794  0.9600
13810SOL    HW244448   0.255   3.009   3.953  0.6648  1.0032  0.2900
13811SOL     OW44449   0.204   5.246   6.409  0.3588 -0.0591  0.1184
13811SOL    HW144450   0.252   5.296   6.481 -0.3976 -0.2024  0.7349
13811SOL    HW244451   0.125   5.199   6.449  0.9467 -1.5861 -0.4826
13813SOL     OW44452   9.231   7.888   3.343 -0.1963  0.0770 -0.1430
13813SOL    HW144453   9.326   7.918   3.344 -0.3316  0.5195 -0.2347
13813SOL    HW244454   9.174   7.957   3.388 -0.8550  1.1178 -2.4778
13814SOL     OW44455   3.044   9.120   0.421 -0.0656  0.0820 -0.0556
13814SOL    HW144456   3.072   9.200   0.369  0.7605 -0.6779 -0.7972
13814SOL    HW244457   3.040   9.143   0.518  1.8822  0.5752 -0.0725
13815SOL     OW44458   8.116   5.230   4.722 -0.6455 -0.6095 -0.4521
13815SOL    HW144459   8.037   5.287   4.745  0.6841  1.6247 -1.2378
13815SOL    HW244460   8.186   5.240   4.792  0.1327 -0.2382 -1.2794
13816SOL     OW44461   0.276   2.772   6.135  0.3712 -0.3051 -0.0889
13816SOL    HW144462   0.370   2.757   6.166  0.5327  0.8924  0.0221
13816SOL    HW244463   0.213   2.718   6.193  1.0480 -1.9202 -0.8215
13817SOL     OW44464   0.783   3.956   7.065 -0.1135 -0.5367 -0.0527
13817SOL    HW144465   0.862   3.988   7.012 -0.8006  0.9956 -0.2056
13817SOL    HW244466   0.809   3.947   7.161 -0.0007  0.9730  0.0785
13818SOL     OW44467   6.012   9.149   7.306 -0.5503  0.4488 -0.3928
13818SOL    HW144468   5.927   9.103   7.277  0.6388 -1.5240 -0.8356
13818SOL    HW244469   6.090   9.109   7.258  0.7284  1.7142  0.5900
13820SOL     OW44470   1.585   5.178   3.335  0.1338  0.0537  0.1342
13820SOL    HW144471   1.497   5.170   3.290  0.4129  1.1158 -0.6125
13820SOL    HW244472   1.572   5.201   3.431 -0.3892  1.2211 -0.2078
13821SOL     OW44473   0.786   6.243   1.305 -0.0338 -0.6863 -0.3958
13821SOL    HW144474   0.792   6.342   1.294  1.6469 -0.8951 -1.3761
13821SOL    HW244475   0.776   6.199   1.216 -3.3715 -1.2759  0.1770
13822SOL     OW44476   2.873   7.496   4.822  0.1145 -0.1009  0.0005
13822SOL    HW144477   2.935   7.522   4.748 -1.9880  0.9359 -1.4661
13822SOL    HW244478   2.778   7.515   4.794 -0.6911  1.0020  3.2229
13823SOL     OW44479   2.245   4.331   4.865  0.3461  0.1896 -0.5119
13823SOL    HW144480   2.240   4.255   4.800 -2.4565 -0.1888  0.0683
13823SOL    HW244481   2.330   4.324   4.918  1.6783 -0.6493 -2.6967
13824SOL     OW44482   7.939   2.385   4.618  0.1816  0.1533 -0.6050
13824SOL    HW144483   7.930   2.374   4.519  0.2163  0.6054 -0.6590
13824SOL    HW244484   7.860   2.345   4.664 -0.2337  0.6838 -0.8609
13825SOL     OW44485   4.861   1.146   5.485  0.6830 -0.3578 -0.2636
13825SOL    HW144486   4.906   1.106   5.405  0.3589  2.9094 -2.1642
13825SOL    HW244487   4.762   1.137   5.476  0.5485  1.8309 -1.2952
13826SOL     OW44488   6.639   3.271   1.018  0.5450 -0.1492  0.5509
13826SOL    HW144489   6.563   3.230   1.070  0.0658 -0.3168 -0.2628
13826SOL    HW244490   6.611   3.360   0.983  0.7166 -0.2294  0.2124
13828SOL     OW44491   9.362   5.873   0.545  0.0070 -0.3027 -0.0557
13828SOL    HW144492   9.395   5.808   0.476 -0.9011 -0.8539  0.0171
13828SOL    HW244493   9.330   5.823   0.625  0.2509  0.2944  0.4132
13829SOL     OW44494   0.710   4.602   3.651  0.2098  0.5857 -0.2484
13829SOL    HW144495   0.725   4.644   3.741  0.4932 -2.2179  1.0753
13829SOL    HW244496   0.787   4.542   3.629 -1.2279 -1.0554 -0.9711
13830SOL     OW44497   0.444   9.468   4.155 -0.0937  1.0287 -0.8230
13830SOL    HW144498   0.405   9.457   4.063 -2.5220  0.0641  0.2832
13830SOL    HW244499   0.377   9.439   4.223  2.5618 -0.6498  1.1682
13831SOL     OW44500   0.563   6.994   2.460 -0.4625 -0.2036  0.1235
13831SOL    HW144501   0.582   6.981   2.557  0.4688 -0.8314 -0.1344
13831SOL    HW244502   0.517   6.913   2.423  1.3412 -0.9729 -0.4836
13832SOL     OW44503   4.680   6.464   2.207 -0.2430 -1.1902 -0.1535
13832SOL    HW144504   4.628   6.382   2.184 -0.6941 -1.3725  1.4394
13832SOL    HW244505   4.663   6.489   2.303  1.2915 -0.2804 -0.0927
13833SOL     OW44506   9.504   3.474   6.668  0.0491 -0.4306  0.4965
13833SOL    HW144507   9.487   3.569   6.644  0.8100 -0.6291 -0.8960
13833SOL    HW244508   9.417   3.426   6.678 -0.3294 -0.2627 -1.6807
13834SOL     OW44509   2.336   4.388   5.330 -0.2365 -0.2282  0.0299
13834SOL    HW144510   2.387   4.430   5.255  0.1652  0.7125  0.8130
13834SOL    HW244511   2.308   4.458   5.395 -2.5325 -0.7414 -0.3575
13835SOL     OW44512   0.698   5.656   7.587 -0.0621 -0.6729  0.6011
13835SOL    HW144513   0.752   5.582   7.628 -0.0017 -0.8682  0.1758
13835SOL    HW244514   0.760   5.719   7.539 -0.2718 -1.3001 -0.5204
13836SOL     OW44515   4.191   9.490   1.844  0.1766  1.0954  0.0616
13836SOL    HW144516   4.255   9.567   1.840  2.0235 -0.4946 -1.9431
13836SOL    HW244517   4.140   9.484   1.759 -1.4177  1.2662  0.9794
13838SOL     OW44518   9.323   6.917   2.890  0.3626 -1.0618  0.0519
13838SOL    HW144519   9.240   6.962   2.858  0.0926 -1.3985  0.2767
13838SOL    HW244520   9.354   6.852   2.820  0.0678 -1.4152  0.2477
13839SOL     OW44521   0.235   3.651   6.761  0.3605  0.0765  0.2095
13839SOL    HW144522   0.252   3.676   6.665 -1.3623 -0.8475 -0.3557
13839SOL    HW244523   0.322   3.632   6.806  1.1434 -0.1289 -1.3643
13840SOL     OW44524   8.111   3.918   4.092  0.2280  0.0849 -0.5217
13840SOL    HW144525   8.175   3.860   4.142 -0.9587 -0.3807  0.4771
13840SOL    HW244526   8.048   3.860   4.039  1.2804  0.5568 -2.3597
13841SOL     OW44527   0.687   4.087   7.937  0.2943 -0.2938 -0.0075
13841SOL    HW144528   0.696   4.073   8.035  1.0136 -0.0163 -0.0289
13841SOL    HW244529   0.628   4.166   7.920 -0.0154 -0.4817  0.1956
13842SOL     OW44530   7.855   5.159   7.900 -0.0433 -0.9378  0.7320
13842SOL    HW144531   7.836   5.126   7.808  0.1528 -1.3338  0.8332
13842SOL    HW244532   7.953   5.153   7.919 -0.0179 -0.4078  0.7960
13845SOL     OW44533   2.526   1.795   7.453 -0.5906 -0.4869 -0.1040
13845SOL    HW144534   2.451   1.733   7.427 -0.9323 -0.4791  0.8525
13845SOL    HW244535   2.512   1.884   7.409 -1.6448 -0.1972  0.7959
13846SOL     OW44536   8.866   6.559   0.483  0.4100  0.4670  0.0539
13846SOL    HW144537   8.795   6.628   0.473  1.7732  2.0959  1.4176
13846SOL    HW244538   8.838   6.492   0.552 -0.7899 -0.2421 -1.0815
13847SOL     OW44539   0.203   0.691   0.864 -0.6492 -0.0667 -0.5528
13847SOL    HW144540   0.214   0.784   0.898 -2.9515 -0.5110  1.4560
13847SOL    HW244541   0.112   0.680   0.824 -0.1619 -1.2863 -1.3740
13848SOL     OW44542   6.392   0.450   6.259 -0.1431 -0.1104 -0.0526
13848SOL    HW144543   6.349   0.531   6.299  0.0901  0.4189 -0.8486
13848SOL    HW244544   6.490   0.453   6.274  0.0016  0.3091 -1.0111
13851SOL     OW44545   1.660   3.990   7.551  0.7379  1.0550 -0.1767
13851SOL    HW144546   1.661   4.048   7.633 -0.2988  1.4134 -0.4105
13851SOL    HW244547   1.726   3.916   7.562  2.2595  2.4160  0.0375
13852SOL     OW44548   8.332   7.688   7.315  0.4342  0.2766  0.2521
13852SOL    HW144549   8.365   7.702   7.222  1.6445  1.2566  0.8149
13852SOL    HW244550   8.239   7.651   7.312 -0.2008  1.9495 -1.3213
13853SOL     OW44551   8.573   3.643   1.093  0.3346 -0.3184  0.8566
13853SOL    HW144552   8.510   3.625   1.018  0.1054  0.6865  0.7908
13853SOL    HW244553   8.566   3.571   1.161 -2.2976  0.7449  1.7770
13854SOL     OW44554   0.672   3.414   1.694 -0.0643  0.3993 -0.4340
13854SOL    HW144555   0.626   3.325   1.690 -1.0467  0.7141  2.6770
13854SOL    HW244556   0.606   3.487   1.676 -0.1009  0.6861  0.8370
13855SOL     OW44557   2.821   7.418   0.851  0.1900 -0.0661 -0.2393
13855SOL    HW144558   2.849   7.323   0.862  0.3918 -0.1563 -1.5236
13855SOL    HW244559   2.810   7.460   0.942  2.8551 -0.5009  0.3094
13856SOL     OW44560   4.898   3.395   0.599 -0.2403  0.5040 -0.3415
13856SOL    HW144561   4.930   3.320   0.542  1.1805  0.6582  0.2454
13856SOL    HW244562   4.916   3.482   0.552  0.6707  0.6161  0.2118
13857SOL     OW44563   4.571   4.242   6.022 -0.2614  0.0961 -0.4560
13857SOL    HW144564   4.586   4.264   6.118  1.2436  0.0001 -0.6521
13857SOL    HW244565   4.631   4.167   5.995  1.6463  2.1700 -2.2563
13858SOL     OW44566   3.927   8.308   6.973  0.0940  0.7125  0.1377
13858SOL    HW144567   4.025   8.326   6.982 -0.0472  1.1900  0.7605
13858SOL    HW244568   3.876   8.370   7.033 -0.5525  0.0676  0.2676
13859SOL     OW44569   4.783   5.791   1.496 -0.6396  0.1439  0.2971
13859SOL    HW144570   4.783   5.714   1.432 -0.0222 -1.5841  2.3181
13859SOL    HW244571   4.689   5.810   1.526 -0.8892  0.7392 -0.8196
13860SOL     OW44572   8.124   0.329   7.221  0.6048  0.1333  0.5198
13860SOL    HW144573   8.029   0.298   7.226  1.5510 -2.9362  0.3778
13860SOL    HW244574   8.162   0.333   7.314  0.6320  0.3563  0.4981
13861SOL     OW44575   6.944   3.191   2.805 -0.0319 -0.1141 -0.1375
13861SOL    HW144576   6.876   3.201   2.878  1.6767  1.7313  1.2544
13861SOL    HW244577   6.986   3.280   2.787  1.4979 -1.0882 -1.5018
13862SOL     OW44578   7.959   1.744   4.645 -0.3320  0.1571 -0.2387
13862SOL    HW144579   7.954   1.651   4.683 -0.3508  0.1806 -0.1837
13862SOL    HW244580   8.047   1.785   4.669 -0.1405 -0.0118 -0.6426
13863SOL     OW44581   9.765   2.791   1.464 -0.5622  0.2285 -0.0231
13863SOL    HW144582   9.710   2.741   1.396  0.9713  0.7662 -1.6885
13863SOL    HW244583   9.756   2.747   1.553 -1.6012 -1.2490 -0.8407
13865SOL     OW44584   0.140   3.016   6.154 -0.1992 -0.0485  0.5315
13865SOL    HW144585   0.145   2.917   6.151  0.7007  0.0358 -1.8269
13865SOL    HW244586   0.228   3.053   6.184 -0.5815  0.0456  1.5592
13866SOL     OW44587   5.246   4.620   6.949  0.0471  0.5873  0.1209
13866SOL    HW144588   5.249   4.665   6.859 -4.1510 -0.0334 -0.4490
13866SOL    HW244589   5.232   4.689   7.020  2.2924  0.9717  0.2142
13867SOL     OW44590   0.633   1.651   0.641  0.5419  0.3455  0.2274
13867SOL    HW144591   0.554   1.650   0.702  1.3126 -1.8674  1.2331
13867SOL    HW244592   0.683   1.737   0.654 -1.4449  1.6010 -0.1473
13868SOL     OW44593   8.863   0.659   3.395 -0.3604 -0.5783  0.3987
13868SOL    HW144594   8.901   0.585   3.340 -1.4058 -1.1028  0.3569
13868SOL    HW244595   8.878   0.746   3.348  2.6509 -0.5076  1.4079
13869SOL     OW44596   6.732   1.131   3.244 -0.1411 -0.5253 -0.3571
13869SOL    HW144597   6.773   1.068   3.178 -0.8195  0.4234 -1.7036
13869SOL    HW244598   6.800   1.155   3.313  0.6764 -1.2721 -0.8900
13870SOL     OW44599   9.040   3.382   5.306  0.0254  0.0086  0.2251
13870SOL    HW144600   9.021   3.388   5.208 -2.4121 -0.9721  0.5977
13870SOL    HW244601   9.088   3.297   5.325 -0.9919 -0.6027  0.0869
13871SOL     OW44602   3.011   0.859   0.038  0.4468  0.0049  0.3177
13871SOL    HW144603   3.099   0.878   0.083 -0.0488 -0.5635  1.5469
13871SOL    HW244604   2.991   0.761   0.045  0.0763  0.0123 -0.6316
13872SOL     OW44605   8.623   7.561   6.400 -0.8288 -0.2402 -0.0136
13872SOL    HW144606   8.610   7.648   6.447  3.1262  0.1076  0.6210
13872SOL    HW244607   8.597   7.485   6.460 -0.3377  0.3732  0.9765
13874SOL     OW44608   8.478   2.682   5.618  0.1238 -0.0833  0.4278
13874SOL    HW144609   8.469   2.583   5.611  0.3330 -0.0941  0.3197
13874SOL    HW244610   8.428   2.725   5.542 -0.3869 -0.0880  0.7581
13875SOL     OW44611   7.753   1.208   2.282  0.3437  0.1805  0.1901
13875SOL    HW144612   7.789   1.253   2.200  1.6386 -0.0593  0.6119
13875SOL    HW244613   7.717   1.118   2.259 -1.2635  0.9824 -0.4756
13876SOL     OW44614   1.131   1.125   1.939  0.0728 -0.4004 -0.2123
13876SOL    HW144615   1.176   1.190   1.878 -0.1826  1.2531  1.3475
13876SOL    HW244616   1.045   1.094   1.897 -0.5512  1.4144 -0.3148
13877SOL     OW44617   2.414   2.356   5.540  0.0382 -0.0566 -0.0312
13877SOL    HW144618   2.419   2.315   5.631 -1.8562 -1.3065 -0.4611
13877SOL    HW244619   2.399   2.455   5.549  0.8731 -0.0118  1.0004
13878SOL     OW44620   1.372   7.656   4.186 -0.6710  0.1573 -0.2080
13878SOL    HW144621   1.394   7.644   4.283 -0.5443  3.5110  0.2469
13878SOL    HW244622   1.408   7.580   4.133  0.0428 -1.2663  2.2691
13879SOL     OW44623   6.911   7.685   6.306  0.3986 -0.5947 -0.1257
13879SOL    HW144624   6.844   7.610   6.309  0.0996 -0.3283 -0.1392
13879SOL    HW244625   6.932   7.715   6.398  1.5010 -1.5644 -0.0474
13880SOL     OW44626   9.061   9.331   6.589 -0.0124  0.2352  0.5860
13880SOL    HW144627   8.996   9.302   6.519 -1.6015  0.3874  1.9753
13880SOL    HW244628   9.056   9.271   6.668  0.4865  1.1117  1.3043
13881SOL     OW44629   4.689   0.062   0.785 -0.4170 -0.1203  0.8297
13881SOL    HW144630   4.771   0.116   0.766 -0.3585 -0.0803  1.1939
13881SOL    HW244631   4.613   0.123   0.807 -0.6468 -0.1413  0.1120
13882SOL     OW44632   3.984   2.152   5.502  0.1164  0.5055  0.0375
13882SOL    HW144633   3.897   2.188   5.468 -0.4734  0.3929  1.3873
13882SOL    HW244634   3.969   2.065   5.548  1.2210 -0.3949 -1.2741
13884SOL     OW44635   1.369   7.955   1.249 -0.8421  0.3499  0.4921
13884SOL    HW144636   1.382   7.917   1.340 -0.1783 -1.7863 -0.4628
13884SOL    HW244637   1.344   7.882   1.186 -0.1857  1.6212 -1.2825
13885SOL     OW44638   7.736   1.617   5.240  0.1506 -0.6204  0.6469
13885SOL    HW144639   7.666   1.568   5.291 -2.0928 -1.1351 -2.7418
13885SOL    HW244640   7.715   1.715   5.241 -0.1334 -0.6770  0.3707
13886SOL     OW44641   4.514   0.073   2.746 -0.6759 -0.6918 -0.2534
13886SOL    HW144642   4.535   0.096   2.841  0.4754 -1.9597 -0.1836
13886SOL    HW244643   4.463   0.148   2.704  0.9962  0.9773  0.6159
13887SOL     OW44644   3.202   1.552   3.492  0.8894  0.5168  0.2383
13887SOL    HW144645   3.122   1.601   3.457 -0.7176 -1.9518  0.3333
13887SOL    HW244646   3.284   1.604   3.471 -0.6215  2.4934 -1.0008
13888SOL     OW44647   9.318   6.473   7.404  0.7331  0.2516 -0.1009
13888SOL    HW144648   9.258   6.549   7.430  0.0378 -0.5630  0.7594
13888SOL    HW244649   9.317   6.404   7.477 -0.6979 -1.7716 -1.9597
13889SOL     OW44650   7.847   3.518   2.897 -0.0387 -0.2761  0.0000
13889SOL    HW144651   7.773   3.584   2.888 -0.2322 -0.6841 -1.3794
13889SOL    HW244652   7.873   3.483   2.807  1.3687 -0.6497  0.5291
13890SOL     OW44653   4.461   6.508   3.549 -0.6438  0.4916  0.0390
13890SOL    HW144654   4.516   6.591   3.555 -1.5126  1.0186  0.7526
13890SOL    HW244655   4.502   6.446   3.482  0.0349  1.4656 -0.4531
13891SOL     OW44656   5.064   7.718   2.159 -0.6587  0.3877 -0.1635
13891SOL    HW144657   5.131   7.788   2.184  1.7449 -1.3704 -1.4664
13891SOL    HW244658   5.007   7.751   2.084  0.1807  1.1027 -0.4856
13892SOL     OW44659   8.922   4.258   6.503  0.2334 -0.2236 -0.0290
13892SOL    HW144660   8.974   4.337   6.471 -2.3083  0.7739 -1.8997
13892SOL    HW244661   8.849   4.290   6.564 -0.5397 -1.1787 -0.4497
13893SOL     OW44662   0.277   1.180   1.018 -0.3888  0.3200 -0.5037
13893SOL    HW144663   0.278   1.254   0.951  2.0366  0.5295 -0.2954
13893SOL    HW244664   0.334   1.205   1.097 -0.0324 -1.4945 -0.1441
13894SOL     OW44665   6.255   8.853   2.202  0.1701  0.0664 -0.4743
13894SOL    HW144666   6.189   8.835   2.275  0.4309  0.7586 -0.0652
13894SOL    HW244667   6.207   8.865   2.115 -0.1408 -0.8181 -0.4299
13895SOL     OW44668   7.552   4.253   3.415 -0.6111 -0.0628  0.4280
13895SOL    HW144669   7.495   4.209   3.484  0.7817 -4.1568 -0.9022
13895SOL    HW244670   7.646   4.217   3.421 -0.1761  0.4002 -2.7589
13897SOL     OW44671   1.004   3.868   6.076 -0.0800  0.6145 -0.4123
13897SOL    HW144672   1.015   3.770   6.093  0.8740  1.0236  1.5497
13897SOL    HW244673   0.943   3.907   6.145  0.5513  1.6216 -0.4098
13898SOL     OW44674   1.244   4.475   7.758 -0.1926  0.4769 -0.5550
13898SOL    HW144675   1.190   4.522   7.828  1.5344  2.1756 -0.3252
13898SOL    HW244676   1.186   4.410   7.709 -1.7891  0.3546  1.4363
13899SOL     OW44677   6.705   7.693   2.272 -0.2353 -0.0638  0.0365
13899SOL    HW144678   6.738   7.710   2.364  1.3051 -1.0454 -0.3301
13899SOL    HW244679   6.672   7.599   2.264 -0.9004  0.1869 -0.2698
13900SOL     OW44680   1.964   1.187   4.455 -0.7508 -0.2012 -0.2956
13900SOL    HW144681   1.867   1.169   4.470 -0.9840 -0.2040 -1.8024
13900SOL    HW244682   2.016   1.102   4.461 -0.4668  0.1284  3.1186
13901SOL     OW44683   7.212   7.242   2.648  0.3885 -0.3347  0.4940
13901SOL    HW144684   7.144   7.172   2.626  1.2669 -0.7377 -1.0735
13901SOL    HW244685   7.295   7.198   2.682  0.9535 -0.0914 -0.5227
13903SOL     OW44686   8.702   6.001   0.205  0.5114  0.6825  0.5756
13903SOL    HW144687   8.711   6.019   0.107  0.5200 -0.3310  0.3779
13903SOL    HW244688   8.613   6.031   0.238  1.4599  3.3436  0.8005
13904SOL     OW44689   7.498   3.771   0.250 -0.1182  0.9317  0.0439
13904SOL    HW144690   7.459   3.835   0.184 -2.1759 -0.5558 -0.2314
13904SOL    HW244691   7.596   3.761   0.233 -0.3479  1.6973 -1.8357
13905SOL     OW44692   5.993   5.320   1.333 -0.2229 -0.7669 -0.6088
13905SOL    HW144693   6.008   5.392   1.401 -0.4446  0.4759 -1.8263
13905SOL    HW244694   5.989   5.362   1.242  0.7914 -2.4731 -1.4643
13906SOL     OW44695   2.477   6.913   2.211  0.4250  0.2569 -0.6940
13906SOL    HW144696   2.488   6.991   2.273 -2.5615  0.3577 -0.2014
13906SOL    HW244697   2.426   6.942   2.130  0.1500 -0.9529 -0.9698
13907SOL     OW44698   6.427   1.036   0.633 -0.3536 -0.0321  0.6915
13907SOL    HW144699   6.475   0.975   0.696  2.4431  1.1490 -0.2119
13907SOL    HW244700   6.458   1.130   0.647  0.0568  0.3216 -2.1444
13909SOL     OW44701   7.224   9.742   5.793  0.3621 -0.0756  0.7808
13909SOL    HW144702   7.222   9.643   5.801 -0.3928 -0.1300  0.0243
13909SOL    HW244703   7.295   9.769   5.728 -0.4959 -0.2111 -0.2182
13910SOL     OW44704   9.235   8.607   4.735 -0.1127  0.0016 -0.0791
13910SOL    HW144705   9.230   8.526   4.792 -0.2997  0.1282  0.0824
13910SOL    HW244706   9.243   8.580   4.639  1.1226 -0.2109  0.0796
13912SOL     OW44707   3.065   1.483   0.780 -0.1939 -0.5896  0.2734
13912SOL    HW144708   3.027   1.457   0.869  0.8807 -1.0218  0.6041
13912SOL    HW244709   3.040   1.414   0.712 -4.8315  1.9080 -0.7918
13913SOL     OW44710   5.565   8.050   6.534 -0.0920  0.6526 -0.4032
13913SOL    HW144711   5.623   7.971   6.555 -2.5964 -1.1477 -0.0617
13913SOL    HW244712   5.538   8.047   6.438 -0.2726  1.0543 -0.3645
13914SOL     OW44713   5.606   1.289   6.181 -0.1948 -0.0316 -0.2849
13914SOL    HW144714   5.523   1.267   6.130 -0.2072  1.8300 -1.1164
13914SOL    HW244715   5.622   1.219   6.250 -3.5269  0.5210  1.1744
13916SOL     OW44716   1.858   9.945   0.374  0.2044 -0.1086  0.6256
13916SOL    HW144717   1.925  10.019   0.366 -0.0249 -0.0864 -1.3443
13916SOL    HW244718   1.835   9.910   0.283 -1.9440 -0.5940  1.3192
13917SOL     OW44719   5.706   0.041   2.839 -0.5383  0.1836 -0.4443
13917SOL    HW144720   5.658   0.105   2.899 -1.1302 -1.1069  0.4701
13917SOL    HW244721   5.644   0.011   2.766 -0.9371 -0.9987  0.3736
13918SOL     OW44722   7.960   7.220   2.555 -0.1650 -0.4784 -0.0622
13918SOL    HW144723   7.987   7.310   2.522  0.5309 -1.0390 -1.0518
13918SOL    HW244724   7.867   7.224   2.593 -0.5428  0.4189 -1.0676
13919SOL     OW44725   4.760   3.749   7.459 -0.0848  0.0400 -0.4046
13919SOL    HW144726   4.739   3.795   7.545 -0.1113 -1.0436  0.1838
13919SOL    HW244727   4.794   3.656   7.478  1.4961  0.3733 -1.4970
13920SOL     OW44728   4.343   6.842   1.149  0.4004 -0.0361  0.0826
13920SOL    HW144729   4.331   6.789   1.232 -1.9276  0.4571  0.0749
13920SOL    HW244730   4.376   6.782   1.076 -0.7456 -1.1448  0.4725
13921SOL     OW44731   0.577   3.361   0.598 -0.1988  0.2254 -0.2708
13921SOL    HW144732   0.652   3.427   0.600 -0.7949  0.9975 -2.4096
13921SOL    HW244733   0.502   3.395   0.654  0.6005 -0.0281  0.9785
13922SOL     OW44734   0.773   0.296   0.861  0.2553  0.0027  0.0230
13922SOL    HW144735   0.738   0.330   0.948 -0.2904 -0.0330 -0.1789
13922SOL    HW244736   0.784   0.197   0.865 -2.0038 -0.3051 -0.7061
13923SOL     OW44737   7.231   2.759   2.891  0.5466  0.2491 -0.4229
13923SOL    HW144738   7.140   2.783   2.926 -0.6065 -1.6780 -1.9361
13923SOL    HW244739   7.291   2.735   2.967 -1.2293 -1.7300  0.4187
13925SOL     OW44740   4.060   8.870   7.039 -1.0837  0.0407  0.2552
13925SOL    HW144741   4.038   8.899   7.133 -1.3877  2.0390 -0.4214
13925SOL    HW244742   4.155   8.839   7.035 -0.2872  2.3715  0.6768
13926SOL     OW44743   8.083   4.080   3.473  0.0927 -0.1834  0.0573
13926SOL    HW144744   7.999   4.104   3.425  0.7130 -0.2020 -1.0582
13926SOL    HW244745   8.069   4.088   3.572  0.0292  3.9610 -0.2312
13927SOL     OW44746   3.134   5.554   2.970 -0.3684  0.1215  0.0753
13927SOL    HW144747   3.193   5.634   2.956  0.1293 -0.1862  0.3957
13927SOL    HW244748   3.078   5.569   3.052  0.8421 -0.5114  1.0332
13929SOL     OW44749   8.518   0.417   2.954  1.1987 -0.6318  0.4901
13929SOL    HW144750   8.481   0.462   3.036  2.1252  3.4891 -1.2492
13929SOL    HW244751   8.444   0.399   2.890  0.8944 -1.0558  0.9594
13931SOL     OW44752   9.414   9.226   7.359  0.3084  0.3670 -0.1355
13931SOL    HW144753   9.509   9.199   7.344  0.4633  0.4267  0.7055
13931SOL    HW244754   9.405   9.266   7.450 -0.5072  0.4505 -0.2500
13933SOL     OW44755   0.881   9.956   2.848 -0.4061 -0.3752  0.4607
13933SOL    HW144756   0.963   9.991   2.802 -0.0278  1.7821  2.6774
13933SOL    HW244757   0.906   9.877   2.904 -0.1013 -0.5849  0.0259
13935SOL     OW44758   3.674   9.470   7.510 -0.2160  0.4324  0.3226
13935SOL    HW144759   3.597   9.532   7.526  0.4396  1.2670  0.2423
13935SOL    HW244760   3.724   9.498   7.428  0.0622 -0.2178  0.2683
13936SOL     OW44761   4.050   9.293   5.599 -0.1218  0.3531 -0.3115
13936SOL    HW144762   4.090   9.370   5.649  0.8774 -0.5568  0.3029
13936SOL    HW244763   4.015   9.225   5.664 -0.2822 -0.0817 -0.8487
13940SOL     OW44764   8.495   5.517   6.566 -0.2889 -0.4771 -0.0222
13940SOL    HW144765   8.553   5.482   6.493 -1.6085 -2.7204 -0.0500
13940SOL    HW244766   8.427   5.579   6.527  1.5959  1.5907 -0.0855
13942SOL     OW44767   0.519   1.828   0.848  0.0369 -0.0405 -0.2654
13942SOL    HW144768   0.443   1.893   0.858  0.8438  0.6830  1.2720
13942SOL    HW244769   0.602   1.867   0.889  0.8845 -1.4386 -0.6322
13944SOL     OW44770   3.423   4.082   1.682  0.2497 -0.1281  0.1255
13944SOL    HW144771   3.366   4.025   1.623  0.1116 -1.4180  1.4945
13944SOL    HW244772   3.516   4.085   1.646 -0.1531  0.1948 -0.9007
13946SOL     OW44773   8.268   3.545   3.163  0.5116 -0.5744  0.0460
13946SOL    HW144774   8.303   3.609   3.231 -0.2571  2.2197 -2.1159
13946SOL    HW244775   8.168   3.540   3.169  0.4418 -0.3539 -0.8194
13947SOL     OW44776   1.229   5.628   4.450  0.0416  0.1323  0.4762
13947SOL    HW144777   1.157   5.591   4.393 -1.1699  1.1573  1.3115
13947SOL    HW244778   1.225   5.587   4.541 -0.1594  0.9528  0.8461
13948SOL     OW44779   3.094   5.568   4.473 -0.6892  0.0340  0.3620
13948SOL    HW144780   3.144   5.570   4.560 -0.9671  0.7862  0.5135
13948SOL    HW244781   3.092   5.660   4.434  0.0393 -0.4331 -0.7947
13949SOL     OW44782   0.969   2.600   0.229 -0.5581  0.2234  0.1592
13949SOL    HW144783   1.061   2.560   0.237 -0.8100 -0.2154  0.9504
13949SOL    HW244784   0.905   2.529   0.200 -0.6333  0.5474 -0.4640
13951SOL     OW44785   4.425   4.563   5.436 -1.0232  0.0220 -0.4470
13951SOL    HW144786   4.490   4.502   5.479 -0.2987  0.8804 -0.3069
13951SOL    HW244787   4.472   4.618   5.366 -2.1192 -1.1940 -2.2040
13952SOL     OW44788   3.244   1.513   6.293  0.0893  0.0209 -0.5610
13952SOL    HW144789   3.172   1.563   6.341  0.5190  0.3408 -0.2427
13952SOL    HW244790   3.302   1.467   6.360 -1.3062 -2.3240 -0.8992
13953SOL     OW44791   8.150   6.856   6.275 -0.1228  0.2412 -0.1677
13953SOL    HW144792   8.192   6.945   6.297  1.9980 -0.7562 -0.0352
13953SOL    HW244793   8.086   6.867   6.199 -0.4195  2.0068  0.3032
13954SOL     OW44794   7.411   3.227   3.406  0.4561  0.3530  0.0524
13954SOL    HW144795   7.478   3.268   3.344  0.8825 -0.9788 -0.3885
13954SOL    HW244796   7.321   3.230   3.363  0.4595  0.9137  0.0712
13955SOL     OW44797   9.048   8.422   4.211 -0.4526  0.5033 -0.3503
13955SOL    HW144798   9.037   8.401   4.114  1.7608 -0.4995 -0.3972
13955SOL    HW244799   8.968   8.474   4.242 -1.0984  1.0182 -2.7400
13956SOL     OW44800   8.317   2.678   1.569 -0.1928  0.3460 -0.5132
13956SOL    HW144801   8.230   2.715   1.601  0.1846  1.0109 -0.2295
13956SOL    HW244802   8.326   2.694   1.470 -1.2975 -1.5776 -0.9461
13957SOL     OW44803   2.926   9.907   2.672  0.0788  0.0572 -0.6332
13957SOL    HW144804   2.936   9.877   2.767 -1.3513  0.8600 -0.2139
13957SOL    HW244805   2.986   9.985   2.655 -1.3007  1.3069  0.2426
13958SOL     OW44806   3.220   0.800   2.631  0.2079  0.4902 -0.6433
13958SOL    HW144807   3.280   0.873   2.663 -0.7593  0.3041  1.7107
13958SOL    HW244808   3.125   0.831   2.634 -0.2781 -1.0668  1.0712
13959SOL     OW44809   3.683   4.180   6.354 -0.4310  0.2581  0.5750
13959SOL    HW144810   3.602   4.207   6.406 -0.2573 -0.7976  1.4179
13959SOL    HW244811   3.655   4.129   6.273 -0.5969 -1.0096  1.4081
13960SOL     OW44812   4.625   3.014   1.716 -0.2916  0.1527 -0.4926
13960SOL    HW144813   4.665   2.934   1.671  0.0648  0.5583 -0.9033
13960SOL    HW244814   4.551   2.985   1.777  0.1695 -0.5415 -0.2549
13961SOL     OW44815   1.476   7.328   3.738  0.1181  0.1364  0.5525
13961SOL    HW144816   1.441   7.320   3.645  1.8115 -0.2945 -0.0539
13961SOL    HW244817   1.420   7.273   3.800 -0.0356 -0.8791 -0.4781
13962SOL     OW44818   9.378   0.468   1.292  0.1686 -0.3349  0.1158
13962SOL    HW144819   9.453   0.528   1.319 -0.0318 -0.0297  0.0044
13962SOL    HW244820   9.313   0.460   1.368 -0.2055  0.2238 -0.1346
13963SOL     OW44821   7.205   0.617   5.815  0.1129 -0.0932  0.3137
13963SOL    HW144822   7.125   0.675   5.829  0.4019  0.4695 -0.3333
13963SOL    HW244823   7.246   0.595   5.904 -2.0407 -2.2592  0.8236
13965SOL     OW44824   1.307   5.238   2.824 -0.4400 -0.2052  0.4651
13965SOL    HW144825   1.367   5.315   2.800 -2.5784  1.0987 -0.9330
13965SOL    HW244826   1.273   5.251   2.917 -0.8021  0.5695  0.2334
13966SOL     OW44827   7.434   9.845   5.636 -0.7607  0.4187 -0.0847
13966SOL    HW144828   7.387   9.922   5.594 -0.2112  0.1149 -1.2796
13966SOL    HW244829   7.491   9.877   5.712 -0.8946  1.1267 -0.2859
13967SOL     OW44830   3.047   9.205   3.775 -0.4548 -0.2549 -0.1988
13967SOL    HW144831   3.132   9.253   3.750  0.0729 -0.8690  0.3805
13967SOL    HW244832   3.001   9.175   3.692  1.2560 -2.2242 -0.4827
13970SOL     OW44833   9.484   9.789   3.972  0.8228 -0.0883 -0.1279
13970SOL    HW144834   9.471   9.884   3.998  0.6501 -0.4756  1.2288
13970SOL    HW244835   9.503   9.783   3.874 -0.5482  1.2114 -0.4729
13971SOL     OW44836   8.910   5.725   5.475  0.8601  0.2215 -0.3937
13971SOL    HW144837   9.001   5.765   5.459  2.7283 -1.5740  4.7438
13971SOL    HW244838   8.911   5.629   5.446  1.1454 -0.2181  1.0126
13972SOL     OW44839   8.643   1.839   3.213 -0.0341  0.0419  0.1391
13972SOL    HW144840   8.567   1.860   3.151  0.0733 -0.0935 -0.0397
13972SOL    HW244841   8.663   1.741   3.210  1.3866  0.3481 -1.2604
13973SOL     OW44842   1.667   4.874   7.017 -0.3440  0.2307 -0.1530
13973SOL    HW144843   1.618   4.840   7.097  0.7731 -0.9311  0.0442
13973SOL    HW244844   1.641   4.822   6.936  0.9502 -0.7627  0.0499
13975SOL     OW44845   6.167   5.399   7.867 -0.0431  0.4177 -0.3470
13975SOL    HW144846   6.212   5.479   7.908  0.9023 -0.6304  0.6858
13975SOL    HW244847   6.141   5.420   7.773  1.2133  1.5691 -0.4547
13976SOL     OW44848   8.765   1.586   3.212 -0.6507 -0.0953  0.1662
13976SOL    HW144849   8.816   1.506   3.180  0.2655  0.9405 -1.0193
13976SOL    HW244850   8.807   1.669   3.175 -1.2078  0.9794  1.8974
13977SOL     OW44851   0.054   2.185   0.298  0.4534  0.3170 -0.6031
13977SOL    HW144852  -0.021   2.129   0.333 -0.2723  0.8309 -1.3066
13977SOL    HW244853   0.131   2.182   0.362 -0.3606  0.1978  0.3842
13978SOL     OW44854   3.679   1.710   0.065  0.3764 -0.0636  0.1137
13978SOL    HW144855   3.750   1.654   0.023 -0.2412  0.3682 -1.5300
13978SOL    HW244856   3.626   1.653   0.129  0.2277 -1.1617 -0.9679
13979SOL     OW44857   2.013   5.541   6.589  0.3574 -0.0836  0.1516
13979SOL    HW144858   2.007   5.478   6.511 -1.1214 -1.5878  1.4220
13979SOL    HW244859   1.935   5.525   6.650 -1.0601  4.2112 -0.3455
13980SOL     OW44860   4.485   1.803   4.708  0.1345  0.2548 -0.3360
13980SOL    HW144861   4.474   1.882   4.769 -0.1080  1.3247 -1.7265
13980SOL    HW244862   4.422   1.730   4.735  1.0786  0.1223  1.5972
13981SOL     OW44863   2.468   7.100   2.390 -0.0093 -0.2546  0.6369
13981SOL    HW144864   2.506   7.057   2.472 -0.3076  0.1695  1.0003
13981SOL    HW244865   2.370   7.114   2.402 -0.3890 -1.7741 -0.4803
13982SOL     OW44866   2.295   7.247   2.069 -0.2904 -0.4599 -0.1177
13982SOL    HW144867   2.203   7.275   2.041  0.4169  0.8611 -1.2019
13982SOL    HW244868   2.348   7.327   2.095  0.0205 -1.3848  2.2376
13984SOL     OW44869   9.104   9.981   5.858  0.0224  0.0933 -0.0413
13984SOL    HW144870   9.154   9.914   5.804  0.2122 -0.7946  1.1900
13984SOL    HW244871   9.121   9.964   5.956 -1.2423  0.8994  0.3368
13985SOL     OW44872   0.433   5.025   2.917  0.2888 -0.2142  0.8346
13985SOL    HW144873   0.341   4.992   2.937  0.5675 -1.9120 -0.5188
13985SOL    HW244874   0.473   4.970   2.843  2.3353  0.5675  1.3089
13986SOL     OW44875   7.565   2.098   3.874 -0.1031 -0.6444  0.8106
13986SOL    HW144876   7.635   2.067   3.939  1.6079 -1.8448 -1.5526
13986SOL    HW244877   7.607   2.115   3.785 -2.5654  0.1643 -0.2381
13987SOL     OW44878   0.135   4.735   5.806 -0.1297  0.3314 -0.6668
13987SOL    HW144879   0.086   4.821   5.818  0.9154  1.0344 -1.3613
13987SOL    HW244880   0.177   4.732   5.716  3.6068  1.0921  0.9423
13989SOL     OW44881   2.297   8.679   5.728  0.0721  0.3047  0.4220
13989SOL    HW144882   2.363   8.741   5.770  1.0222  0.9734 -1.9668
13989SOL    HW244883   2.245   8.728   5.658 -1.6200 -0.7145  0.9364
13992SOL     OW44884   5.717   8.995   3.230 -0.1388 -0.2382  0.0072
13992SOL    HW144885   5.774   8.916   3.252  1.0213  0.0283 -1.8958
13992SOL    HW244886   5.721   9.061   3.305  0.2753 -1.2100  0.8586
13993SOL     OW44887   0.845   6.603   2.809 -0.1764 -0.0287  0.5706
13993SOL    HW144888   0.795   6.680   2.768  0.5150  0.0412 -0.1523
13993SOL    HW244889   0.929   6.638   2.852  0.4498 -0.4477 -0.2911
13994SOL     OW44890   1.457   0.499   6.442 -0.3485 -0.0024 -0.1022
13994SOL    HW144891   1.380   0.508   6.505 -1.1616  0.1170 -1.1008
13994SOL    HW244892   1.542   0.505   6.493 -1.0033 -2.3680  1.3443
13995SOL     OW44893   0.978   8.027   5.890 -0.7328 -0.3289  0.6167
13995SOL    HW144894   0.940   8.035   5.982 -2.6430  3.9346 -0.4274
13995SOL    HW244895   1.068   8.073   5.888 -0.8065 -0.1998  0.3148
13996SOL     OW44896   2.888   2.403   0.515  0.0849  0.1292 -0.2608
13996SOL    HW144897   2.986   2.405   0.495  0.0656 -0.5035 -0.4630
13996SOL    HW244898   2.872   2.431   0.610  0.1754  3.2631 -1.1327
13997SOL     OW44899   4.829   5.407   4.140 -0.1574  0.2130 -0.2490
13997SOL    HW144900   4.855   5.404   4.043 -0.4865  0.4295 -0.3410
13997SOL    HW244901   4.795   5.317   4.168  3.8469 -1.1290  0.7319
13998SOL     OW44902   0.241   6.170   5.185  0.2244  0.4886  0.0388
13998SOL    HW144903   0.288   6.153   5.099 -0.7232  0.7872 -0.5410
13998SOL    HW244904   0.299   6.225   5.245  0.9543  0.1297 -0.3324
13999SOL     OW44905   4.421   1.623   1.409  0.7286 -0.0735 -0.4148
13999SOL    HW144906   4.502   1.671   1.444  0.3068 -0.3586  0.9858
13999SOL    HW244907   4.352   1.690   1.381  1.4019  0.1685 -1.4955
14001SOL     OW44908   7.462   9.396   2.542  0.0392 -0.3194 -0.4841
14001SOL    HW144909   7.405   9.456   2.486 -1.6486  0.7022  2.2008
14001SOL    HW244910   7.424   9.304   2.541  0.0107 -0.3016 -0.9987
14002SOL     OW44911   5.122   5.699   1.162  0.0044  0.2099  0.0881
14002SOL    HW144912   5.113   5.605   1.130 -0.0709 -0.5463  2.2798
14002SOL    HW244913   5.036   5.748   1.146  0.0027 -0.1147 -0.9397
14003SOL     OW44914   6.847   2.931   2.764  0.1463 -0.1629  0.5005
14003SOL    HW144915   6.776   2.964   2.702 -0.7240 -0.2777  1.4275
14003SOL    HW244916   6.915   3.004   2.777 -0.1283  0.1700  0.1084
14004SOL     OW44917   7.986   8.889   2.448  0.0893  0.1821 -0.2017
14004SOL    HW144918   8.008   8.852   2.539  0.8392 -2.0753 -1.2424
14004SOL    HW244919   8.057   8.860   2.384 -1.9826 -0.7848 -2.1082
14006SOL     OW44920   1.641   4.916   1.125  0.3427 -0.7726 -0.3185
14006SOL    HW144921   1.547   4.908   1.158  0.3762  0.4367  0.0623
14006SOL    HW244922   1.704   4.920   1.202  0.5227  0.7543 -0.5407
14007SOL     OW44923   1.996   6.051   6.293  0.3990 -0.3257  0.0607
14007SOL    HW144924   1.946   6.134   6.268  1.8628  0.9623  1.2957
14007SOL    HW244925   2.091   6.074   6.313  0.7150 -2.2289  0.8622
14008SOL     OW44926   5.729   1.191   4.952  0.0922 -0.4176 -0.2522
14008SOL    HW144927   5.738   1.161   5.047  0.3575  1.5147  0.3615
14008SOL    HW244928   5.816   1.178   4.905  0.4782  0.1986  0.2671
14009SOL     OW44929   2.301   5.323   7.808  0.7174  0.3884 -0.2858
14009SOL    HW144930   2.382   5.378   7.832 -0.4663  1.9505  0.1983
14009SOL    HW244931   2.221   5.360   7.854 -0.6728  0.1902 -2.4905
14012SOL     OW44932   0.517   5.498   2.431 -0.3792  0.3730  0.2088
14012SOL    HW144933   0.430   5.449   2.439 -0.5435  0.6198 -0.0699
14012SOL    HW244934   0.524   5.540   2.341 -0.0055  0.4249  0.2604
14013SOL     OW44935   3.118   7.192   3.210 -0.0605 -0.0199  0.2458
14013SOL    HW144936   3.144   7.204   3.306 -2.0170 -2.3888  1.1283
14013SOL    HW244937   3.193   7.222   3.151  2.2816 -1.0667  2.5903
14014SOL     OW44938   9.683   8.417   4.315  0.3031 -0.2244 -0.2749
14014SOL    HW144939   9.667   8.475   4.235  0.8804  1.7736  1.0382
14014SOL    HW244940   9.780   8.415   4.336 -0.1229  1.3651  1.9306
14015SOL     OW44941   1.934   2.499   5.974 -0.2231  0.0758  0.1250
14015SOL    HW144942   1.966   2.569   6.037 -0.8464 -0.5223  1.1079
14015SOL    HW244943   1.886   2.543   5.897 -1.0311  0.7108  0.9749
14016SOL     OW44944   8.556   9.039   2.465  0.3838  0.2487  0.6565
14016SOL    HW144945   8.501   9.045   2.382 -1.5506  1.0630  1.9641
14016SOL    HW244946   8.540   8.951   2.510  0.7390  0.1685  0.6254
14017SOL     OW44947   1.725   4.026   4.360  0.2928  0.7262 -0.2316
14017SOL    HW144948   1.715   4.007   4.458 -0.9194  0.4284 -0.4121
14017SOL    HW244949   1.669   3.962   4.307 -1.0300  2.4721 -1.0026
14018SOL     OW44950   7.735   1.331   2.656 -0.5021 -0.2003  0.3319
14018SOL    HW144951   7.766   1.254   2.601 -1.3845 -0.0575 -0.3734
14018SOL    HW244952   7.802   1.405   2.651 -0.9568  0.1273 -1.2127
14019SOL     OW44953   1.329   4.251   2.507  0.0191 -0.1341  0.1344
14019SOL    HW144954   1.314   4.340   2.551 -0.2010 -0.2425  0.2855
14019SOL    HW244955   1.362   4.186   2.576 -0.2345 -0.2796  0.1206
14020SOL     OW44956   2.318   9.877   6.632  0.0419  0.0521 -0.3720
14020SOL    HW144957   2.292   9.781   6.624 -1.4139  0.5205 -1.4270
14020SOL    HW244958   2.378   9.902   6.556 -0.1299  0.1525 -0.4743
14021SOL     OW44959   4.208   3.369   2.630  0.4919  0.1963  0.5875
14021SOL    HW144960   4.282   3.419   2.675  1.3058 -1.2133  0.8464
14021SOL    HW244961   4.203   3.276   2.667  1.5752 -1.1918 -2.5632
14022SOL     OW44962   0.041   3.323   4.511  0.3766 -0.6882 -0.1105
14022SOL    HW144963  -0.010   3.239   4.530 -1.8442  0.3198 -1.4227
14022SOL    HW244964   0.030   3.347   4.415  2.2892  0.2635 -0.1031
14023SOL     OW44965   1.347   6.319   7.345  0.7155  0.1575 -0.0588
14023SOL    HW144966   1.250   6.309   7.370  1.0501  1.5537  1.9170
14023SOL    HW244967   1.360   6.406   7.298  1.1699  0.4545  0.6060
14024SOL     OW44968   0.373   9.503   3.892  0.3631 -0.0331  0.6051
14024SOL    HW144969   0.413   9.594   3.881 -1.6992  0.6544 -1.7847
14024SOL    HW244970   0.395   9.447   3.812 -0.8314 -0.6352  0.6801
14025SOL     OW44971   1.068   4.084   2.747 -0.1239  0.3630 -0.0543
14025SOL    HW144972   1.025   4.068   2.836 -0.5636  1.1552 -0.1259
14025SOL    HW244973   1.024   4.161   2.701  0.9505  0.7707 -0.4112
14026SOL     OW44974   3.174   6.144   4.990  0.2418  0.2056  0.0379
14026SOL    HW144975   3.222   6.111   5.071  0.2033 -0.0404 -0.0402
14026SOL    HW244976   3.080   6.168   5.014 -0.6956 -2.7431 -0.5561
14027SOL     OW44977   5.543   3.767   0.959 -0.3787  0.4795 -0.2963
14027SOL    HW144978   5.522   3.803   0.868  0.1473 -1.0484 -1.0458
14027SOL    HW244979   5.459   3.757   1.012 -0.9095 -0.3169 -1.2749
14028SOL     OW44980   1.813   5.285   6.798  0.2892 -0.0796  0.1063
14028SOL    HW144981   1.827   5.187   6.811  0.4047  0.2222  2.4665
14028SOL    HW244982   1.794   5.304   6.701  0.8089 -2.3472 -0.4609
14029SOL     OW44983   1.462   0.074   7.792 -0.3492 -0.0288  0.0284
14029SOL    HW144984   1.364   0.053   7.801 -0.0235 -0.7727  2.1819
14029SOL    HW244985   1.499   0.097   7.881  1.3019  1.0311 -0.9069
14030SOL     OW44986   4.656   5.494   3.750 -0.8751 -0.1704 -0.0966
14030SOL    HW144987   4.619   5.584   3.776 -3.2352 -0.7956 -1.1040
14030SOL    HW244988   4.679   5.495   3.653  2.3086  0.3517  0.6257
14031SOL     OW44989   1.124   5.729   7.447  0.1237  0.1063  0.5823
14031SOL    HW144990   1.168   5.810   7.485 -0.5191  0.7638 -0.0432
14031SOL    HW244991   1.039   5.710   7.496 -0.3146  0.5050 -0.0018
14032SOL     OW44992   3.270   6.459   1.092  0.2661  0.4027  0.1754
14032SOL    HW144993   3.226   6.375   1.124 -1.3669  1.1154 -0.1095
14032SOL    HW244994   3.285   6.520   1.170  2.0106 -0.3900  0.4718
14033SOL     OW44995   9.086   4.138   6.883 -0.2123  0.6933  0.2031
14033SOL    HW144996   9.015   4.189   6.931  0.2363  1.6755 -0.1514
14033SOL    HW244997   9.174   4.154   6.928  0.2460  1.7921 -1.0487
14035SOL     OW44998   8.602   5.325   4.421  0.1144  0.2459  0.3919
14035SOL    HW144999   8.675   5.393   4.408  1.3285 -0.8832  1.0929
14035SOL    HW245000   8.547   5.350   4.501  0.7887  0.2138  0.8717
14037SOL     OW45001   2.921   6.006   6.760 -0.0397  0.1682  0.2496
14037SOL    HW145002   2.844   6.018   6.696  1.1278  1.5808 -0.9393
14037SOL    HW245003   2.898   6.049   6.848 -1.0064 -0.3159  0.2379
14039SOL     OW45004   9.405   8.992   6.037  0.0050  0.2288  0.0158
14039SOL    HW145005   9.385   9.053   5.960  1.8649  0.6407 -0.1775
14039SOL    HW245006   9.407   9.045   6.122  0.1685  0.1825  0.0420
14040SOL     OW45007   2.196   6.404   5.135  0.2510 -0.1408  0.5129
14040SOL    HW145008   2.235   6.352   5.211  0.4004  0.3129  0.7469
14040SOL    HW245009   2.181   6.498   5.163 -0.9507 -0.2903  0.4001
14042SOL     OW45010   5.722   3.633   0.019 -0.1613 -0.2052  0.3541
14042SOL    HW145011   5.765   3.706   0.072  0.3084 -0.2746  0.0703
14042SOL    HW245012   5.657   3.584   0.077 -0.1449  0.1482  0.6744
14043SOL     OW45013   4.959   0.900   4.720  0.3870 -0.0349 -0.5457
14043SOL    HW145014   4.896   0.899   4.642 -0.1276 -1.4676 -0.1354
14043SOL    HW245015   5.052   0.884   4.689 -0.0096 -2.0577 -0.7291
14044SOL     OW45016   9.733   1.954   5.226  0.5898 -0.1354  0.1002
14044SOL    HW145017   9.666   1.889   5.262 -0.8366  1.0081 -0.4645
14044SOL    HW245018   9.748   1.936   5.129 -0.1659  0.6767 -0.1698
14045SOL     OW45019   6.232   8.309   1.917 -0.5007 -0.2178 -0.4415
14045SOL    HW145020   6.178   8.232   1.884  1.0292 -1.4321 -0.2095
14045SOL    HW245021   6.272   8.286   2.006  1.2831  0.1812 -1.1082
14046SOL     OW45022   9.826   8.389   2.442  0.0671  0.6742  0.4640
14046SOL    HW145023   9.768   8.361   2.519 -0.1555  0.3784  0.1945
14046SOL    HW245024   9.913   8.424   2.476  1.0444 -1.9640  0.7479
14047SOL     OW45025   2.980   5.804   2.623 -0.2815  0.4555 -0.7873
14047SOL    HW145026   3.015   5.811   2.530 -2.2123 -0.8022 -1.6462
14047SOL    HW245027   2.954   5.710   2.642 -0.4034  0.8048  0.8444
14048SOL     OW45028   0.505   1.346   1.528  0.2064  0.9885  0.1971
14048SOL    HW145029   0.578   1.295   1.573  0.8396  2.3012  0.6808
14048SOL    HW245030   0.535   1.374   1.437 -1.1291 -1.7962 -1.1555
14049SOL     OW45031   3.322   9.084   3.528 -0.3613 -0.0965 -0.0935
14049SOL    HW145032   3.266   9.152   3.481  0.3929  0.4374 -0.2200
14049SOL    HW245033   3.402   9.062   3.472  0.4351  0.3842  0.8326
14050SOL     OW45034   9.164   7.174   2.896 -0.1646 -0.1800 -0.0037
14050SOL    HW145035   9.261   7.192   2.909 -0.2790  2.8005 -2.6828
14050SOL    HW245036   9.115   7.191   2.982  1.4732 -0.2506  0.9604
14051SOL     OW45037   7.916   3.910   5.539 -0.7924 -0.2128  0.6970
14051SOL    HW145038   7.905   3.823   5.492  2.4775 -0.3434  0.0698
14051SOL    HW245039   7.898   3.985   5.475 -1.7349 -0.4177  0.7202
14052SOL     OW45040   4.129   5.409   0.695  0.1441 -0.5666 -0.0013
14052SOL    HW145041   4.102   5.474   0.624  1.6192  0.4061  0.3038
14052SOL    HW245042   4.051   5.390   0.754 -0.8294 -0.6332 -1.3000
14053SOL     OW45043   9.022   6.132   7.901  0.0207 -0.2941  0.1105
14053SOL    HW145044   8.999   6.054   7.844 -0.0195  0.0619 -0.3651
14053SOL    HW245045   8.999   6.112   7.997  1.0550 -1.2835  0.1602
14054SOL     OW45046   8.928   6.044   4.318 -0.7819  0.2184  0.1729
14054SOL    HW145047   8.873   6.010   4.394  0.9222 -2.7776  0.1049
14054SOL    HW245048   9.018   6.001   4.319 -1.2234 -1.0753 -4.4241
14055SOL     OW45049   8.922   5.491   7.678  0.1093  0.1729 -0.1568
14055SOL    HW145050   9.013   5.451   7.668 -0.7908 -1.4373 -2.3909
14055SOL    HW245051   8.865   5.430   7.733  0.0979  0.7075  0.4251
14056SOL     OW45052   0.089   0.833   1.628  0.2161  0.5050 -0.2377
14056SOL    HW145053   0.061   0.741   1.602  0.5486  0.9396 -2.2052
14056SOL    HW245054   0.091   0.892   1.547 -1.4994  2.6524  1.2142
14057SOL     OW45055   3.867   3.461   7.025 -0.2044  0.2702 -0.2597
14057SOL    HW145056   3.814   3.395   6.971 -1.8292  1.0242  0.3805
14057SOL    HW245057   3.955   3.477   6.981  0.7241 -3.1796  0.1513
14058SOL     OW45058   0.309   0.431   4.211  1.1152  0.1583 -0.3737
14058SOL    HW145059   0.382   0.444   4.278  0.4907 -0.2177  0.3813
14058SOL    HW245060   0.345   0.382   4.132  1.4549 -0.8952  0.4163
14059SOL     OW45061   3.028   5.076   5.704 -0.1521 -0.1842 -0.4515
14059SOL    HW145062   3.093   5.001   5.689 -2.7084 -1.9132 -3.4039
14059SOL    HW245063   3.008   5.084   5.802 -0.6953 -4.1267 -0.1769
14061SOL     OW45064   2.640   7.514   6.301  0.3795  0.4393  0.3413
14061SOL    HW145065   2.606   7.450   6.232 -1.1469  0.6176  0.9216
14061SOL    HW245066   2.728   7.551   6.271  0.7428 -1.0786 -0.5201
14062SOL     OW45067   4.526   2.930   5.675  0.0085  0.1379 -0.1942
14062SOL    HW145068   4.461   2.881   5.733 -0.2428 -1.5781 -1.8881
14062SOL    HW245069   4.476   2.993   5.615  0.2409  1.6525  1.1720
14063SOL     OW45070   1.652   8.733   0.763  0.2098  0.1941  0.4910
14063SOL    HW145071   1.734   8.780   0.730 -0.6631  2.2998  1.2052
14063SOL    HW245072   1.573   8.765   0.710 -0.3607 -0.6853  0.8093
14065SOL     OW45073   1.776   9.346   6.765  0.1118  0.2400  0.6007
14065SOL    HW145074   1.804   9.278   6.832 -1.0332 -0.5784  0.2579
14065SOL    HW245075   1.855   9.372   6.709  0.5365 -0.8757  0.6735
14066SOL     OW45076   0.586   3.408   5.990 -0.4633  0.1835  0.2451
14066SOL    HW145077   0.626   3.493   5.954  0.9470 -1.4290 -2.1017
14066SOL    HW245078   0.520   3.372   5.924 -0.8378 -0.6908  1.0987
14068SOL     OW45079   8.152   6.817   4.865  0.0163 -0.4805 -0.6380
14068SOL    HW145080   8.222   6.883   4.893 -1.4710  1.4162 -1.3336
14068SOL    HW245081   8.196   6.743   4.814  1.9680 -1.0694  1.7851
14070SOL     OW45082   0.322   5.134   7.280 -0.1018 -0.0404  0.0606
14070SOL    HW145083   0.227   5.136   7.247 -0.7887  1.6850  2.0335
14070SOL    HW245084   0.330   5.069   7.355  0.8168 -1.8253 -1.5363
14072SOL     OW45085   0.181   5.697   2.901 -0.4479 -0.0287 -0.0567
14072SOL    HW145086   0.163   5.642   2.982 -1.5092  0.1002 -0.1931
14072SOL    HW245087   0.135   5.785   2.909 -1.5549 -0.4675 -1.2993
14073SOL     OW45088   6.672   9.067   6.207 -0.2168  0.3438 -0.2639
14073SOL    HW145089   6.722   9.152   6.195  0.4201  0.0292  0.1354
14073SOL    HW245090   6.608   9.077   6.283 -0.1899  0.4802 -0.2581
14074SOL     OW45091   1.542   2.804   2.805  0.1838 -0.0414  0.3882
14074SOL    HW145092   1.557   2.791   2.903  2.0769 -1.0628 -0.0193
14074SOL    HW245093   1.575   2.724   2.755 -1.5214  0.1203 -1.0306
14075SOL     OW45094   6.344   7.797   7.214  0.1859 -0.5533  0.2462
14075SOL    HW145095   6.420   7.846   7.173 -1.1480  1.8879  0.6053
14075SOL    HW245096   6.342   7.813   7.312 -1.4955  0.4660  0.0780
14077SOL     OW45097   8.792   9.742   4.762  0.3968  0.5144 -0.8529
14077SOL    HW145098   8.781   9.669   4.694  2.3406  2.1146 -2.9477
14077SOL    HW245099   8.874   9.795   4.741  0.6742  1.4658  2.3976
14078SOL     OW45100   6.324   1.097   1.527  0.5211  0.2568 -0.5611
14078SOL    HW145101   6.250   1.083   1.593  0.4058  1.7611 -0.3435
14078SOL    HW245102   6.408   1.122   1.575  1.1955 -1.4372 -0.8103
14080SOL     OW45103   9.531   1.055   6.981  0.5863 -0.3697  0.2306
14080SOL    HW145104   9.571   0.992   7.048  0.5960 -0.9184 -0.2830
14080SOL    HW245105   9.469   1.004   6.922 -1.2439  0.5712  1.3265
14081SOL     OW45106   3.917   9.729   1.498 -0.3620  0.0947  0.3663
14081SOL    HW145107   3.976   9.795   1.453 -1.0589  0.3816 -0.1319
14081SOL    HW245108   3.833   9.717   1.445  0.2117 -1.9984 -0.1219
14082SOL     OW45109   7.875   1.539   3.347  0.0309  0.3935 -0.3213
14082SOL    HW145110   7.942   1.571   3.280 -0.2890  1.4280 -0.1483
14082SOL    HW245111   7.821   1.616   3.380 -1.1662 -0.4176 -0.3703
14088SOL     OW45112   8.094   5.883   7.270  0.3517 -0.1953  0.0155
14088SOL    HW145113   8.150   5.880   7.353  0.9467  0.7581 -0.3534
14088SOL    HW245114   8.074   5.790   7.240  1.2726 -0.5406  0.4626
14091SOL     OW45115   3.553   1.572   6.555  0.0307  0.0854 -0.5584
14091SOL    HW145116   3.510   1.661   6.567 -2.0912 -0.6514 -2.3906
14091SOL    HW245117   3.482   1.502   6.546  1.6438 -1.4382 -1.7482
14092SOL     OW45118   0.932   1.821   3.263  0.0889 -0.9072 -0.1603
14092SOL    HW145119   0.955   1.742   3.319  1.8149 -1.9493 -2.2309
14092SOL    HW245120   0.968   1.904   3.306 -1.5881 -1.2329  1.9351
14093SOL     OW45121   5.441   7.366   3.469  0.6562 -0.2745  0.2267
14093SOL    HW145122   5.505   7.413   3.409  1.8685 -0.4622  1.3487
14093SOL    HW245123   5.402   7.287   3.421  2.0887 -0.7862 -0.1238
14094SOL     OW45124   8.316   5.937   6.588  0.2865  0.9319 -0.0952
14094SOL    HW145125   8.220   5.911   6.600  0.5375 -0.4351 -0.9299
14094SOL    HW245126   8.365   5.928   6.675 -0.0841  0.5438  0.0719
14096SOL     OW45127   3.072   1.775   3.347 -0.0511  0.4194 -0.0623
14096SOL    HW145128   3.131   1.854   3.329  1.1812 -0.3633  0.4123
14096SOL    HW245129   3.059   1.723   3.263  0.5257  0.2082 -0.0236
14097SOL     OW45130   2.134   0.381   7.276 -0.3206  0.4535  0.3872
14097SOL    HW145131   2.146   0.465   7.330 -1.8595  1.0374 -0.1569
14097SOL    HW245132   2.116   0.304   7.337 -0.1842  0.7540  0.8086
14099SOL     OW45133   7.630   0.515   0.471 -0.2730  0.1406  0.2920
14099SOL    HW145134   7.548   0.474   0.432 -0.7421  0.3057  1.1011
14099SOL    HW245135   7.611   0.546   0.564  0.4098  1.1120  0.1201
14100SOL     OW45136   5.875   4.290   2.169  0.8189  0.4227  0.0648
14100SOL    HW145137   5.846   4.313   2.262 -0.3719  1.3851 -0.5202
14100SOL    HW245138   5.956   4.231   2.173 -0.5738 -1.4617  1.7537
14101SOL     OW45139   9.098   6.198   2.749 -0.2448  0.3363 -0.9293
14101SOL    HW145140   9.122   6.106   2.720  1.4703  1.1997 -2.3447
14101SOL    HW245141   9.010   6.224   2.709 -0.6430 -0.6086 -0.6797
14102SOL     OW45142   2.430   2.500   5.107  0.2677  0.1653 -0.1262
14102SOL    HW145143   2.483   2.464   5.184 -0.8786  0.4544  0.8067
14102SOL    HW245144   2.384   2.584   5.134 -0.1105  0.2883 -1.1383
14104SOL     OW45145   0.924   6.768   4.688 -0.1176  0.5060 -0.0023
14104SOL    HW145146   0.842   6.732   4.733 -0.1844  0.6764  0.0131
14104SOL    HW245147   0.999   6.770   4.754 -0.6776  2.3939  0.5856
14105SOL     OW45148   9.014   4.567   3.948  0.0549  0.8324 -0.4013
14105SOL    HW145149   9.104   4.525   3.948 -1.0218 -1.6737  2.1928
14105SOL    HW245150   9.013   4.644   4.012 -0.0563 -0.2126  0.8872
14106SOL     OW45151   8.449   7.056   5.895  0.3789 -0.1736  0.0307
14106SOL    HW145152   8.539   7.016   5.880  0.4734 -0.6054  1.6533
14106SOL    HW245153   8.390   6.989   5.941 -0.3561  0.5589  0.1745
14107SOL     OW45154   2.953   9.656   1.005  0.5418 -0.1386 -0.4224
14107SOL    HW145155   2.860   9.692   1.010  0.4419  0.2454 -3.7756
14107SOL    HW245156   2.950   9.556   1.012  0.2806  0.0483  3.0880
14109SOL     OW45157   1.876   3.834   6.706  0.1231  0.2338 -0.6743
14109SOL    HW145158   1.975   3.844   6.719  0.1959  0.3715 -1.3268
14109SOL    HW245159   1.859   3.761   6.640 -0.2364 -0.3104  0.0164
14110SOL     OW45160   0.299   7.754   5.641 -0.2340  0.9020 -0.1102
14110SOL    HW145161   0.351   7.765   5.726  0.9318  0.8038 -0.8006
14110SOL    HW245162   0.347   7.691   5.580 -1.1805  0.7915 -0.7563
14111SOL     OW45163   9.544   4.497   2.185  0.1917 -0.5315 -0.2793
14111SOL    HW145164   9.468   4.501   2.250 -0.7008 -1.9888 -1.2008
14111SOL    HW245165   9.518   4.544   2.101  1.0430  0.6596  0.1296
14112SOL     OW45166   2.887   5.446   7.413  0.0921 -0.2723 -0.0071
14112SOL    HW145167   2.908   5.477   7.506 -0.8593  0.4986 -0.0413
14112SOL    HW245168   2.889   5.346   7.410 -2.0139 -0.3924  1.3661
14113SOL     OW45169   6.540   8.118   6.005  0.3849 -0.0621 -0.1526
14113SOL    HW145170   6.551   8.199   5.947 -0.5921  0.0941 -0.1322
14113SOL    HW245171   6.469   8.059   5.965  0.1525 -0.2573  0.5485
14114SOL     OW45172   6.115   9.485   7.706 -0.0906 -0.1917  0.2051
14114SOL    HW145173   6.210   9.515   7.718  0.0452 -0.5480  0.0319
14114SOL    HW245174   6.106   9.391   7.739 -0.2606 -0.3459 -0.2764
14116SOL     OW45175   3.681   1.014   2.891  0.6150 -0.2027 -0.3085
14116SOL    HW145176   3.632   1.003   2.977  0.2782 -0.2978 -0.5110
14116SOL    HW245177   3.621   0.986   2.815  0.5718  0.7784 -0.6454
14117SOL     OW45178   8.910   3.793   5.317  0.7273 -0.2387 -0.3263
14117SOL    HW145179   8.996   3.747   5.342  1.8181  1.6352 -0.5339
14117SOL    HW245180   8.914   3.888   5.345 -0.5330  0.3460 -2.0597
14118SOL     OW45181   2.940   0.403   6.790 -0.2946 -0.7640 -0.7907
14118SOL    HW145182   2.972   0.309   6.779  0.3652 -1.0170  2.8419
14118SOL    HW245183   3.017   0.466   6.782  0.0416 -0.8871  1.3502
14119SOL     OW45184   2.590   1.432   0.182 -0.1156 -0.1731  0.0839
14119SOL    HW145185   2.619   1.363   0.115  0.9629  0.2293  0.1253
14119SOL    HW245186   2.559   1.514   0.134  0.1347 -0.0886  0.0669
14120SOL     OW45187   4.084   4.898   4.556  0.0906  0.1622 -0.2339
14120SOL    HW145188   4.153   4.851   4.501 -1.4664 -0.0815 -2.0457
14120SOL    HW245189   4.125   4.976   4.602  1.2169  1.0565 -2.6669
14121SOL     OW45190   0.163   9.216   0.790 -0.1414  0.2925 -0.1644
14121SOL    HW145191   0.101   9.294   0.797 -0.6687 -0.0980 -0.3756
14121SOL    HW245192   0.249   9.245   0.748 -0.4174  0.7152 -0.4498
14122SOL     OW45193   2.391   1.274   6.726  0.1141 -0.3835 -0.7899
14122SOL    HW145194   2.297   1.281   6.760  0.2843  1.6517 -0.7248
14122SOL    HW245195   2.447   1.347   6.764  1.6601 -1.3689 -1.1122
14123SOL     OW45196   4.683   2.478   0.464  0.2884  0.2801 -0.4233
14123SOL    HW145197   4.628   2.556   0.433 -1.3380 -1.0058 -0.8769
14123SOL    HW245198   4.764   2.511   0.511 -2.3464  2.3149  2.9676
14124SOL     OW45199   7.640   9.306   5.400  0.4210 -0.3505  0.1310
14124SOL    HW145200   7.578   9.252   5.458  1.8280 -0.1151  1.9028
14124SOL    HW245201   7.591   9.385   5.364 -0.8229 -1.1748 -0.0099
14125SOL     OW45202   3.560   0.304   3.149  0.3441  0.3328  0.3462
14125SOL    HW145203   3.573   0.338   3.242  1.8253 -0.7789  0.5597
14125SOL    HW245204   3.595   0.211   3.142 -0.2535  0.2067 -1.1898
14126SOL     OW45205   9.708   0.259   2.441  0.2366 -0.0919 -0.2726
14126SOL    HW145206   9.756   0.347   2.441 -1.7594  1.0287  0.3850
14126SOL    HW245207   9.690   0.232   2.536  0.2970 -0.9042 -0.4941
14127SOL     OW45208   0.461   6.227   4.665  0.3688  0.2079 -0.3012
14127SOL    HW145209   0.384   6.265   4.612  0.0831 -1.2134 -0.9414
14127SOL    HW245210   0.503   6.153   4.613 -0.6546 -2.0185  1.9471
14128SOL     OW45211   6.702   5.523   1.353  0.2995 -0.2704  0.0176
14128SOL    HW145212   6.651   5.598   1.309 -0.4275  0.7225  2.4557
14128SOL    HW245213   6.749   5.470   1.283 -2.3798  0.0632 -2.1502
14129SOL     OW45214   2.622   4.738   7.324 -0.2536 -0.0964 -0.2733
14129SOL    HW145215   2.633   4.648   7.366 -0.9507  0.5713  1.3913
14129SOL    HW245216   2.710   4.784   7.321 -0.2020 -0.1274  0.5416
14130SOL     OW45217   4.445   0.208   1.555 -0.4456  0.2295 -0.2177
14130SOL    HW145218   4.358   0.256   1.567  0.0778  0.9998  0.5951
14130SOL    HW245219   4.463   0.151   1.635  0.2621  0.8382  0.0618
14131SOL     OW45220   4.401   3.587   1.226  0.1862 -0.1257 -0.6157
14131SOL    HW145221   4.401   3.676   1.182  1.2646 -1.0888 -2.6283
14131SOL    HW245222   4.328   3.530   1.187  2.2186 -1.5608 -2.4210
14133SOL     OW45223   3.011   4.888   5.084  0.1933 -0.4679 -0.0547
14133SOL    HW145224   2.983   4.961   5.147 -0.3579 -0.6750 -0.0615
14133SOL    HW245225   2.930   4.848   5.042  0.3451 -2.6220  1.6405
14134SOL     OW45226   2.693   2.632   4.416 -0.2442 -0.1847  0.0045
14134SOL    HW145227   2.658   2.725   4.414 -2.7697 -1.0637  1.3666
14134SOL    HW245228   2.710   2.606   4.511  1.7778 -0.6494 -0.4657
14135SOL     OW45229   7.228   7.730   2.221 -0.1604  0.0672  0.0678
14135SOL    HW145230   7.269   7.640   2.207 -3.3394 -1.5457  0.6380
14135SOL    HW245231   7.300   7.797   2.240  2.4468 -1.9022 -2.4305
14136SOL     OW45232   3.309   9.378   4.970  0.5929  0.0715  0.7519
14136SOL    HW145233   3.296   9.368   5.069  0.6552  0.2159  0.7737
14136SOL    HW245234   3.287   9.291   4.925  1.3094 -0.2181  0.9636
14137SOL     OW45235   8.353   4.649   0.448  0.1850  0.0819  0.1195
14137SOL    HW145236   8.407   4.704   0.512 -0.3178  0.6390  0.0756
14137SOL    HW245237   8.412   4.582   0.403  0.9417  1.0218 -0.3020
14138SOL     OW45238   2.344   2.045   7.698  0.0467  0.6094  0.3277
14138SOL    HW145239   2.299   2.126   7.737  0.0703  0.5740  0.4273
14138SOL    HW245240   2.274   1.979   7.671  0.0788  0.0202  1.6331
14140SOL     OW45241   0.314   7.143   7.711  0.1193  0.2364  0.6449
14140SOL    HW145242   0.383   7.158   7.781 -1.3293  0.4998  2.0364
14140SOL    HW245243   0.312   7.221   7.648 -0.1048  1.0086  1.6142
14141SOL     OW45244   4.077   4.667   5.002  0.3719  0.0172 -0.1334
14141SOL    HW145245   4.077   4.767   4.997  0.2660 -0.0463 -1.5029
14141SOL    HW245246   4.044   4.629   4.916 -2.0258 -1.1677  1.2591
14142SOL     OW45247   3.752   9.351   3.489 -0.5135 -0.1837 -0.1531
14142SOL    HW145248   3.787   9.426   3.546  0.6062  1.1793 -2.5644
14142SOL    HW245249   3.653   9.359   3.481 -0.5497  0.2719  0.6462
14143SOL     OW45250   0.702   7.241   6.404 -0.1501  0.1063  0.2387
14143SOL    HW145251   0.657   7.167   6.453  0.5314 -0.1603  0.4631
14143SOL    HW245252   0.739   7.207   6.318 -0.5834  0.3831 -0.0661
14144SOL     OW45253   0.771   4.401   7.749  0.0339 -0.2753 -0.4088
14144SOL    HW145254   0.819   4.337   7.690  0.8870  0.4971 -0.5695
14144SOL    HW245255   0.685   4.429   7.706  1.3550  1.4559 -2.0254
14145SOL     OW45256   6.901   8.105   7.557 -0.2428  0.7406 -0.1067
14145SOL    HW145257   6.927   8.190   7.602  0.7417  1.1775 -1.4742
14145SOL    HW245258   6.807   8.113   7.522 -0.5806  0.8256  0.8248
14146SOL     OW45259   1.247   9.427   7.508  1.0145 -0.0973  0.5138
14146SOL    HW145260   1.254   9.515   7.461  0.6292 -0.0423  0.5543
14146SOL    HW245261   1.189   9.365   7.455  1.4774 -0.4095  0.3656
14147SOL     OW45262   0.469   4.375   5.227  0.0259  0.9613  0.3003
14147SOL    HW145263   0.383   4.380   5.176 -0.0628 -0.4573  0.2919
14147SOL    HW245264   0.531   4.311   5.182  0.1574  0.1318  1.6402
14148SOL     OW45265   1.621   0.371   3.226  0.0287 -0.6325 -0.0635
14148SOL    HW145266   1.674   0.456   3.221  0.3007 -0.5846  2.7804
14148SOL    HW245267   1.680   0.297   3.258 -0.6868 -1.4720 -0.6546
14149SOL     OW45268   6.594   0.536   5.280 -0.0696  0.1718  0.0638
14149SOL    HW145269   6.553   0.506   5.194  0.2528  1.1578 -0.4436
14149SOL    HW245270   6.578   0.634   5.291 -1.5750 -0.2621  1.9401
14150SOL     OW45271   3.146   3.986   3.856 -0.2200 -0.4978  0.0476
14150SOL    HW145272   3.067   3.947   3.808 -0.6228 -2.8228  2.5095
14150SOL    HW245273   3.126   4.080   3.880 -2.1083 -0.9259  0.2829
14151SOL     OW45274   4.176   4.962   5.312 -0.3800 -0.4199  0.1667
14151SOL    HW145275   4.229   4.886   5.351 -1.0180 -0.6713  0.5568
14151SOL    HW245276   4.083   4.959   5.349 -0.5666  0.2172 -0.2581
14152SOL     OW45277   2.683   5.990   5.999 -0.3486  0.2968  0.4607
14152SOL    HW145278   2.740   5.965   6.077  0.1096 -1.0012 -0.2668
14152SOL    HW245279   2.696   5.923   5.926 -1.8563  0.6832 -0.1821
14153SOL     OW45280   0.159   9.474   0.058  0.0916 -0.3056  0.0695
14153SOL    HW145281   0.102   9.433   0.129  1.6880 -2.0811  0.3713
14153SOL    HW245282   0.102   9.528  -0.004 -1.6590 -0.6940  1.3045
14154SOL     OW45283   3.123   2.548   1.786 -0.0485  0.1833  0.2966
14154SOL    HW145284   3.172   2.464   1.810  1.4982  1.1699  0.6599
14154SOL    HW245285   3.099   2.597   1.870  1.0645  1.2253  0.0167
14155SOL     OW45286   1.686   9.995   5.936 -0.6362 -0.2433 -0.1020
14155SOL    HW145287   1.745   9.915   5.940 -2.8376 -1.9740 -1.2449
14155SOL    HW245288   1.700  10.042   5.848 -2.1707 -1.6285 -1.1034
14156SOL     OW45289   8.377   0.653   2.024  0.2927 -0.1648 -0.1392
14156SOL    HW145290   8.422   0.710   1.956 -1.0811  0.5141 -0.4985
14156SOL    HW245291   8.308   0.706   2.073  0.0972 -1.0934  0.6202
14157SOL     OW45292   2.782   6.513   4.015  0.0850 -0.0531 -0.2331
14157SOL    HW145293   2.783   6.575   3.937 -2.8511 -1.3456 -1.3531
14157SOL    HW245294   2.832   6.429   3.992 -1.0458 -0.5630 -0.8530
14158SOL     OW45295   4.193   7.551   5.345  0.0286 -0.3189  0.2779
14158SOL    HW145296   4.247   7.564   5.428  0.9745  0.6534 -0.4866
14158SOL    HW245297   4.253   7.533   5.267 -0.8432 -1.0426 -0.2419
14159SOL     OW45298   2.675   8.399   5.502 -0.4456  0.0994 -0.0855
14159SOL    HW145299   2.735   8.329   5.541 -0.4627  0.8961  1.3751
14159SOL    HW245300   2.719   8.441   5.423  1.1249  0.9998  1.2452
14161SOL     OW45301   4.092   1.935   7.680 -0.0023  0.8201  0.0865
14161SOL    HW145302   4.019   1.870   7.700 -0.1730  0.8488 -0.4448
14161SOL    HW245303   4.096   2.004   7.752  0.2355  0.1773  0.6952
14162SOL     OW45304   0.997   9.346   1.893  0.1841  0.1655 -0.3673
14162SOL    HW145305   0.925   9.280   1.915  0.1661  0.2326 -0.2213
14162SOL    HW245306   1.062   9.305   1.830  0.2957 -0.0672 -0.1002
14163SOL     OW45307   5.341   0.938   6.128 -0.0075 -0.5203  0.3992
14163SOL    HW145308   5.361   1.035   6.139  0.0903 -0.3062 -1.5122
14163SOL    HW245309   5.375   0.907   6.038 -2.2066 -1.7333 -0.0370
14164SOL     OW45310   9.853   2.016   0.680 -0.0220  0.0926  0.1630
14164SOL    HW145311   9.842   1.999   0.582  0.2754 -0.5408  0.2357
14164SOL    HW245312   9.764   2.012   0.725 -0.1271  0.1142 -0.0443
14165SOL     OW45313   4.099   0.556   5.252  0.1958  0.5601 -0.1003
14165SOL    HW145314   4.007   0.517   5.252  0.7418 -0.7493  1.5552
14165SOL    HW245315   4.160   0.496   5.200  0.5618  0.3201  0.5984
14166SOL     OW45316   7.600   3.268   1.683 -0.1025 -0.2227 -0.1401
14166SOL    HW145317   7.520   3.209   1.696  0.1722 -0.3360  1.1252
14166SOL    HW245318   7.683   3.213   1.694  0.1585  0.4693  1.4740
14167SOL     OW45319   2.798   3.587   2.592  0.7096 -0.0192 -0.4128
14167SOL    HW145320   2.816   3.648   2.669  1.4446 -0.5077 -0.1894
14167SOL    HW245321   2.833   3.628   2.508  1.5996 -0.3136 -0.1984
14168SOL     OW45322   2.674   5.224   4.721  0.4572  0.3946 -0.0708
14168SOL    HW145323   2.641   5.291   4.787 -1.4729 -0.6434  0.0501
14168SOL    HW245324   2.698   5.269   4.636 -1.3113  1.1902 -0.1645
14169SOL     OW45325   2.440   1.479   1.639 -0.0869 -0.3898  0.1396
14169SOL    HW145326   2.486   1.407   1.587  0.6012  0.2505 -0.1521
14169SOL    HW245327   2.497   1.504   1.718 -1.1991 -1.4725  1.3083
14170SOL     OW45328   2.264   2.345   3.460 -0.2565  0.2721 -0.3880
14170SOL    HW145329   2.340   2.409   3.456  0.8618 -1.0142 -0.0962
14170SOL    HW245330   2.261   2.290   3.376  0.1278 -0.7777  0.2716
14173SOL     OW45331   9.488   4.514   0.732 -0.1084 -0.2263 -0.6997
14173SOL    HW145332   9.473   4.449   0.658 -0.0746  1.4301 -2.2057
14173SOL    HW245333   9.565   4.483   0.789 -0.8005 -2.0423 -0.7176
14174SOL     OW45334   8.990   8.145   6.491 -0.2335 -0.1681 -0.4859
14174SOL    HW145335   9.002   8.046   6.482 -1.4283 -0.2455 -1.3368
14174SOL    HW245336   8.919   8.176   6.428 -0.0553  1.1996 -0.0368
14176SOL     OW45337   5.239   4.334   7.037 -0.1074 -0.0043 -0.3960
14176SOL    HW145338   5.313   4.380   6.989  0.9173 -1.5692 -0.3366
14176SOL    HW245339   5.151   4.358   6.995  0.5502  0.7234 -1.3586
14177SOL     OW45340   6.410   4.551   2.384 -0.0489 -0.6513  0.0912
14177SOL    HW145341   6.364   4.501   2.457  0.9451  1.7584  2.4403
14177SOL    HW245342   6.509   4.548   2.399  0.1513  0.0380 -1.0590
14178SOL     OW45343   1.757   1.089   6.066  0.3742 -0.0229  0.0629
14178SOL    HW145344   1.689   1.058   6.131 -0.3607 -0.0616 -0.7136
14178SOL    HW245345   1.803   1.010   6.025 -1.1310 -0.1066 -1.5276
14179SOL     OW45346   7.215   1.649   0.889 -0.0310  0.1075  0.0370
14179SOL    HW145347   7.214   1.716   0.815  0.4562 -1.0768 -1.0530
14179SOL    HW245348   7.256   1.691   0.970 -0.0005  1.2223 -0.5402
14180SOL     OW45349   3.227   6.935   5.294  0.1871  0.3201 -0.8108
14180SOL    HW145350   3.212   7.016   5.237 -1.0466  1.3750  0.9872
14180SOL    HW245351   3.140   6.889   5.309  0.5347 -0.0268  0.1189
14181SOL     OW45352   3.824   6.975   4.308  0.2783  0.3737 -0.1769
14181SOL    HW145353   3.923   6.958   4.301  0.4376  1.2505 -0.0301
14181SOL    HW245354   3.792   7.022   4.226 -0.1949 -0.7110 -0.6321
14182SOL     OW45355   3.528   0.970   3.123 -0.7894 -0.1438  0.0236
14182SOL    HW145356   3.548   1.014   3.210  0.9422 -0.9022  0.0202
14182SOL    HW245357   3.438   0.927   3.127 -0.4620 -0.6957  1.6377
14183SOL     OW45358   2.310   0.569   5.657 -0.2103  0.0236 -0.2152
14183SOL    HW145359   2.280   0.475   5.673 -1.0529  0.2197 -0.5952
14183SOL    HW245360   2.307   0.588   5.559  1.0933  0.0782 -0.2486
14184SOL     OW45361   0.006   6.059   5.225 -0.1829 -0.2748  0.6291
14184SOL    HW145362   0.010   5.978   5.284  1.3824  1.4565  2.9375
14184SOL    HW245363   0.099   6.089   5.203 -0.7495  0.9684 -0.1352
14185SOL     OW45364   8.868   0.429   6.289  0.2822  0.1787  0.6284
14185SOL    HW145365   8.925   0.454   6.211 -0.0038 -2.3182 -0.4218
14185SOL    HW245366   8.783   0.387   6.257 -0.7756  1.0085  2.2471
14186SOL     OW45367   3.316   3.040   5.461  0.0300  0.0443  0.0755
14186SOL    HW145368   3.394   2.988   5.425 -1.6797 -1.7905 -1.0770
14186SOL    HW245369   3.294   3.114   5.398 -0.3911 -0.6575 -0.6111
14187SOL     OW45370   2.210   7.711   6.873  0.1627 -0.5940 -0.0279
14187SOL    HW145371   2.220   7.805   6.904  1.1105 -0.4147 -0.8661
14187SOL    HW245372   2.115   7.695   6.844 -0.1864 -0.1369  0.8618
14188SOL     OW45373   8.560   2.504   6.458 -0.1296  0.5126  0.2858
14188SOL    HW145374   8.655   2.497   6.427 -0.4057  3.8788 -1.5593
14188SOL    HW245375   8.552   2.577   6.526 -1.6108  1.2750 -0.6823
14189SOL     OW45376   6.949   9.157   4.300 -0.2594 -0.1382 -0.4732
14189SOL    HW145377   7.004   9.163   4.383 -0.8410  1.8823 -0.2201
14189SOL    HW245378   6.852   9.164   4.322 -0.4235  0.3045 -1.3096
14190SOL     OW45379   9.448   1.490   1.889  0.2828  0.4886  0.2033
14190SOL    HW145380   9.473   1.427   1.963 -1.6207 -0.8061 -0.1959
14190SOL    HW245381   9.493   1.462   1.804 -1.5004 -1.1328 -0.2525
14191SOL     OW45382   0.976   0.601   5.348 -0.3141 -0.0855 -0.2869
14191SOL    HW145383   0.893   0.648   5.378 -0.9317 -1.6160  0.4538
14191SOL    HW245384   1.055   0.639   5.396 -1.1468 -1.7196  2.4747
14192SOL     OW45385   3.961   3.604   3.371 -0.4970  1.1011 -0.2181
14192SOL    HW145386   3.863   3.626   3.372 -0.4912  1.1249 -0.1099
14192SOL    HW245387   3.999   3.621   3.462 -0.1441  2.1700 -0.5726
14193SOL     OW45388   5.146   7.697   1.573 -0.4672 -0.0492  0.2399
14193SOL    HW145389   5.189   7.673   1.660  0.0295 -1.2337 -0.3259
14193SOL    HW245390   5.132   7.615   1.519  0.3438  0.8158 -1.3146
14194SOL     OW45391   4.293   8.928   7.203  0.6074  0.1461  0.0543
14194SOL    HW145392   4.346   8.845   7.188 -1.7477 -1.0502 -1.9631
14194SOL    HW245393   4.207   8.905   7.248  1.1032  1.8628  1.9435
14196SOL     OW45394   1.414   6.491   4.296 -0.1386 -0.3728 -0.3076
14196SOL    HW145395   1.446   6.401   4.328 -0.7084 -0.1739  0.8774
14196SOL    HW245396   1.487   6.558   4.309  0.7618 -0.9016 -2.4356
14197SOL     OW45397   2.553   2.306   1.361 -0.0832  0.4792 -0.0146
14197SOL    HW145398   2.503   2.366   1.300  0.2961 -0.0963 -0.8962
14197SOL    HW245399   2.523   2.211   1.347 -0.4303  0.4099  1.1159
14198SOL     OW45400   2.953   1.653   5.555  0.1498 -0.9945  0.0327
14198SOL    HW145401   3.026   1.603   5.509 -0.2902 -2.2784  0.7142
14198SOL    HW245402   2.988   1.742   5.584  0.9750 -0.9440 -1.0748
14199SOL     OW45403   9.224   9.066   1.299 -0.1544  0.0073  0.2061
14199SOL    HW145404   9.218   9.143   1.363 -0.0138  0.2198 -0.0315
14199SOL    HW245405   9.282   8.995   1.338 -0.4602 -0.0684  0.5192
14200SOL     OW45406   5.042   1.211   0.382  0.1634 -0.4728 -0.3022
14200SOL    HW145407   4.961   1.269   0.388  0.2851 -0.5175  2.2695
14200SOL    HW245408   5.014   1.116   0.364 -0.3224 -0.3909  0.0210
14203SOL     OW45409   0.758   2.568   3.693 -0.2291  0.6436  0.2987
14203SOL    HW145410   0.824   2.508   3.648 -0.3033  1.6669 -1.2010
14203SOL    HW245411   0.673   2.518   3.708  0.0970  0.0224  0.1182
14204SOL     OW45412   5.774   1.801   0.338  0.6622 -0.1260 -0.2323
14204SOL    HW145413   5.786   1.789   0.239  0.8510  1.1335 -0.3721
14204SOL    HW245414   5.677   1.813   0.358  0.6117 -0.5014 -0.2561
14207SOL     OW45415   2.817   6.122   2.564 -0.1677 -0.0804 -0.2599
14207SOL    HW145416   2.796   6.205   2.616  3.1327  0.0827  0.9687
14207SOL    HW245417   2.901   6.136   2.512 -1.1023 -1.7307 -2.2591
14210SOL     OW45418   3.312   5.250   2.852  0.2016 -0.3256  0.0924
14210SOL    HW145419   3.329   5.297   2.766  0.3611 -0.3842  0.0920
14210SOL    HW245420   3.215   5.227   2.859 -0.0636  0.8767  0.5375
14211SOL     OW45421   1.877   7.709   6.245 -0.6831  0.2699  0.0605
14211SOL    HW145422   1.969   7.730   6.213 -1.2552  0.7731 -1.3031
14211SOL    HW245423   1.862   7.751   6.335  0.4824 -0.0149  0.4023
14212SOL     OW45424   9.612   5.602   3.632 -0.0295  0.3811  0.7624
14212SOL    HW145425   9.613   5.587   3.533  1.1872  1.1049  0.6475
14212SOL    HW245426   9.649   5.521   3.678  3.1004  1.5109  0.3636
14213SOL     OW45427   2.326   9.159   2.402 -0.4918  0.5484  0.1924
14213SOL    HW145428   2.300   9.229   2.335 -1.2536  0.8591  0.8119
14213SOL    HW245429   2.391   9.096   2.360 -0.7496  0.9048 -0.7534
14214SOL     OW45430   8.318   5.007   2.678  0.4512 -0.1269  0.2776
14214SOL    HW145431   8.411   5.016   2.713  0.3949  1.2255  0.1003
14214SOL    HW245432   8.318   5.026   2.580 -0.0061 -0.1858  0.2666
14216SOL     OW45433   1.784   7.702   6.647  0.3551 -0.4960 -0.6985
14216SOL    HW145434   1.815   7.730   6.738 -0.2250 -2.3347  0.0860
14216SOL    HW245435   1.719   7.769   6.612 -0.1086 -0.2312  0.6250
14217SOL     OW45436   3.851   9.628   2.745  0.6881  0.5654 -0.0029
14217SOL    HW145437   3.822   9.700   2.682  0.7363 -0.1157 -0.8151
14217SOL    HW245438   3.877   9.547   2.693  1.2595  0.1785  0.8695
14218SOL     OW45439   3.892   4.077   6.679 -0.1259 -0.6730  0.5921
14218SOL    HW145440   3.869   4.062   6.776 -0.2253  0.7729  0.7935
14218SOL    HW245441   3.900   4.175   6.661  0.7045 -0.9633 -0.6872
14219SOL     OW45442   8.635   6.555   7.415  0.1229  0.4114  0.5369
14219SOL    HW145443   8.553   6.506   7.447  1.1405 -0.8704  1.2327
14219SOL    HW245444   8.655   6.630   7.478 -1.0869  1.3740 -0.1928
14220SOL     OW45445   2.973   3.163   0.326  0.4774 -0.1870  0.5951
14220SOL    HW145446   2.900   3.227   0.301  0.2992 -0.7311 -0.2953
14220SOL    HW245447   3.012   3.123   0.243  2.2978  0.6475  1.0186
14221SOL     OW45448   1.272   5.091   0.080 -0.6218  0.0480  0.9706
14221SOL    HW145449   1.244   5.146   0.002 -1.9176 -1.5701  0.2971
14221SOL    HW245450   1.314   5.006   0.049  0.6493  0.2518  2.0284
14222SOL     OW45451   5.466   9.991   7.001 -0.4785 -0.1904  0.0296
14222SOL    HW145452   5.382  10.040   7.025  0.2513  0.5579  1.0865
14222SOL    HW245453   5.495   9.935   7.079  0.6774  0.5142  0.1177
14223SOL     OW45454   4.498   1.255   4.750 -0.3253 -0.0651  0.1759
14223SOL    HW145455   4.580   1.217   4.793 -0.5428 -0.1396  0.5338
14223SOL    HW245456   4.509   1.354   4.742 -0.6268  0.0580  1.1899
14224SOL     OW45457   8.119   0.181   1.145 -0.4895  0.0112  0.8010
14224SOL    HW145458   8.072   0.145   1.064  0.4016 -0.2341  0.3920
14224SOL    HW245459   8.088   0.274   1.162  0.7330  0.7788 -0.9791
14225SOL     OW45460   3.705   7.705   4.564 -0.0318  0.7508 -0.0013
14225SOL    HW145461   3.700   7.645   4.643 -0.6976 -0.0387 -0.6452
14225SOL    HW245462   3.778   7.674   4.503  2.5112  3.0867  1.7196
14226SOL     OW45463   1.527   1.547   4.954 -0.1024 -0.6748  0.0216
14226SOL    HW145464   1.554   1.599   5.034  2.6374  1.3647 -2.1071
14226SOL    HW245465   1.604   1.491   4.923 -1.2764 -1.8054 -0.9197
14227SOL     OW45466   9.721   6.373   5.239  0.0788  0.3801  0.2145
14227SOL    HW145467   9.747   6.434   5.165  0.7875 -1.6717 -1.2806
14227SOL    HW245468   9.792   6.374   5.310  1.0790 -0.2192 -0.7619
14228SOL     OW45469   2.695   2.003   0.349 -0.3334 -0.4207 -0.3416
14228SOL    HW145470   2.730   2.049   0.431  0.3540 -1.1682 -0.2164
14228SOL    HW245471   2.602   1.970   0.367 -0.1304 -0.7139  0.1927
14230SOL     OW45472   8.002   3.018   0.237 -0.4393  0.6600 -0.5762
14230SOL    HW145473   7.925   3.058   0.189 -0.7454  0.1662 -0.4986
14230SOL    HW245474   8.061   3.091   0.273 -1.7255  1.0586  0.7620
14231SOL     OW45475   7.391   9.205   5.993  0.2867  0.5109  0.0024
14231SOL    HW145476   7.371   9.291   6.039 -1.3951  1.1759 -1.9419
14231SOL    HW245477   7.488   9.203   5.968  0.7171  1.0845  1.5560
14233SOL     OW45478   2.341   8.433   3.529  0.3415 -0.0951  0.3897
14233SOL    HW145479   2.246   8.437   3.500  0.2995 -2.4804  0.1034
14233SOL    HW245480   2.346   8.401   3.624  0.8094  0.9979  0.7393
14235SOL     OW45481   9.099   5.258   5.858 -0.2637  0.1075  0.2638
14235SOL    HW145482   9.108   5.240   5.956 -1.8165 -1.9025  0.0545
14235SOL    HW245483   9.189   5.254   5.815  0.4272  0.9901  1.5871
14236SOL     OW45484   2.984   0.511   5.061  0.0884  0.4285 -0.4819
14236SOL    HW145485   2.912   0.543   5.122 -1.2530 -1.4356 -1.0315
14236SOL    HW245486   2.947   0.500   4.969  0.8108 -1.4433 -0.5707
14237SOL     OW45487   0.819   8.384   7.240 -0.1766 -0.2969  0.6630
14237SOL    HW145488   0.728   8.366   7.278  0.2239 -0.1043  1.7330
14237SOL    HW245489   0.843   8.480   7.254 -1.2276  0.5266 -2.7271
14238SOL     OW45490   8.948   9.188   0.680 -0.1938  0.0531  0.4585
14238SOL    HW145491   9.033   9.220   0.639  0.0750 -1.5149 -0.2463
14238SOL    HW245492   8.890   9.267   0.702  0.7073  1.0473 -0.6474
14240SOL     OW45493   0.667   3.107   7.549  0.2316 -0.2155  0.2937
14240SOL    HW145494   0.727   3.048   7.495 -0.1660 -0.4315  0.0813
14240SOL    HW245495   0.605   3.156   7.487  0.0963 -0.1018  0.5205
14241SOL     OW45496   3.626   5.760   4.790  0.3436 -0.0208  0.5122
14241SOL    HW145497   3.544   5.771   4.847 -0.4077  2.0294 -0.9264
14241SOL    HW245498   3.704   5.802   4.836  0.3957 -1.0448  1.3966
14244SOL     OW45499   0.958   1.000   5.300 -0.7278  0.0377 -0.4150
14244SOL    HW145500   0.887   0.929   5.307 -0.1782 -0.6704 -1.7822
14244SOL    HW245501   0.932   1.067   5.230 -1.9072  1.9910  1.8489
14245SOL     OW45502   4.393   9.885   0.943  0.5475  0.2167 -0.0355
14245SOL    HW145503   4.452   9.844   0.874 -1.6489 -1.3334 -1.0189
14245SOL    HW245504   4.349   9.966   0.906 -2.1026 -1.6804 -1.1446
14246SOL     OW45505   8.407   1.555   2.636  0.4822 -0.7382  0.3527
14246SOL    HW145506   8.376   1.648   2.617  1.2899 -0.2793  1.1882
14246SOL    HW245507   8.348   1.489   2.589 -0.0106  0.2001 -0.3543
14247SOL     OW45508   9.076   2.327   1.700  0.1772  0.3049  0.3109
14247SOL    HW145509   9.163   2.317   1.652  0.1601 -2.3558  0.7299
14247SOL    HW245510   9.001   2.319   1.635  0.1970 -0.9313  0.4280
14248SOL     OW45511   6.621   3.008   0.016  0.0206 -0.0760  0.2365
14248SOL    HW145512   6.596   3.100   0.046  0.5818  0.2089 -0.1635
14248SOL    HW245513   6.667   3.013  -0.073  2.2521 -0.4978  1.3273
14249SOL     OW45514   8.177   1.339   1.720  0.6575 -0.0510 -0.4460
14249SOL    HW145515   8.274   1.321   1.740 -0.3208 -2.7640  2.3589
14249SOL    HW245516   8.138   1.261   1.672 -0.3195  0.7346 -0.9443
14250SOL     OW45517   7.861   6.968   4.034 -0.6984 -0.1405 -0.4418
14250SOL    HW145518   7.784   6.965   3.970 -2.2856 -0.9218  1.4637
14250SOL    HW245519   7.874   7.062   4.066 -1.6053 -0.2005  0.1140
14251SOL     OW45520   2.754   0.708   0.965  0.1499 -0.2040  0.0540
14251SOL    HW145521   2.825   0.712   1.035  1.1465 -1.0855 -0.8854
14251SOL    HW245522   2.781   0.765   0.887 -0.4330 -0.1080 -0.0814
14252SOL     OW45523   1.906   7.505   4.675  0.7976  0.4689 -0.4011
14252SOL    HW145524   1.981   7.465   4.728 -0.0403  0.9564  1.1923
14252SOL    HW245525   1.942   7.543   4.590  2.0696 -0.9417 -0.5230
14253SOL     OW45526   9.799   4.089   2.869 -0.1548  0.3741  0.2007
14253SOL    HW145527   9.729   4.103   2.800 -0.5659 -1.4619  0.2373
14253SOL    HW245528   9.757   4.083   2.960  0.1738  0.4549  0.3624
14254SOL     OW45529   5.447   0.384   3.836  0.7130  0.3686  0.5028
14254SOL    HW145530   5.401   0.384   3.747  0.7091  0.9858  0.5050
14254SOL    HW245531   5.546   0.375   3.822  0.6091 -0.8721  0.4958
14255SOL     OW45532   4.328   3.084   1.651 -0.4050  0.0200  0.1642
14255SOL    HW145533   4.239   3.056   1.615 -0.8888  1.7710 -0.0915
14255SOL    HW245534   4.391   3.099   1.575  0.1678 -1.3686  0.3537
14256SOL     OW45535   3.787   2.417   5.191  0.4499  0.0180  0.1164
14256SOL    HW145536   3.752   2.339   5.243  2.3967 -0.4336  0.7956
14256SOL    HW245537   3.860   2.386   5.130 -0.6187  0.8551 -1.6343
14257SOL     OW45538   7.810   3.221   1.409 -0.6059 -0.5200 -0.0147
14257SOL    HW145539   7.749   3.292   1.376  1.0454  0.2066 -1.5787
14257SOL    HW245540   7.760   3.135   1.417 -1.6054 -0.1687 -2.1823
14258SOL     OW45541   6.923   3.615   2.276  0.6224 -0.1938 -0.2115
14258SOL    HW145542   6.835   3.574   2.298 -0.2266 -0.0499 -3.1541
14258SOL    HW245543   6.972   3.555   2.212  0.7488  1.8313 -2.0377
14259SOL     OW45544   9.195   6.655   5.948 -0.2327  0.0894 -0.6310
14259SOL    HW145545   9.216   6.591   5.874 -2.4273  0.9350 -2.0273
14259SOL    HW245546   9.163   6.605   6.028 -1.1944 -0.6035 -1.4515
14260SOL     OW45547   7.427   9.932   4.899 -0.0137  0.1983  0.2826
14260SOL    HW145548   7.434  10.023   4.858 -0.2602  0.3263  0.5206
14260SOL    HW245549   7.439   9.939   4.998  0.9043 -0.1492  0.2016
14261SOL     OW45550   1.799   1.414   7.228 -0.0222 -0.1941 -0.6666
14261SOL    HW145551   1.843   1.411   7.318  0.0876 -0.5435 -0.7302
14261SOL    HW245552   1.776   1.509   7.205 -0.7314 -0.1802  0.0637
14263SOL     OW45553   7.949   2.466   1.550  0.3077  0.3954  0.2154
14263SOL    HW145554   7.853   2.440   1.555  0.5442 -0.6372 -0.3988
14263SOL    HW245555   7.958   2.565   1.557 -0.7584  0.4585  0.7722
14264SOL     OW45556   2.488   8.990   2.288  0.0732  0.8356 -0.3257
14264SOL    HW145557   2.526   8.987   2.195  0.6568  2.1852 -0.1430
14264SOL    HW245558   2.468   8.897   2.319 -0.0312  0.3699 -1.7663
14265SOL     OW45559   0.908   2.816   1.688  0.3845  0.3563 -0.7898
14265SOL    HW145560   0.923   2.887   1.756 -0.3568  0.6786 -0.9575
14265SOL    HW245561   0.972   2.828   1.612 -0.6359  1.6561 -1.4565
14266SOL     OW45562   1.635   2.680   4.146  0.7341 -0.4387  0.6998
14266SOL    HW145563   1.629   2.764   4.092  1.9260 -0.4366  0.5755
14266SOL    HW245564   1.715   2.683   4.205  0.5095 -1.2807  1.0537
14268SOL     OW45565   2.203   0.055   7.249  0.2381 -0.1437  0.3379
14268SOL    HW145566   2.286   0.108   7.258  1.7477 -2.0491 -1.7591
14268SOL    HW245567   2.177   0.049   7.153 -1.4216 -0.9292  0.8043
14269SOL     OW45568   0.435   6.147   6.042  0.1794  0.3270  0.2423
14269SOL    HW145569   0.397   6.188   6.125 -0.0187  1.8595 -0.5875
14269SOL    HW245570   0.532   6.126   6.056  0.2434  0.9408  0.7311
14271SOL     OW45571   8.674   0.156   6.577 -0.4687 -0.2815 -0.0085
14271SOL    HW145572   8.615   0.117   6.648  0.5717  0.4505  1.2741
14271SOL    HW245573   8.753   0.097   6.564 -0.1366  0.1186  0.1836
14273SOL     OW45574   0.635   5.875   0.650 -0.7829 -0.0505 -0.0558
14273SOL    HW145575   0.554   5.895   0.594  0.3155 -0.0893 -1.6903
14273SOL    HW245576   0.680   5.961   0.676  0.0679 -0.0984 -1.3037
14274SOL     OW45577   0.573   1.022   6.880  0.1787 -0.9268  0.1175
14274SOL    HW145578   0.539   0.963   6.953 -0.2627 -0.1377  0.5532
14274SOL    HW245579   0.540   1.115   6.894  0.5134 -0.6627 -0.8058
14276SOL     OW45580   7.136   2.303   3.485 -0.0492 -0.1183  0.2520
14276SOL    HW145581   7.232   2.292   3.458  0.5058 -0.0398  2.1595
14276SOL    HW245582   7.115   2.400   3.494 -0.1637 -0.1505  0.3245
14277SOL     OW45583   4.868   6.691   2.409  0.4392  0.4994 -0.1885
14277SOL    HW145584   4.896   6.596   2.394  0.0373  0.5688 -1.3699
14277SOL    HW245585   4.877   6.743   2.324 -0.9914  1.0997  0.0060
14278SOL     OW45586   2.208   4.051   7.290 -0.1628  0.3409 -0.2558
14278SOL    HW145587   2.274   4.126   7.280  0.5703 -0.0581  1.3503
14278SOL    HW245588   2.169   4.054   7.382 -0.3914 -1.0408 -0.2980
14280SOL     OW45589   4.248   9.082   0.533  0.5891  0.5999  0.1145
14280SOL    HW145590   4.325   9.030   0.569  0.6200  0.0505 -0.7166
14280SOL    HW245591   4.163   9.045   0.569  0.6078 -0.0739 -0.4994
14281SOL     OW45592   5.719   3.156   1.986 -0.2197 -0.0709  0.7531
14281SOL    HW145593   5.652   3.215   2.031  0.4483 -0.2853  2.0428
14281SOL    HW245594   5.695   3.060   2.002 -0.4129 -0.1535 -0.0050
14284SOL     OW45595   8.083   0.191   1.926 -0.1123  0.4097  0.1312
14284SOL    HW145596   8.160   0.153   1.874  0.8372  0.0259  1.8104
14284SOL    HW245597   8.091   0.291   1.929 -0.5907  0.4944 -1.1016
14285SOL     OW45598   8.328   7.566   5.852  0.0032  0.3153 -0.0377
14285SOL    HW145599   8.389   7.645   5.842 -2.5052  2.2847 -0.2582
14285SOL    HW245600   8.257   7.570   5.781 -1.8862 -0.5168  1.7720
14286SOL     OW45601   5.129   8.788   5.505  0.3039  0.3646  0.1606
14286SOL    HW145602   5.085   8.698   5.494  1.0482  0.0618 -0.4361
14286SOL    HW245603   5.124   8.816   5.600 -1.0486  0.2673  0.1256
14287SOL     OW45604   7.821   9.533   6.302 -0.1479 -0.4223  0.1641
14287SOL    HW145605   7.881   9.613   6.294  0.2642 -0.7988 -0.5834
14287SOL    HW245606   7.726   9.560   6.284  0.0802 -0.2263 -0.7766
14288SOL     OW45607   2.035   4.467   4.999  0.0722  0.1712  0.0208
14288SOL    HW145608   2.109   4.432   4.940 -0.3893  0.6583 -0.8547
14288SOL    HW245609   2.010   4.559   4.970 -1.5139 -0.3332 -0.2962
14290SOL     OW45610   1.689   4.420   3.909  0.1186  0.1983 -0.1513
14290SOL    HW145611   1.673   4.366   3.992 -0.6330 -0.0586 -0.4641
14290SOL    HW245612   1.785   4.413   3.883  0.4116  0.4329  0.8073
14291SOL     OW45613   8.965   2.753   4.205 -0.2883 -0.6619 -0.3121
14291SOL    HW145614   9.008   2.751   4.296 -1.8020 -0.1160  0.4283
14291SOL    HW245615   8.925   2.663   4.186 -1.9165 -0.1385  0.5317
14292SOL     OW45616   3.326   0.995   3.525  0.0913  0.2269  0.1868
14292SOL    HW145617   3.337   0.928   3.451 -0.0930  0.2795  0.1108
14292SOL    HW245618   3.264   1.067   3.495 -0.7533 -0.2657  0.7349
14293SOL     OW45619   3.272   5.731   5.561  0.5422  0.1751 -0.0621
14293SOL    HW145620   3.292   5.736   5.659  1.4203  0.9464 -0.2766
14293SOL    HW245621   3.346   5.773   5.509 -0.1664  0.2466 -1.0387
14294SOL     OW45622   1.931   7.232   2.308 -0.1536 -0.1817 -0.1689
14294SOL    HW145623   1.837   7.251   2.334 -0.2170 -1.4019  0.5300
14294SOL    HW245624   1.992   7.299   2.351 -0.7564  1.1288 -1.3005
14295SOL     OW45625   1.422   8.345   5.936  0.2915 -0.2350 -0.0265
14295SOL    HW145626   1.516   8.312   5.945  0.6417  0.3999 -1.1664
14295SOL    HW245627   1.404   8.366   5.840 -0.4647  1.2749  0.4345
14297SOL     OW45628   3.131   6.541   6.837 -0.2895  0.3450  0.3348
14297SOL    HW145629   3.055   6.564   6.898 -0.6718 -0.9001  0.3261
14297SOL    HW245630   3.172   6.455   6.865  0.1836  0.2742 -0.5559
14298SOL     OW45631   6.261   1.745   6.506 -0.3596 -0.1224  0.3313
14298SOL    HW145632   6.260   1.802   6.589 -0.8664 -0.6987  0.7284
14298SOL    HW245633   6.309   1.793   6.433  0.3509  0.2731  1.0491
14299SOL     OW45634   3.769   6.302   4.581 -0.0018 -0.3444  0.4380
14299SOL    HW145635   3.717   6.358   4.516 -0.4194  0.5445  1.5276
14299SOL    HW245636   3.851   6.352   4.609  0.5374 -1.0183  0.0642
14301SOL     OW45637   3.745   1.724   1.945 -0.3443  0.3507 -0.1457
14301SOL    HW145638   3.708   1.726   1.852 -0.9576 -0.7670  0.0615
14301SOL    HW245639   3.677   1.758   2.009  0.1634  1.3396 -0.1346
14302SOL     OW45640   2.895   9.857   5.482 -0.1582  0.3462  0.0973
14302SOL    HW145641   2.845   9.828   5.400 -1.2068  1.8586  0.1956
14302SOL    HW245642   2.918   9.776   5.537 -0.2363 -0.5916 -1.2328
14303SOL     OW45643   6.013   4.697   1.422 -0.4957  0.4990 -0.1380
14303SOL    HW145644   5.949   4.691   1.499 -1.1693  0.3100 -0.7131
14303SOL    HW245645   6.086   4.762   1.444 -1.0575  0.9490  0.3848
14304SOL     OW45646   0.883   5.845   1.192 -0.3486  0.4030  0.0379
14304SOL    HW145647   0.851   5.837   1.097 -0.0544 -0.3470 -0.0045
14304SOL    HW245648   0.805   5.849   1.253 -0.5367  0.0334 -0.1760
14305SOL     OW45649   0.855   7.454   4.866  0.1706 -0.0728  0.4017
14305SOL    HW145650   0.879   7.389   4.794  0.2427  0.0813  0.2867
14305SOL    HW245651   0.912   7.436   4.947  1.4918  1.0244 -0.2599
14306SOL     OW45652   0.668   0.856   3.103  0.2392 -0.0194 -0.3323
14306SOL    HW145653   0.728   0.919   3.054  0.4250 -1.3369 -1.8522
14306SOL    HW245654   0.703   0.762   3.093 -1.5475 -0.6948 -0.4493
14307SOL     OW45655   9.021   8.382   2.540 -0.2613  0.3790 -0.0114
14307SOL    HW145656   8.924   8.396   2.519 -0.8171 -1.3457  1.3070
14307SOL    HW245657   9.038   8.285   2.554  2.0175  0.4776 -1.8596
14308SOL     OW45658   0.658   3.690  10.082  0.7181  0.2782 -0.4909
14308SOL    HW145659   0.560   3.691  10.064  0.6933  1.1178 -0.3421
14308SOL    HW245660   0.695   3.783  10.075  1.2178  0.2056  0.9459
14309SOL     OW45661   7.184   3.715   0.524 -0.0938  0.5552  0.0306
14309SOL    HW145662   7.192   3.752   0.616  0.8553  0.3820  0.0219
14309SOL    HW245663   7.103   3.657   0.518 -0.7713  1.4393  0.4461
14310SOL     OW45664   7.470   2.991   4.196 -0.1591  0.1391 -0.3092
14310SOL    HW145665   7.556   3.040   4.181 -0.0274 -0.0073 -0.0322
14310SOL    HW245666   7.396   3.040   4.150 -0.0875  0.8025  0.2664
14311SOL     OW45667   2.671   3.957   7.463  0.5163  0.4577 -0.4421
14311SOL    HW145668   2.666   3.999   7.554  0.9552  0.3591 -0.3732
14311SOL    HW245669   2.585   3.910   7.444  1.7268 -2.6895  1.4488
14312SOL     OW45670   4.384   9.663   3.140 -0.4326 -0.9687  0.2038
14312SOL    HW145671   4.317   9.679   3.212 -1.3235 -0.5333 -0.7045
14312SOL    HW245672   4.406   9.750   3.096  1.8939 -0.8732  1.4995
14313SOL     OW45673   0.080   6.478   5.563 -0.5999  0.5205 -0.3475
14313SOL    HW145674   0.045   6.442   5.649  1.1698 -0.4563  0.0102
14313SOL    HW245675   0.054   6.417   5.488 -1.7837  1.1460 -0.4472
14314SOL     OW45676   4.597   8.775   3.916  0.1099 -0.9463  0.6416
14314SOL    HW145677   4.604   8.813   4.008  1.2237 -1.1836  0.6644
14314SOL    HW245678   4.657   8.826   3.854  0.9226 -2.0872  0.4859
14315SOL     OW45679   7.995   9.358   5.753 -0.6796  0.0620  0.0037
14315SOL    HW145680   8.013   9.310   5.839  0.1421  0.6919  0.1934
14315SOL    HW245681   8.057   9.325   5.682  0.4174  1.3475  0.3315
14316SOL     OW45682   4.020   7.095   4.050  0.3445 -0.0184 -0.0026
14316SOL    HW145683   3.922   7.100   4.070  0.7318 -0.8955  2.1823
14316SOL    HW245684   4.066   7.175   4.088  0.4565  0.5189 -1.2476
14317SOL     OW45685   2.744   5.218   2.264  0.3150  0.0623 -0.5016
14317SOL    HW145686   2.718   5.171   2.180 -1.2330  0.5375 -0.3095
14317SOL    HW245687   2.844   5.221   2.272  0.4477 -1.3641 -1.5238
14318SOL     OW45688   3.290   0.602   7.419  0.3694  0.2624  0.3872
14318SOL    HW145689   3.386   0.621   7.398 -0.0544  0.1035 -1.9213
14318SOL    HW245690   3.235   0.616   7.336 -1.2854 -1.8954  1.0780
14319SOL     OW45691   8.043   7.069   2.017 -0.2242 -0.2040  0.1913
14319SOL    HW145692   7.994   7.066   2.104 -1.3395  3.8878 -0.1774
14319SOL    HW245693   8.135   7.106   2.032 -1.3190  3.0152 -0.6322
14320SOL     OW45694   2.778   6.192   5.847  0.3687 -0.2413  0.3509
14320SOL    HW145695   2.740   6.120   5.904  3.5431 -1.7058  0.6914
14320SOL    HW245696   2.735   6.188   5.756 -0.3258 -1.7996  0.7262
14321SOL     OW45697   3.848   2.512   7.880 -0.1103 -0.0905 -0.6645
14321SOL    HW145698   3.879   2.476   7.792 -1.1134  0.7927 -1.3914
14321SOL    HW245699   3.748   2.511   7.883 -0.0777 -0.9792  0.8434
14322SOL     OW45700   3.416   7.637   4.758  0.0380 -0.1824 -0.1149
14322SOL    HW145701   3.489   7.704   4.765  0.8941 -1.0522 -0.6941
14322SOL    HW245702   3.453   7.548   4.732 -1.1111 -0.8467  0.4375
14323SOL     OW45703   1.520   5.178   6.271  0.1937  0.5485 -0.4199
14323SOL    HW145704   1.585   5.254   6.275 -0.2136  0.8131  1.6525
14323SOL    HW245705   1.428   5.213   6.255  0.2933  0.3031 -1.6126
14325SOL     OW45706   2.612   2.466   6.358 -0.7776 -0.5660 -0.0873
14325SOL    HW145707   2.564   2.553   6.364 -0.2275 -0.4368  3.0835
14325SOL    HW245708   2.566   2.407   6.291 -1.4040  1.9509 -1.9588
14330SOL     OW45709   3.506   6.888   1.671  0.0782 -0.1449 -0.2560
14330SOL    HW145710   3.517   6.922   1.765 -1.5971 -0.0641 -0.0784
14330SOL    HW245711   3.531   6.961   1.607  4.2879 -1.1674  0.0530
14331SOL     OW45712   9.827   7.919   3.378  0.0046 -0.1346  0.2147
14331SOL    HW145713   9.736   7.881   3.397 -0.4490  0.6043 -0.4083
14331SOL    HW245714   9.864   7.877   3.295 -0.8728  1.3475 -0.9756
14332SOL     OW45715   4.692   1.467   0.056  0.3646  0.5677 -0.2135
14332SOL    HW145716   4.642   1.493  -0.027  0.3695  1.3561  0.0244
14332SOL    HW245717   4.781   1.514   0.057  2.1292 -2.5848 -1.7594
14334SOL     OW45718   6.544   9.570   5.832  0.0807  0.2117  0.5462
14334SOL    HW145719   6.447   9.545   5.833 -0.4020  2.0686  1.0681
14334SOL    HW245720   6.597   9.496   5.790 -1.5131 -0.9676  0.5908
14335SOL     OW45721   6.478   3.744   0.442  0.2320 -0.3361 -0.1371
14335SOL    HW145722   6.483   3.841   0.465 -0.5675 -0.5627  1.0487
14335SOL    HW245723   6.390   3.726   0.397  0.1488 -0.5979  0.1259
14336SOL     OW45724   4.243   3.738   0.109 -0.5383 -0.6237  0.0882
14336SOL    HW145725   4.148   3.768   0.102  0.1063  0.6989 -4.6637
14336SOL    HW245726   4.284   3.775   0.193 -2.9137  2.6351 -0.1068
14337SOL     OW45727   3.791   0.431   4.955 -0.2399 -0.4652 -0.4356
14337SOL    HW145728   3.791   0.355   4.890 -1.3607 -0.0802 -0.8994
14337SOL    HW245729   3.780   0.518   4.905 -2.8905 -0.2838  0.3513
14338SOL     OW45730   2.130   5.765   6.660 -0.6408  0.1242  0.2738
14338SOL    HW145731   2.096   5.682   6.616 -1.1467  0.3883  0.1642
14338SOL    HW245732   2.054   5.825   6.683 -0.6000 -0.9126  3.3854
14339SOL     OW45733   3.064   6.857   6.940  0.2443  0.6485  0.5306
14339SOL    HW145734   3.042   6.924   6.870  1.3764  1.1469  0.6399
14339SOL    HW245735   3.004   6.777   6.930 -0.1256  1.0486 -0.5093
14340SOL     OW45736   8.411   9.855   2.085  0.8839  0.6268  0.1587
14340SOL    HW145737   8.323   9.897   2.104  0.0398 -1.0863  0.1128
14340SOL    HW245738   8.449   9.818   2.170  1.8654  1.8767  0.2932
14341SOL     OW45739   1.274   8.408   0.623 -0.5445 -0.1232  0.3044
14341SOL    HW145740   1.307   8.466   0.697 -0.5259 -1.5862  1.4751
14341SOL    HW245741   1.348   8.392   0.557  0.2414 -0.9360  1.3521
14342SOL     OW45742   3.517   6.826   0.741  0.3742  0.0210 -0.2583
14342SOL    HW145743   3.610   6.797   0.719  0.0249 -0.7971 -0.6939
14342SOL    HW245744   3.487   6.783   0.826  0.7102  0.9827  0.3529
14343SOL     OW45745   4.974   1.490   3.872  0.5410  0.3033 -0.2015
14343SOL    HW145746   4.923   1.438   3.940  0.8391  0.8356  0.4379
14343SOL    HW245747   5.010   1.429   3.802  0.9087 -0.3471  0.5569
14345SOL     OW45748   7.246   0.335   6.731  0.0811 -0.1540 -0.1240
14345SOL    HW145749   7.334   0.384   6.733  1.1935 -2.1434  1.7878
14345SOL    HW245750   7.256   0.251   6.679 -1.0041  0.1526 -0.8365
14346SOL     OW45751   2.903   5.855   2.873  0.1518  0.2561 -0.1660
14346SOL    HW145752   2.814   5.900   2.875  0.2585  0.4503  0.1283
14346SOL    HW245753   2.941   5.861   2.780  0.5539  1.5137  0.0755
14347SOL     OW45754   7.650   1.377   1.128  0.1302 -0.0838 -0.0502
14347SOL    HW145755   7.728   1.383   1.067  0.4069  0.0561  0.3187
14347SOL    HW245756   7.639   1.463   1.178  2.6225 -1.6351  3.4180
14348SOL     OW45757   6.945   4.291   2.044  0.4374  0.1359 -0.3033
14348SOL    HW145758   6.919   4.351   1.968 -2.3109  0.9008  1.1718
14348SOL    HW245759   7.033   4.247   2.024  0.0330  0.7567 -3.6424
14349SOL     OW45760   2.935   5.590   3.698  0.1935  0.5707 -0.3689
14349SOL    HW145761   2.977   5.672   3.658 -0.9259  0.6175 -1.5000
14349SOL    HW245762   2.870   5.551   3.632 -1.6554  0.6172  1.3889
14350SOL     OW45763   6.474   2.050   0.520  0.4535 -0.3950 -0.3875
14350SOL    HW145764   6.400   2.064   0.586  1.1745 -2.6369  0.9673
14350SOL    HW245765   6.530   2.132   0.514 -1.9556  1.2434 -1.2268
14351SOL     OW45766   0.230   7.735   7.099 -0.0194  0.4891 -0.0080
14351SOL    HW145767   0.298   7.703   7.166 -0.6411  2.0736  1.4149
14351SOL    HW245768   0.222   7.834   7.106 -1.9852  0.3800 -0.6505
14352SOL     OW45769   0.068   4.696   4.926 -0.0231 -0.3130  0.1829
14352SOL    HW145770   0.114   4.699   4.837  0.4872 -0.6451  0.4382
14352SOL    HW245771   0.122   4.746   4.993 -0.8237  0.6659  0.1213
14354SOL     OW45772   6.564   1.276   2.855 -0.8282  0.3148 -0.0074
14354SOL    HW145773   6.595   1.304   2.945  0.2272 -0.0126 -0.2653
14354SOL    HW245774   6.523   1.185   2.861  1.6440 -0.8642 -0.2955
14355SOL     OW45775   4.392   1.986   4.880  0.2532  0.2921 -0.1656
14355SOL    HW145776   4.367   2.061   4.941  0.9402  0.8090 -0.5093
14355SOL    HW245777   4.324   1.978   4.807  2.0401  3.0267 -2.2835
14356SOL     OW45778   3.346   1.033   4.445  0.4967  0.2842 -0.0619
14356SOL    HW145779   3.277   1.090   4.399  0.0387  0.8957  1.3570
14356SOL    HW245780   3.302   0.954   4.486  0.4581  1.2575  1.8046
14357SOL     OW45781   1.487   2.728   1.067  0.0763  0.4540  0.4066
14357SOL    HW145782   1.572   2.675   1.066  0.1507  0.5598  1.2803
14357SOL    HW245783   1.427   2.693   1.139 -0.3827  0.7697  0.1808
14358SOL     OW45784   3.671   9.664   5.725  0.0738  0.1594 -0.1839
14358SOL    HW145785   3.770   9.678   5.720 -0.0978  2.1341  1.0123
14358SOL    HW245786   3.625   9.753   5.724 -1.6835 -0.7351 -0.6424
14359SOL     OW45787   5.130   7.632   6.025  0.4570  0.0542 -0.4442
14359SOL    HW145788   5.204   7.636   5.958  0.8258 -1.4342 -0.1329
14359SOL    HW245789   5.133   7.714   6.083  1.2297  0.4867 -1.0975
14360SOL     OW45790   1.946   3.321   5.340 -0.2039 -0.1771  0.6398
14360SOL    HW145791   1.867   3.382   5.350 -0.1983 -0.5617  3.5437
14360SOL    HW245792   1.915   3.226   5.344 -0.0039 -0.3727 -2.0353
14361SOL     OW45793   5.395   0.518   5.118  0.2602  0.6340  0.2082
14361SOL    HW145794   5.396   0.574   5.200 -0.4349 -0.1788  0.7791
14361SOL    HW245795   5.376   0.423   5.142 -4.1302  0.9873 -1.2084
14362SOL     OW45796   5.262   4.740   1.384 -0.2937 -0.0896  0.4033
14362SOL    HW145797   5.317   4.780   1.310 -0.4681 -1.3798 -0.4484
14362SOL    HW245798   5.187   4.802   1.408 -0.4888  0.1442 -0.7951
14363SOL     OW45799   7.380   7.275   1.651  0.5215 -0.2764  0.0914
14363SOL    HW145800   7.395   7.179   1.677  1.0376 -0.4790 -0.9325
14363SOL    HW245801   7.430   7.295   1.567 -0.3971  0.6227 -0.2461
14364SOL     OW45802   4.816   8.877   5.037  0.2897 -0.6407 -0.0829
14364SOL    HW145803   4.788   8.836   5.124 -1.3058 -0.4125 -0.4646
14364SOL    HW245804   4.903   8.838   5.008  1.9515  0.7956  2.6742
14365SOL     OW45805   1.515   7.248   6.535 -0.1095  0.3199 -0.0894
14365SOL    HW145806   1.453   7.297   6.474 -0.0280  0.2930 -0.1937
14365SOL    HW245807   1.607   7.251   6.498  0.1445  1.2809  0.6124
14366SOL     OW45808   6.144   8.563   3.541 -0.1124 -1.1189 -0.9255
14366SOL    HW145809   6.106   8.530   3.454  1.8082 -2.0287 -1.4638
14366SOL    HW245810   6.223   8.622   3.522  1.8699 -3.2995  0.1959
14367SOL     OW45811   9.199   0.665   7.908 -0.0950 -0.3243 -0.3075
14367SOL    HW145812   9.187   0.656   8.007  1.0325  0.2563 -0.1178
14367SOL    HW245813   9.124   0.618   7.862 -0.0185 -1.5987  0.8113
14368SOL     OW45814   6.791   3.308   0.189 -0.5781  0.0973 -0.3882
14368SOL    HW145815   6.807   3.249   0.269  0.5750 -0.5298 -1.0781
14368SOL    HW245816   6.695   3.298   0.161 -0.8496 -0.1091  0.5736
14369SOL     OW45817   2.020   8.785   0.892  0.4761 -0.2766  0.5688
14369SOL    HW145818   1.988   8.708   0.837  4.1267 -1.3100 -0.2784
14369SOL    HW245819   1.998   8.871   0.845  0.2001 -0.9828 -0.6321
14370SOL     OW45820   7.100   0.041   1.790 -0.1888 -0.0129  0.3486
14370SOL    HW145821   7.145   0.130   1.797  2.9581 -1.4114 -0.9023
14370SOL    HW245822   7.010   0.052   1.749  0.0521  2.6299  0.4523
14372SOL     OW45823   4.010   5.483   7.544 -0.0317  0.1879 -0.8580
14372SOL    HW145824   4.041   5.578   7.540  1.7900 -0.4215 -1.8649
14372SOL    HW245825   3.977   5.455   7.454  0.2036 -0.3875 -0.7646
14373SOL     OW45826   5.060   8.213   4.562 -0.2043  0.4141  0.4337
14373SOL    HW145827   5.121   8.292   4.565  0.7461 -0.2498 -1.2120
14373SOL    HW245828   5.084   8.149   4.635 -1.9531  2.3034  2.7759
14374SOL     OW45829   3.036   7.784   7.943 -0.7047 -0.1518  0.2345
14374SOL    HW145830   3.108   7.816   8.005  1.6727 -1.2124 -1.8844
14374SOL    HW245831   3.007   7.860   7.885  0.4906 -0.3063 -0.5787
14375SOL     OW45832   8.758   1.709   1.992  0.0602  0.2347  0.2553
14375SOL    HW145833   8.795   1.617   1.979 -1.1575 -0.5627  2.2799
14375SOL    HW245834   8.674   1.704   2.045 -0.7606  2.4075 -0.8046
14376SOL     OW45835   1.940   9.567   2.550  0.1462 -0.0827  0.0622
14376SOL    HW145836   1.846   9.592   2.574  0.6103  0.0455  1.7907
14376SOL    HW245837   1.993   9.553   2.633  1.7260  0.0520 -0.9059
14377SOL     OW45838   9.284   3.177   3.906 -0.0640  0.1545  0.0529
14377SOL    HW145839   9.272   3.122   3.988  1.6138  0.0366  0.2338
14377SOL    HW245840   9.218   3.252   3.906 -0.8064 -0.4852  0.9448
14378SOL     OW45841   5.234   7.322   4.253  0.3536 -0.4564  0.2515
14378SOL    HW145842   5.292   7.331   4.334  0.6715  1.4094 -0.1755
14378SOL    HW245843   5.163   7.393   4.254  0.0986 -0.6860 -0.9062
14379SOL     OW45844   8.877   2.129   7.916 -0.2074 -0.3076 -0.3257
14379SOL    HW145845   8.902   2.037   7.889  2.4959  0.0583  0.7333
14379SOL    HW245846   8.860   2.131   8.015 -1.5508  0.0761 -0.5532
14381SOL     OW45847   1.708   7.971   3.111 -0.5734  0.5451  0.4953
14381SOL    HW145848   1.731   8.014   3.198  0.0123 -0.7635  1.0046
14381SOL    HW245849   1.644   7.896   3.127  0.0889 -0.1518 -0.1201
14382SOL     OW45850   8.091   4.553   0.707  0.0508 -0.0527  0.8964
14382SOL    HW145851   8.157   4.479   0.691 -0.6733 -0.1712 -1.6352
14382SOL    HW245852   8.116   4.633   0.653 -0.5946  0.7093  1.7017
14384SOL     OW45853   0.974   1.555   7.404 -0.5925  0.0460  0.0057
14384SOL    HW145854   1.013   1.470   7.369  0.7660  0.7353 -0.1702
14384SOL    HW245855   1.003   1.568   7.499  0.3723  1.0245 -0.4174
14385SOL     OW45856   7.709   5.237   0.233 -0.0309 -0.1372 -0.0592
14385SOL    HW145857   7.631   5.296   0.211  0.0836  0.0681  0.0845
14385SOL    HW245858   7.709   5.217   0.331  0.5602  0.5200  0.0732
14386SOL     OW45859   6.448   4.948   0.272  0.3233  0.5956  0.0808
14386SOL    HW145860   6.458   4.951   0.173  2.4189  1.1527  0.2751
14386SOL    HW245861   6.537   4.926   0.314 -0.4690  0.6490  1.8423
14387SOL     OW45862   6.381   4.836   2.348  0.8186 -0.0450  0.3804
14387SOL    HW145863   6.372   4.737   2.336  1.7587 -0.1237  0.2904
14387SOL    HW245864   6.327   4.865   2.427  1.5263 -0.8172  1.1513
14388SOL     OW45865   3.099   0.322   5.750 -0.8569 -0.1642  0.6129
14388SOL    HW145866   3.016   0.344   5.699 -1.1039 -0.8375  0.7141
14388SOL    HW245867   3.074   0.278   5.836 -0.4304  0.6327  1.1434
14389SOL     OW45868   8.807   2.571   4.465  0.2892  0.2886 -0.0662
14389SOL    HW145869   8.805   2.555   4.366 -0.8209 -0.1104  0.0132
14389SOL    HW245870   8.796   2.484   4.512  0.3345  0.5450  0.4177
14390SOL     OW45871   5.748   8.325   4.242 -0.0951  0.0546 -0.1598
14390SOL    HW145872   5.690   8.252   4.279 -1.5695  1.4209  0.2670
14390SOL    HW245873   5.693   8.406   4.223  1.2511  0.5557 -2.1036
14391SOL     OW45874   6.630   7.245   5.041  0.1904  0.0294  0.1645
14391SOL    HW145875   6.612   7.266   4.945  0.8149  0.7408  0.2034
14391SOL    HW245876   6.690   7.165   5.047  0.0351 -0.1017 -0.0337
14393SOL     OW45877   2.225   8.322   0.744 -0.4119 -0.0837  0.0319
14393SOL    HW145878   2.301   8.370   0.789  0.7881 -1.5763 -0.3768
14393SOL    HW245879   2.242   8.320   0.645 -0.8456 -0.6597 -0.0302
14394SOL     OW45880   1.507   2.191   2.758  0.3158  0.2513 -0.2596
14394SOL    HW145881   1.536   2.166   2.665  2.3947  0.8134  0.2091
14394SOL    HW245882   1.415   2.157   2.774  0.0425 -0.1359 -2.4260
14395SOL     OW45883   7.985   5.223   3.143 -0.3211  0.0859  0.0578
14395SOL    HW145884   8.029   5.140   3.109 -0.2079  0.2642 -0.2368
14395SOL    HW245885   8.021   5.302   3.093  0.1946  0.4076  0.9332
14397SOL     OW45886   1.065   3.239   4.638  0.0084 -0.2623 -0.0868
14397SOL    HW145887   0.967   3.257   4.641 -0.0555 -0.7939  0.9035
14397SOL    HW245888   1.080   3.142   4.620  0.3534 -0.2018 -0.1168
14398SOL     OW45889   9.346   0.681   5.267 -0.7757  0.0940  0.1122
14398SOL    HW145890   9.427   0.683   5.326 -0.6097 -0.9779 -0.0711
14398SOL    HW245891   9.292   0.599   5.287 -1.6034  0.5831 -0.0609
14399SOL     OW45892   3.509   8.850   3.162  0.0511  0.2077 -0.1681
14399SOL    HW145893   3.520   8.753   3.185 -0.4904  0.4152  1.0292
14399SOL    HW245894   3.591   8.883   3.117  0.2040 -0.8346 -0.6703
14400SOL     OW45895   8.472   0.882   5.257 -0.6825 -0.4462  0.2485
14400SOL    HW145896   8.441   0.945   5.327  2.4425  0.9191  0.5261
14400SOL    HW245897   8.541   0.821   5.295  1.8149  0.9819 -1.7513
14402SOL     OW45898   8.318   1.122   3.534 -0.1653 -0.1951  0.1416
14402SOL    HW145899   8.270   1.046   3.577 -0.1210 -0.5582 -0.4411
14402SOL    HW245900   8.394   1.151   3.592 -0.0259 -0.7598  0.2427
14403SOL     OW45901   7.525   9.498   3.223 -0.1498  0.5438  0.0133
14403SOL    HW145902   7.530   9.408   3.267  0.3288  0.6626  0.1951
14403SOL    HW245903   7.435   9.538   3.241 -0.9828 -0.6164 -1.4581
14406SOL     OW45904   5.442   8.538   5.427 -0.1320 -0.2508  0.0913
14406SOL    HW145905   5.448   8.638   5.423 -0.4032 -0.2489 -0.3796
14406SOL    HW245906   5.407   8.510   5.516 -2.0153  0.1825 -0.4783
14407SOL     OW45907   2.623   0.068   0.578  0.3120  0.2926  0.2016
14407SOL    HW145908   2.603  -0.030   0.584  2.4383 -0.1348  0.6454
14407SOL    HW245909   2.570   0.117   0.647  1.6755 -0.9568  2.1858
14408SOL     OW45910   2.103   8.531   6.279  0.1239 -0.1418 -0.1614
14408SOL    HW145911   2.019   8.504   6.326 -1.1250 -0.9439 -2.7922
14408SOL    HW245912   2.154   8.450   6.253 -0.1997  0.2007 -1.9272
14409SOL     OW45913   4.392   9.979   2.151  0.0175 -0.1171 -0.2425
14409SOL    HW145914   4.440  10.011   2.232 -2.9700 -1.2070  2.0411
14409SOL    HW245915   4.387   9.879   2.152 -0.6499 -0.1134 -1.4370
14410SOL     OW45916   9.132   1.114   1.447 -0.0527 -0.1490  0.0505
14410SOL    HW145917   9.118   1.111   1.349 -0.4467 -0.3808  0.1127
14410SOL    HW245918   9.058   1.064   1.493 -0.2589  0.5699  0.4989
14412SOL     OW45919   3.981   9.020   0.684  0.1087  0.1076 -0.1170
14412SOL    HW145920   3.939   9.043   0.772  0.8384 -1.4363  0.6542
14412SOL    HW245921   3.912   9.024   0.612 -0.7696  0.2048  0.7135
14413SOL     OW45922   6.342   0.661   6.053 -0.3318 -0.2857  0.3939
14413SOL    HW145923   6.262   0.674   5.994  0.6923  1.6873 -0.6169
14413SOL    HW245924   6.396   0.584   6.019  1.2345  1.9572 -2.4591
14414SOL     OW45925   0.178   8.199   2.258 -0.1148 -0.2777 -0.1553
14414SOL    HW145926   0.121   8.178   2.338  0.6375  2.1071  1.0457
14414SOL    HW245927   0.130   8.263   2.199 -0.2908 -1.3400 -1.1736
14416SOL     OW45928   4.677   1.593   6.879 -0.1835  0.3156  0.0716
14416SOL    HW145929   4.641   1.621   6.968 -0.3068  0.2791  0.0333
14416SOL    HW245930   4.720   1.671   6.835 -0.2936  0.3803  0.0797
14417SOL     OW45931   2.675   9.555   0.785 -0.1763  0.1247 -0.6412
14417SOL    HW145932   2.668   9.609   0.868 -0.7499 -2.0402  0.7586
14417SOL    HW245933   2.693   9.459   0.808  1.4859 -0.2130 -3.0732
14418SOL     OW45934   1.432   2.025   3.677  0.0568  0.4559  0.5630
14418SOL    HW145935   1.360   1.956   3.676  1.1426 -0.7038  0.2783
14418SOL    HW245936   1.512   1.989   3.726  0.5872  1.5595  0.5243
14419SOL     OW45937   5.563   8.159   2.463 -0.6500 -0.1571  0.4517
14419SOL    HW145938   5.534   8.225   2.531  0.2496  0.6165  0.0986
14419SOL    HW245939   5.660   8.139   2.476 -0.6990 -0.7187 -0.0206
14420SOL     OW45940   1.052   3.682   6.988 -0.3238 -0.0939 -0.1557
14420SOL    HW145941   1.108   3.755   7.027 -0.5354 -0.7218  1.3578
14420SOL    HW245942   1.111   3.617   6.940  0.1915 -0.4624  0.9585
14421SOL     OW45943   0.166   7.805   4.211 -0.6165 -0.5095  0.0068
14421SOL    HW145944   0.239   7.834   4.150 -0.0576  0.5388  1.1708
14421SOL    HW245945   0.140   7.710   4.189  2.3728 -1.5631  0.8223
14422SOL     OW45946   7.887   5.191   6.969  0.2035  0.2550 -0.5380
14422SOL    HW145947   7.793   5.198   7.003  0.6478  3.0052  0.2386
14422SOL    HW245948   7.894   5.234   6.879  1.1743  2.1838  0.4278
14423SOL     OW45949   4.732   2.814   6.922  0.6597  0.7349 -0.1655
14423SOL    HW145950   4.825   2.790   6.896  1.4453  0.2055  2.8797
14423SOL    HW245951   4.732   2.846   7.017 -2.0095  2.4066 -0.6881
14424SOL     OW45952   5.034   7.824   4.444  0.1011  0.6298 -0.9414
14424SOL    HW145953   5.119   7.875   4.456 -0.8069  1.8607  0.4293
14424SOL    HW245954   4.990   7.810   4.532 -1.5963  0.8513 -1.7284
14425SOL     OW45955   7.013   0.663   1.789  0.0070  0.1740  0.1526
14425SOL    HW145956   6.939   0.727   1.770  0.9687  1.1761 -0.3282
14425SOL    HW245957   6.994   0.576   1.744 -0.8927  0.4141  0.0588
14426SOL     OW45958   8.169   5.403   1.432  0.0638  0.5509 -0.6143
14426SOL    HW145959   8.085   5.426   1.383 -0.7136  1.5284  1.1609
14426SOL    HW245960   8.217   5.487   1.457 -0.3513  0.1261  1.6950
14427SOL     OW45961   3.680   0.780   6.243  0.0501 -0.1086 -0.5021
14427SOL    HW145962   3.728   0.698   6.273  0.0262  0.0581 -0.0018
14427SOL    HW245963   3.637   0.763   6.154 -2.5288 -1.6611  0.9652
14428SOL     OW45964   8.957   8.595   0.211  0.5677  0.1676 -0.7623
14428SOL    HW145965   8.984   8.500   0.223  0.1022  0.3001  1.5441
14428SOL    HW245966   9.024   8.655   0.255 -0.2088  0.7967 -0.4254
14429SOL     OW45967   6.950   9.204   2.158 -0.2382 -0.6476  0.2022
14429SOL    HW145968   7.018   9.133   2.173  0.8110  0.7188  2.3003
14429SOL    HW245969   6.877   9.194   2.226 -0.6804 -0.4194 -0.2386
14430SOL     OW45970   9.492   5.101   6.527 -0.4610  0.5842 -0.1223
14430SOL    HW145971   9.573   5.091   6.469 -0.1856 -0.9963  0.5091
14430SOL    HW245972   9.417   5.137   6.473 -0.2257 -0.9294 -1.4960
14432SOL     OW45973   0.599   0.300   6.861  0.1777 -0.1466 -0.2942
14432SOL    HW145974   0.513   0.258   6.892 -0.9532  0.8576 -1.9657
14432SOL    HW245975   0.645   0.344   6.938 -0.1742 -1.7923  0.8641
14434SOL     OW45976   5.742   0.792   4.233  0.0288  0.3651 -0.4710
14434SOL    HW145977   5.813   0.800   4.163 -0.1703 -0.2060 -0.7392
14434SOL    HW245978   5.677   0.867   4.222 -0.3765 -0.1041 -1.3261
14435SOL     OW45979   9.326   9.220   6.500 -0.3625 -0.1298  0.2888
14435SOL    HW145980   9.226   9.226   6.500 -0.3949 -0.3903 -1.7142
14435SOL    HW245981   9.363   9.292   6.559 -1.7031  0.4676  0.4325
14436SOL     OW45982   8.052   0.405   4.052 -0.0452  0.0925  0.0405
14436SOL    HW145983   7.995   0.411   4.134  0.5002  2.1930  0.3038
14436SOL    HW245984   8.147   0.426   4.076  0.4390 -1.1038 -0.8006
14437SOL     OW45985   0.460   8.806   5.690  0.6070  0.0018 -0.5433
14437SOL    HW145986   0.470   8.872   5.764  0.0042  0.1941 -0.6315
14437SOL    HW245987   0.363   8.796   5.667  0.6717 -1.0845 -0.3715
14439SOL     OW45988   1.932   0.389   4.526 -0.7903 -0.0734  0.3598
14439SOL    HW145989   1.853   0.445   4.548 -0.6046  0.2584  0.1832
14439SOL    HW245990   1.984   0.370   4.609 -0.4768  0.5916  0.3238
14440SOL     OW45991   1.491   1.470   6.862  0.1084  0.3712 -0.4662
14440SOL    HW145992   1.391   1.470   6.875  0.0949  0.9962 -0.5527
14440SOL    HW245993   1.530   1.388   6.905 -0.3630  0.4924  0.1978
14441SOL     OW45994   9.249   2.077   6.087 -0.1621  0.1702 -0.3681
14441SOL    HW145995   9.295   2.021   6.017 -1.0499  1.4554 -2.0139
14441SOL    HW245996   9.257   2.173   6.063 -0.8733  0.6029  1.0946
14442SOL     OW45997   8.969   9.129   1.656  0.5516  0.3758  0.1760
14442SOL    HW145998   9.063   9.121   1.689  0.9241  1.3905 -0.6202
14442SOL    HW245999   8.960   9.210   1.599 -0.3656 -0.7212 -1.2933
14443SOL     OW46000   8.745   2.004   1.417 -0.0826 -0.2232 -0.7706
14443SOL    HW146001   8.683   2.006   1.338 -1.7025 -0.1266  0.4934
14443SOL    HW246002   8.698   2.037   1.498  2.0126  1.0735 -0.0329
14444SOL     OW46003   0.158   0.010   2.590 -0.0660  0.3270  0.1594
14444SOL    HW146004   0.224  -0.056   2.556 -1.1082  1.1233 -3.7050
14444SOL    HW246005   0.071  -0.036   2.610  0.1931  0.0169  0.5592
14445SOL     OW46006   3.440   4.561   5.061 -0.3160 -0.3332  0.8033
14445SOL    HW146007   3.400   4.557   5.152  1.2558 -3.1757  1.4266
14445SOL    HW246008   3.392   4.497   5.001  0.9774 -1.1584  0.6288
14447SOL     OW46009   0.483   7.610   5.503  0.1867  0.0149  0.3764
14447SOL    HW146010   0.511   7.550   5.428 -1.9556 -0.0897 -0.3559
14447SOL    HW246011   0.563   7.661   5.536  1.7965 -2.2758  0.1611
14448SOL     OW46012   3.779   2.074   1.039 -0.2840 -0.2499 -0.4566
14448SOL    HW146013   3.860   2.113   0.996 -1.1282  1.0194 -0.9263
14448SOL    HW246014   3.731   2.015   0.973  0.0518 -0.7177 -0.2888
14449SOL     OW46015   3.387   5.157   4.734 -0.8201  0.5076  0.0192
14449SOL    HW146016   3.298   5.119   4.710 -0.9420 -0.5459  1.9836
14449SOL    HW246017   3.438   5.089   4.788  1.3931  0.8713 -1.5587
14450SOL     OW46018   1.669   8.765   4.580 -0.6390  0.0741  0.2066
14450SOL    HW146019   1.700   8.787   4.487 -0.6456 -0.7241  0.0147
14450SOL    HW246020   1.585   8.711   4.575  0.1948 -1.2576  0.6550
14451SOL     OW46021   0.468   6.125   6.682  0.2221  0.4843 -0.1677
14451SOL    HW146022   0.420   6.038   6.671  1.8282 -0.1302 -2.5037
14451SOL    HW246023   0.489   6.139   6.779  0.4724 -2.0173  0.1780
14452SOL     OW46024   8.046   1.231   7.800 -0.9243 -0.3287 -0.2423
14452SOL    HW146025   8.141   1.204   7.814 -1.2162 -1.4106 -0.3049
14452SOL    HW246026   8.036   1.330   7.817  0.8705  0.4704 -3.5394
14453SOL     OW46027   2.412   9.531   5.445 -0.1375 -0.5794 -0.4834
14453SOL    HW146028   2.332   9.514   5.388 -0.4600  0.6113 -0.3893
14453SOL    HW246029   2.431   9.450   5.501  0.2661 -1.8218 -2.3601
14454SOL     OW46030   3.119   4.105   3.173 -0.3685 -0.3114  0.2611
14454SOL    HW146031   3.107   4.202   3.156 -0.9101 -0.1928  1.2856
14454SOL    HW246032   3.069   4.052   3.104  0.6167  0.1222 -0.7944
14455SOL     OW46033   8.767   3.165   2.400 -0.1311  0.5755 -0.5804
14455SOL    HW146034   8.808   3.239   2.346  0.2726  1.1843  0.5394
14455SOL    HW246035   8.710   3.205   2.472 -0.0857 -0.2066 -0.1099
14456SOL     OW46036   6.304   7.323   6.236 -0.6547  0.1038  0.3326
14456SOL    HW146037   6.283   7.362   6.146  0.0330 -0.3804 -0.0442
14456SOL    HW246038   6.224   7.275   6.271 -0.5439 -0.7824 -0.5936
14457SOL     OW46039   8.583   3.771   3.079  0.1642  0.1135  0.3265
14457SOL    HW146040   8.653   3.711   3.041 -1.2493 -1.7397  0.5686
14457SOL    HW246041   8.549   3.833   3.008  1.5403  0.5463  0.0359
14458SOL     OW46042   3.173   1.727   1.726 -0.6359 -0.7716 -0.0615
14458SOL    HW146043   3.122   1.716   1.642  0.8232 -0.2494 -1.0365
14458SOL    HW246044   3.224   1.813   1.723  0.4252 -1.3563  0.8145
14460SOL     OW46045   5.023   8.781   6.191  0.2496  0.0604 -0.1509
14460SOL    HW146046   5.020   8.867   6.242 -1.4380  0.5544 -1.0460
14460SOL    HW246047   4.953   8.782   6.120 -0.7678 -2.6196  0.7296
14461SOL     OW46048   5.380   4.341   0.766  0.2876  0.1693  0.4889
14461SOL    HW146049   5.325   4.267   0.805 -1.2439 -0.1168 -2.0746
14461SOL    HW246050   5.320   4.410   0.726  1.7486  1.8675  1.1454
14462SOL     OW46051   3.017   9.380   0.257 -0.0434 -0.4249  0.7432
14462SOL    HW146052   2.938   9.348   0.205  0.1951 -0.0648  0.1496
14462SOL    HW246053   2.995   9.467   0.301  0.7728  0.8737 -1.3507
14463SOL     OW46054   3.307   7.310   3.052  0.8208 -0.1490 -0.2856
14463SOL    HW146055   3.377   7.263   2.998  1.0684  1.0555 -1.0212
14463SOL    HW246056   3.295   7.403   3.018 -2.1449 -0.7859 -1.0724
14465SOL     OW46057   2.916   1.804   6.196 -0.2903 -0.1101  0.4523
14465SOL    HW146058   2.869   1.763   6.118  2.4302 -1.2099 -0.6954
14465SOL    HW246059   2.884   1.897   6.210 -2.5438 -0.7192 -0.4481
14467SOL     OW46060   5.570   0.816   6.940 -0.1629 -0.3877 -0.7771
14467SOL    HW146061   5.597   0.735   6.887 -0.2810 -0.9264 -0.0257
14467SOL    HW246062   5.639   0.888   6.928  1.1024 -1.3878  0.3050
14468SOL     OW46063   6.939   1.941   4.445  0.1079 -0.3855 -0.1195
14468SOL    HW146064   6.943   1.931   4.544  0.8610  0.0818 -0.0973
14468SOL    HW246065   6.853   1.985   4.419  0.2228  0.1424  0.3804
14469SOL     OW46066   4.255   8.929   3.730 -0.2395  0.5194 -0.0299
14469SOL    HW146067   4.283   8.860   3.663  2.1339 -0.7476  2.1775
14469SOL    HW246068   4.297   9.017   3.708  0.3575  0.1605 -0.3347
14471SOL     OW46069   1.200   1.571   0.976 -0.0313  0.1196  0.3384
14471SOL    HW146070   1.247   1.626   0.907 -1.7289  1.4833  0.2190
14471SOL    HW246071   1.153   1.632   1.040 -1.7578 -1.1816  0.3519
14472SOL     OW46072   6.705   7.481   6.380  0.0644 -0.7593 -0.3868
14472SOL    HW146073   6.791   7.454   6.338  1.1230  0.2102  1.0685
14472SOL    HW246074   6.706   7.455   6.477 -0.8755  0.0694 -0.1426
14474SOL     OW46075   9.532   7.112   4.288 -0.0172 -0.0515 -0.1391
14474SOL    HW146076   9.628   7.091   4.304  0.0260  0.4542  0.3067
14474SOL    HW246077   9.474   7.056   4.347 -0.0035 -0.4440 -0.4967
14476SOL     OW46078   1.265   0.996   1.462 -0.1462 -0.1963 -0.0590
14476SOL    HW146079   1.238   0.916   1.407 -0.0130 -0.7506  0.6816
14476SOL    HW246080   1.310   0.965   1.545  0.1543  0.6663  0.0988
14477SOL     OW46081   0.784   8.382   2.555 -0.6459 -0.4590 -0.0512
14477SOL    HW146082   0.686   8.364   2.544 -0.6032 -1.0232  0.4795
14477SOL    HW246083   0.837   8.314   2.505 -0.5002 -1.1992  1.1079
14478SOL     OW46084   2.842   8.005   1.206 -0.0283  0.1726 -0.2044
14478SOL    HW146085   2.869   8.057   1.286  0.7456 -0.1758 -0.2323
14478SOL    HW246086   2.906   7.929   1.192 -0.7018 -0.3348 -0.5996
14479SOL     OW46087   2.471   9.834   7.307  0.4976 -0.7675 -0.0796
14479SOL    HW146088   2.427   9.746   7.324  2.3924 -1.7951 -0.3846
14479SOL    HW246089   2.570   9.824   7.314  0.7948  1.0856 -1.2573
14480SOL     OW46090   1.671   3.267   6.041  0.3664  0.0732  0.3316
14480SOL    HW146091   1.584   3.278   5.993 -1.2485 -1.9124  2.7188
14480SOL    HW246092   1.726   3.198   5.995 -0.2081 -0.2007  0.0542
14481SOL     OW46093   5.411   2.809   7.082 -0.1892  0.0323 -0.3537
14481SOL    HW146094   5.409   2.908   7.069  0.1326  0.2049  0.8796
14481SOL    HW246095   5.503   2.775   7.063 -0.1073  0.0738 -0.0308
14483SOL     OW46096   0.626   3.443   2.525  0.3642  0.1084  0.5686
14483SOL    HW146097   0.700   3.388   2.563 -0.6661 -0.8828  1.1639
14483SOL    HW246098   0.607   3.520   2.586 -0.9833 -1.2283  1.8885
14484SOL     OW46099   1.824   4.268   1.229 -0.3160 -0.0681 -0.8175
14484SOL    HW146100   1.773   4.188   1.262 -0.4409 -0.1580 -1.2224
14484SOL    HW246101   1.807   4.346   1.289  0.2317 -0.4892 -0.1039
14485SOL     OW46102   1.621   7.867   2.720  0.1803  0.0582  0.1786
14485SOL    HW146103   1.546   7.822   2.671  0.1972  0.8729 -0.6275
14485SOL    HW246104   1.661   7.804   2.786 -0.4379 -0.7728 -0.2292
14486SOL     OW46105   5.432   0.458   4.754 -0.1027 -0.1149 -0.9747
14486SOL    HW146106   5.501   0.529   4.771 -1.8824  2.1738 -2.9010
14486SOL    HW246107   5.476   0.368   4.751  2.3921  1.0213  0.2845
14487SOL     OW46108   7.486   5.707   1.235  0.6767 -0.2672  0.3030
14487SOL    HW146109   7.555   5.674   1.299 -0.2716 -0.2926  1.3356
14487SOL    HW246110   7.492   5.807   1.229  2.3455 -0.4413 -1.4309
14488SOL     OW46111   4.700   1.125   0.910 -0.5848  0.1688 -0.0373
14488SOL    HW146112   4.693   1.212   0.862  2.5210  1.7951  2.3320
14488SOL    HW246113   4.642   1.127   0.992 -0.5331 -0.0293  0.0058
14489SOL     OW46114   6.985   7.852   4.621 -0.0413  0.1392  0.5317
14489SOL    HW146115   6.964   7.770   4.568 -0.9510 -1.2903  3.0018
14489SOL    HW246116   7.084   7.859   4.635 -0.0046 -0.9075  0.8401
14490SOL     OW46117   9.041   9.501   7.051 -0.0969  0.0848  0.5693
14490SOL    HW146118   8.977   9.571   7.083 -1.4698 -1.0887  0.3930
14490SOL    HW246119   9.087   9.460   7.130 -2.0486 -1.4299  0.9697
14493SOL     OW46120   3.845   4.291   4.708  0.1997 -0.2370  0.0918
14493SOL    HW146121   3.879   4.342   4.629 -0.9262 -1.4174 -1.1864
14493SOL    HW246122   3.834   4.194   4.683 -2.9209 -0.1127  0.7855
14494SOL     OW46123   8.831   8.009   0.282  0.2486  0.6320 -0.3151
14494SOL    HW146124   8.811   7.921   0.239  0.7449 -0.0609  0.8375
14494SOL    HW246125   8.746   8.053   0.311 -0.0654  0.9723 -1.7355
14495SOL     OW46126   9.368   2.037   5.816  0.3206 -0.5325 -0.2947
14495SOL    HW146127   9.390   1.959   5.757 -2.3529 -1.8743  0.3969
14495SOL    HW246128   9.376   2.122   5.764  0.1717 -1.5277 -1.9708
14496SOL     OW46129   9.701   3.321   3.232 -0.8611 -0.6268 -0.3587
14496SOL    HW146130   9.778   3.269   3.269 -0.2260  0.0702 -0.6694
14496SOL    HW246131   9.652   3.365   3.307 -0.5001 -0.4589 -0.2173
14497SOL     OW46132   9.781   7.741   2.423 -0.1684 -0.8396 -0.1976
14497SOL    HW146133   9.694   7.699   2.399  0.1844 -1.2269 -0.8270
14497SOL    HW246134   9.856   7.678   2.402  0.3047 -0.2704 -0.2592
14498SOL     OW46135   7.349   1.001   5.064  0.6547  0.2592 -0.1903
14498SOL    HW146136   7.274   0.972   5.123 -1.6850  0.8815 -2.7336
14498SOL    HW246137   7.426   1.033   5.120 -1.8125  1.7083  2.4930
14499SOL     OW46138   3.319   7.682   5.193 -0.2111 -0.2237 -0.5074
14499SOL    HW146139   3.345   7.598   5.146 -0.5764  0.2879 -1.6402
14499SOL    HW246140   3.339   7.674   5.291 -0.0508 -1.5392 -0.6502
14502SOL     OW46141   1.664   5.018   2.671  0.2577  0.0485 -0.5402
14502SOL    HW146142   1.601   5.085   2.633 -2.8303 -0.4455  3.3814
14502SOL    HW246143   1.688   5.044   2.765  0.8369 -3.1015  0.2390
14503SOL     OW46144   9.929   4.885   3.864  0.2250 -0.0736  0.0976
14503SOL    HW146145   9.930   4.861   3.961 -0.5379 -3.8357 -0.7428
14503SOL    HW246146  10.018   4.922   3.838  0.9236 -0.4308  1.9139
14505SOL     OW46147   0.846   6.321   3.949  0.3022 -0.4632  0.4854
14505SOL    HW146148   0.821   6.413   3.919  2.2806  0.7694  2.4785
14505SOL    HW246149   0.918   6.286   3.889 -0.5834 -0.8070 -0.3894
14506SOL     OW46150   1.798   5.007   0.464 -0.2304 -0.3879  0.0269
14506SOL    HW146151   1.778   4.926   0.410  0.2676  0.4930 -1.4916
14506SOL    HW246152   1.841   5.077   0.407 -3.0640  1.9977  0.6820
14507SOL     OW46153   5.312   0.313   4.091  0.5530 -0.4146  0.1372
14507SOL    HW146154   5.371   0.321   4.011 -0.0465  1.0518 -0.1736
14507SOL    HW246155   5.252   0.393   4.097  0.7799 -0.3663  2.2107
14508SOL     OW46156   4.490   6.239   2.162  1.0575 -0.3857 -0.0252
14508SOL    HW146157   4.454   6.219   2.253 -0.3541  1.4812 -0.1306
14508SOL    HW246158   4.541   6.161   2.128 -0.8563 -2.2070  1.1733
14509SOL     OW46159   5.085   3.427   5.126  0.6807 -0.1861  0.6415
14509SOL    HW146160   5.010   3.361   5.115  2.0424 -1.4929 -1.0812
14509SOL    HW246161   5.064   3.509   5.073 -0.1748  0.0498  1.3225
14510SOL     OW46162   3.169   2.159   5.514  0.4833 -0.0819  0.2418
14510SOL    HW146163   3.158   2.258   5.523  2.7674  0.1546  0.7281
14510SOL    HW246164   3.230   2.126   5.586 -0.6571 -1.9307  0.3903
14511SOL     OW46165   0.417   8.051   0.856  0.6117 -0.0194  0.7225
14511SOL    HW146166   0.318   8.056   0.867  0.4175 -1.4269 -0.2846
14511SOL    HW246167   0.453   8.142   0.837 -0.7010  0.2462 -0.5968
14513SOL     OW46168   9.693   7.673   3.132 -0.5274  0.1042 -0.1308
14513SOL    HW146169   9.713   7.577   3.151 -0.0481  0.4561  1.2226
14513SOL    HW246170   9.778   7.723   3.121 -0.7590  0.5676  0.1839
14514SOL     OW46171   6.332   8.985   5.244  0.2609 -0.2842  0.0348
14514SOL    HW146172   6.289   8.896   5.256 -0.8530 -0.0639 -2.1115
14514SOL    HW246173   6.286   9.053   5.300 -0.4935 -0.5729 -0.2357
14515SOL     OW46174   0.394   2.120   1.102  0.3855  0.2029  0.6251
14515SOL    HW146175   0.420   2.216   1.089 -0.1800  0.3145  0.3081
14515SOL    HW246176   0.372   2.104   1.198 -1.3375  0.8461  0.3505
14516SOL     OW46177   2.085   0.392   5.771  0.2575  0.1553 -0.1683
14516SOL    HW146178   2.037   0.383   5.859 -0.3728  0.4012 -0.4816
14516SOL    HW246179   2.021   0.426   5.702  0.3522 -1.5054 -1.0953
14517SOL     OW46180   4.766   3.571   1.075  0.4585  0.0202 -0.4919
14517SOL    HW146181   4.790   3.664   1.103 -1.5979  0.2495  0.6391
14517SOL    HW246182   4.835   3.536   1.012  2.1242  1.7036  0.3414
14519SOL     OW46183   1.259   5.981   2.017 -0.1113  0.7331  0.0402
14519SOL    HW146184   1.232   5.961   2.111 -0.2652 -0.7173 -0.2989
14519SOL    HW246185   1.208   5.921   1.955  1.0664  0.6639 -0.8697
14520SOL     OW46186   7.561   3.823   3.505  0.6860  0.0555  0.7718
14520SOL    HW146187   7.634   3.780   3.558  1.1037 -1.2363 -0.7982
14520SOL    HW246188   7.565   3.790   3.410  0.1526  2.5551 -0.1447
14521SOL     OW46189   8.609   8.504   2.219 -0.3524 -0.6703  0.4205
14521SOL    HW146190   8.698   8.498   2.263 -0.3546  2.4607  0.9775
14521SOL    HW246191   8.621   8.514   2.121  0.2047  4.1566  0.8507
14522SOL     OW46192   8.179   5.895   6.235  0.2019  0.5211 -0.3596
14522SOL    HW146193   8.232   5.970   6.274  1.2098 -0.6113  0.4663
14522SOL    HW246194   8.216   5.808   6.266 -0.1976 -0.3634 -2.2983
14524SOL     OW46195   9.910   9.894   2.576  0.4062 -0.2991  0.5552
14524SOL    HW146196   9.913   9.944   2.489  2.9346 -0.3541  0.5728
14524SOL    HW246197   9.843   9.820   2.570  0.4591 -0.2193 -1.3113
14525SOL     OW46198   4.514   7.786   4.768 -0.1810 -0.4284 -0.5350
14525SOL    HW146199   4.462   7.820   4.846 -1.4559 -1.1133 -1.0834
14525SOL    HW246200   4.607   7.765   4.798  0.0641  1.6478  0.2445
14526SOL     OW46201   1.570   0.369   7.420  0.5055 -0.2048  0.4030
14526SOL    HW146202   1.648   0.429   7.402  0.6884  0.0931  2.0730
14526SOL    HW246203   1.558   0.305   7.344  0.5654  1.6577 -1.2025
14527SOL     OW46204   3.410   3.282   3.313 -0.7457  0.0515  0.0507
14527SOL    HW146205   3.376   3.188   3.311 -0.9248  0.1276 -1.7220
14527SOL    HW246206   3.490   3.289   3.254  0.0295  0.7423  1.1731
14528SOL     OW46207   1.991   7.026   1.877 -0.1883  0.2190 -0.6199
14528SOL    HW146208   1.969   7.025   1.975  1.5932  0.6787 -0.2041
14528SOL    HW246209   2.018   6.934   1.848 -0.4934  0.1330 -0.6352
14529SOL     OW46210   8.109   8.705   2.046 -0.0124  0.0832 -0.3024
14529SOL    HW146211   8.101   8.774   1.974  0.1092  0.5732  0.1448
14529SOL    HW246212   8.060   8.622   2.019 -0.5279  0.5012 -0.6568
14530SOL     OW46213   0.190   0.180   6.510 -0.3988  0.2259 -0.0437
14530SOL    HW146214   0.215   0.139   6.598  1.4272 -1.9277 -1.5352
14530SOL    HW246215   0.100   0.146   6.482  0.2579 -1.2627 -0.3481
14531SOL     OW46216   8.869   9.559   6.732  0.1786  0.3906 -0.5618
14531SOL    HW146217   8.969   9.556   6.728  0.1642  0.3895 -0.9018
14531SOL    HW246218   8.832   9.467   6.727  0.1485  0.4121 -0.7542
14532SOL     OW46219   1.888   5.931   5.676  0.2909  0.1365  0.0723
14532SOL    HW146220   1.807   5.872   5.677  0.8479 -0.6498  2.1007
14532SOL    HW246221   1.917   5.948   5.770  0.5372  3.1510 -0.5108
14533SOL     OW46222   8.059   9.261   7.862  0.0737 -0.4457  0.0774
14533SOL    HW146223   7.994   9.187   7.844 -0.3648  0.3979 -1.8701
14533SOL    HW246224   8.151   9.232   7.834 -0.0546 -0.3420 -0.4509
14534SOL     OW46225   2.675   6.425   5.953  0.2426  0.4047 -0.1026
14534SOL    HW146226   2.731   6.482   5.893 -0.7495  1.5177  0.0269
14534SOL    HW246227   2.714   6.332   5.956  1.6870  0.9816 -0.5437
14535SOL     OW46228   9.492   1.674   6.346  0.2492 -0.5716 -0.1839
14535SOL    HW146229   9.441   1.747   6.391  0.0985 -0.8148  0.0480
14535SOL    HW246230   9.590   1.691   6.354  0.2010  0.0841 -0.9420
14536SOL     OW46231   8.570   6.371   1.865  0.1164  0.4663  0.0432
14536SOL    HW146232   8.628   6.445   1.901  1.6310 -0.0480 -1.3041
14536SOL    HW246233   8.494   6.356   1.928  0.8526  1.8655  1.3192
14537SOL     OW46234   8.296   3.076   7.456 -0.1244  0.6639  0.1715
14537SOL    HW146235   8.371   3.012   7.471  1.0965  2.3467  1.4034
14537SOL    HW246236   8.210   3.035   7.488  1.1875  1.0158  4.5270
14539SOL     OW46237   2.477   4.393   2.446  0.2890  0.1230 -1.0232
14539SOL    HW146238   2.544   4.459   2.413 -0.0878  0.3579 -1.3213
14539SOL    HW246239   2.508   4.355   2.533 -1.2423  3.4751  1.0947
14540SOL     OW46240   4.323   7.612   4.679  0.5609  0.2433 -0.3222
14540SOL    HW146241   4.412   7.654   4.695  1.0460 -1.2651  1.0188
14540SOL    HW246242   4.272   7.668   4.614  1.8887  1.9260  0.0301
14541SOL     OW46243   8.347   8.502   1.790  0.2048 -0.0775  0.3114
14541SOL    HW146244   8.366   8.516   1.888  2.2188  0.0388 -0.0712
14541SOL    HW246245   8.357   8.405   1.768  2.2988  0.2352 -0.2603
14544SOL     OW46246   7.221   8.744   5.046 -0.1572  0.2196 -0.5378
14544SOL    HW146247   7.191   8.668   5.103 -2.5019  0.0814 -1.8993
14544SOL    HW246248   7.288   8.712   4.979  0.5195 -0.1807  0.3285
14546SOL     OW46249   2.987   2.195   7.914 -0.0109 -0.1311 -0.1467
14546SOL    HW146250   2.907   2.175   7.969  0.7296  0.8567  1.3402
14546SOL    HW246251   3.068   2.152   7.954  0.6697  1.2324 -0.0015
14547SOL     OW46252   7.917   3.336   1.870  0.3053 -0.3735 -0.2415
14547SOL    HW146253   7.926   3.408   1.802 -1.3776 -0.4994 -0.6204
14547SOL    HW246254   7.906   3.248   1.824 -2.8862 -0.2236  0.0976
14551SOL     OW46255   7.547   5.813   1.544  0.3919  0.0093 -0.0243
14551SOL    HW146256   7.482   5.737   1.543  0.6286 -0.2220  1.1673
14551SOL    HW246257   7.501   5.897   1.514 -0.0158 -0.4891 -0.7947
14552SOL     OW46258   3.238   3.672   5.078  0.1307  0.1002 -0.3396
14552SOL    HW146259   3.277   3.764   5.075 -0.4218  0.3214 -1.0215
14552SOL    HW246260   3.277   3.621   5.154 -0.3337  1.2500  0.6835
14553SOL     OW46261   5.797   1.292   1.348 -0.1306 -0.1685  0.4374
14553SOL    HW146262   5.871   1.340   1.301 -0.5635 -1.0499 -1.1797
14553SOL    HW246263   5.714   1.295   1.292 -1.4402  1.1312  2.4047
14554SOL     OW46264   9.434   7.194   2.987 -0.2772 -0.4359  0.0639
14554SOL    HW146265   9.426   7.096   3.004  0.6015 -0.1414  2.3705
14554SOL    HW246266   9.530   7.218   2.977 -0.4245  0.3364  0.4796
14556SOL     OW46267   8.439   0.534   5.324 -0.3109 -0.1834 -0.0445
14556SOL    HW146268   8.359   0.523   5.266  0.1114  0.5277 -0.7809
14556SOL    HW246269   8.515   0.570   5.269 -0.3988  2.1208  1.2710
14558SOL     OW46270   0.591   6.990   2.725  0.5236  0.4549  0.2227
14558SOL    HW146271   0.520   7.058   2.744  0.5476  0.1716  1.3817
14558SOL    HW246272   0.606   6.935   2.807 -0.1380 -1.5519 -0.9583
14559SOL     OW46273   7.394   1.607   2.959 -0.3163  0.1146  0.3770
14559SOL    HW146274   7.447   1.574   2.881  0.9946  0.4626  1.0993
14559SOL    HW246275   7.338   1.685   2.930  0.5621  0.5798 -0.1105
14560SOL     OW46276   3.580   2.318   2.100  0.7341  0.1167  0.3258
14560SOL    HW146277   3.521   2.237   2.093  1.8969 -0.9516  2.4566
14560SOL    HW246278   3.531   2.390   2.151 -0.0362  0.5170 -0.9638
14562SOL     OW46279   2.641   1.694   4.852 -0.4086 -0.1855  0.7410
14562SOL    HW146280   2.555   1.737   4.824 -1.2418 -1.5076  1.2396
14562SOL    HW246281   2.708   1.765   4.874 -1.8890  0.8653  1.9367
14563SOL     OW46282   4.352   2.518   6.401 -0.2852  0.3525  0.1199
14563SOL    HW146283   4.291   2.440   6.384  1.9357 -1.1054 -1.4502
14563SOL    HW246284   4.356   2.575   6.319  1.9644 -0.6600 -0.5126
14564SOL     OW46285   5.484   3.830   6.815  0.3130  0.0650  0.7522
14564SOL    HW146286   5.403   3.827   6.756  1.3534 -0.6119 -0.6760
14564SOL    HW246287   5.459   3.803   6.908 -1.3508  1.1190  0.6351
14565SOL     OW46288   1.626   6.650   5.612  0.2288 -0.0737  0.3382
14565SOL    HW146289   1.694   6.702   5.561 -0.0823  1.7409  1.6910
14565SOL    HW246290   1.542   6.643   5.559  0.3787  0.5622  0.0128
14566SOL     OW46291   3.554   9.751   0.779  0.0149 -0.0281 -0.0890
14566SOL    HW146292   3.641   9.706   0.801 -0.8664 -1.9379 -0.3393
14566SOL    HW246293   3.488   9.682   0.748 -2.0505  1.1615  1.4925
14567SOL     OW46294   6.268   1.387   2.349  0.0554 -0.1649 -0.4023
14567SOL    HW146295   6.356   1.364   2.308  0.3494  0.8497 -0.3420
14567SOL    HW246296   6.270   1.481   2.383 -0.6240 -0.5672  0.7666
14569SOL     OW46297   0.063   2.385   4.436 -0.2411 -0.4129  0.7079
14569SOL    HW146298   0.087   2.349   4.527 -0.5337  1.3190  1.4894
14569SOL    HW246299   0.126   2.459   4.412 -2.2055  1.4097  0.9891
14570SOL     OW46300   2.361   0.283   4.921  0.1638 -0.5830  0.2609
14570SOL    HW146301   2.413   0.304   5.003 -1.6290  0.1772  1.2331
14570SOL    HW246302   2.378   0.188   4.895  1.3358 -0.6041  1.0585
14572SOL     OW46303   5.475   7.731   2.170 -0.7467  0.0615 -0.6216
14572SOL    HW146304   5.554   7.793   2.174 -0.9960  0.2792  1.7409
14572SOL    HW246305   5.391   7.784   2.163 -0.9210 -0.0329  0.7466
14573SOL     OW46306   0.844   3.636   3.882 -0.2832 -0.0010 -0.2298
14573SOL    HW146307   0.899   3.633   3.798  0.2583  0.4955  0.1008
14573SOL    HW246308   0.891   3.692   3.950 -0.8974 -0.1047  0.2813
14574SOL     OW46309   6.467   8.972   1.761 -0.9740  0.2844 -0.5414
14574SOL    HW146310   6.526   8.894   1.742 -0.5173  0.5817 -0.3577
14574SOL    HW246311   6.523   9.055   1.766 -1.2621  0.3955  0.8027
14577SOL     OW46312   9.156   8.961   4.307  0.1888 -0.3830  0.0265
14577SOL    HW146313   9.152   8.861   4.305 -2.0868 -0.3674  1.7152
14577SOL    HW246314   9.138   8.997   4.216  1.1824 -1.5077 -0.6288
14579SOL     OW46315   3.954   3.447   6.487  0.2753  0.0424  0.5373
14579SOL    HW146316   3.884   3.447   6.559  0.7266  0.2626  0.9830
14579SOL    HW246317   3.920   3.398   6.407 -0.2478 -0.1730  0.8901
14580SOL     OW46318   9.511   1.357   1.021  0.1959 -0.6500 -0.2382
14580SOL    HW146319   9.534   1.445   1.062 -2.6141 -0.0302  0.1078
14580SOL    HW246320   9.521   1.285   1.089  2.0386 -0.5490 -0.3865
14581SOL     OW46321   2.479   7.481   6.522 -0.8265  0.3331  0.6324
14581SOL    HW146322   2.546   7.476   6.596 -0.3195  0.3612  0.1754
14581SOL    HW246323   2.525   7.473   6.434 -1.0825  3.1796  0.1953
14583SOL     OW46324   2.832   8.909   4.338 -0.0527 -0.8392  0.4368
14583SOL    HW146325   2.910   8.968   4.358  0.7736 -2.6139  2.6771
14583SOL    HW246326   2.747   8.955   4.365  0.2417  0.7816 -1.2879
14584SOL     OW46327   6.915   1.257   5.297  0.3934  0.4685 -0.6405
14584SOL    HW146328   6.929   1.193   5.373  0.6591  0.2097 -0.9064
14584SOL    HW246329   6.833   1.229   5.246 -0.3081  1.1768  0.0923
14586SOL     OW46330   5.131   1.792   4.572 -0.1840 -0.2933  0.3499
14586SOL    HW146331   5.105   1.886   4.593  1.0845  0.6620 -2.0991
14586SOL    HW246332   5.049   1.736   4.559 -0.9440  0.6973  0.8298
14587SOL     OW46333   3.430   3.558   3.746  0.1508  0.4761 -0.5059
14587SOL    HW146334   3.351   3.521   3.795  0.0323 -0.3859 -1.3431
14587SOL    HW246335   3.403   3.585   3.654  0.3251  2.3195 -0.0468
14588SOL     OW46336   9.628   1.061   2.217 -0.2070 -0.3928 -0.4839
14588SOL    HW146337   9.546   1.101   2.176  0.2429 -0.7592 -1.7481
14588SOL    HW246338   9.628   0.962   2.201 -0.6437 -0.7255  1.4675
14589SOL     OW46339   5.627   1.235   2.017  0.2175  0.1763  0.1492
14589SOL    HW146340   5.635   1.184   2.103 -1.1088  1.2656  0.9429
14589SOL    HW246341   5.543   1.209   1.970  0.2948  0.5175 -0.1864
14590SOL     OW46342   2.915   9.311   4.294 -0.0292  0.5784  0.1166
14590SOL    HW146343   2.835   9.320   4.354 -0.5766 -1.4975 -0.2969
14590SOL    HW246344   2.890   9.262   4.211  1.8629 -0.8411  0.3561
14591SOL     OW46345   8.504   2.347   7.750 -0.0158 -0.1032 -0.2072
14591SOL    HW146346   8.489   2.445   7.765  2.9290  0.2688  0.7147
14591SOL    HW246347   8.495   2.298   7.836 -2.3693 -0.8327 -0.8170
14592SOL     OW46348   9.777   4.637   4.437  0.3397  0.1835 -0.0482
14592SOL    HW146349   9.762   4.542   4.411 -2.7315  0.4568  0.4280
14592SOL    HW246350   9.802   4.642   4.534 -1.0307 -0.0755  0.3294
14593SOL     OW46351   6.595   6.979   5.410 -0.1111 -0.0534 -0.2117
14593SOL    HW146352   6.684   7.000   5.369  0.2126 -0.3242  0.3443
14593SOL    HW246353   6.609   6.934   5.498 -0.8054  0.6635  0.2630
14594SOL     OW46354   7.438   7.676   6.144 -0.0012 -0.5580 -0.5128
14594SOL    HW146355   7.344   7.705   6.164 -0.0650 -0.9284 -0.2770
14594SOL    HW246356   7.479   7.739   6.078  0.0210  0.3398  0.3632
14595SOL     OW46357   0.869   0.838   5.731 -0.1418 -0.3585 -0.1316
14595SOL    HW146358   0.960   0.848   5.690  0.0246  0.9452  0.5260
14595SOL    HW246359   0.873   0.866   5.827 -1.1864 -0.5739 -0.0214
14597SOL     OW46360   8.862   7.305   1.379  0.0192 -0.0302  0.3510
14597SOL    HW146361   8.804   7.326   1.457 -0.8889  0.0425 -0.3354
14597SOL    HW246362   8.881   7.206   1.378  0.3563  0.0257  0.8740
14600SOL     OW46363   9.317   1.368   5.315  0.3700 -0.1671  0.2458
14600SOL    HW146364   9.354   1.285   5.271 -0.3963 -0.9620  1.0941
14600SOL    HW246365   9.218   1.359   5.326  0.3503  0.6684  0.7719
14601SOL     OW46366   5.507   9.679   2.686  0.1082 -0.1293 -0.4368
14601SOL    HW146367   5.455   9.764   2.695  0.7172  0.1592  0.4395
14601SOL    HW246368   5.490   9.621   2.765  1.0527 -0.0623 -0.1754
14603SOL     OW46369   4.346   6.422   0.185  0.3970  0.5670  0.0644
14603SOL    HW146370   4.310   6.338   0.225  1.7604 -0.4780 -0.8611
14603SOL    HW246371   4.421   6.456   0.241  1.2470 -0.0105 -0.7172
14604SOL     OW46372   2.876   3.927   4.410  0.8005  0.6783  0.2213
14604SOL    HW146373   2.931   3.927   4.326  0.9053 -1.1594  0.2724
14604SOL    HW246374   2.798   3.988   4.399  0.5895  0.1367 -1.3858
14607SOL     OW46375   2.996   9.205   6.465  0.0419  0.0478 -0.1768
14607SOL    HW146376   2.966   9.295   6.499  0.6852  1.4598 -3.2224
14607SOL    HW246377   3.095   9.205   6.453 -0.1819 -0.3546 -2.1760
14608SOL     OW46378   1.405   1.991   5.638  0.1023 -0.0336 -0.1739
14608SOL    HW146379   1.369   2.006   5.730 -0.8131 -1.9363 -0.2113
14608SOL    HW246380   1.333   2.012   5.571  0.3824  0.1598 -0.4178
14610SOL     OW46381   5.283   5.046   1.665 -0.1849  0.0393 -0.2819
14610SOL    HW146382   5.364   5.079   1.712  0.0590 -2.0509  0.8177
14610SOL    HW246383   5.244   4.969   1.715 -0.8869 -1.1734 -2.6041
14611SOL     OW46384   4.157   1.039   2.965 -0.0807 -0.3880 -0.1202
14611SOL    HW146385   4.095   1.116   2.979 -1.9034 -1.2439 -3.1064
14611SOL    HW246386   4.132   0.964   3.027 -2.2185 -0.8159 -1.4679
14612SOL     OW46387   3.410   4.249   6.821 -0.0184  0.2943  0.1519
14612SOL    HW146388   3.360   4.171   6.858 -0.4804  1.2334  1.5309
14612SOL    HW246389   3.489   4.268   6.878  1.0766 -0.2337 -1.1699
14613SOL     OW46390   9.440   6.719   5.365  0.2035  0.2526 -0.0373
14613SOL    HW146391   9.357   6.717   5.421 -0.7232  1.5992 -1.3350
14613SOL    HW246392   9.476   6.626   5.358 -0.3066 -0.1245  1.8126
14616SOL     OW46393   6.941   8.904   6.358  0.7158 -0.2602  0.9086
14616SOL    HW146394   6.899   8.841   6.422 -0.2831 -0.3517  0.1784
14616SOL    HW246395   6.895   8.898   6.269  2.2221 -0.3042  0.1071
14617SOL     OW46396   6.170   7.777   5.085 -0.1856  0.3655  0.3443
14617SOL    HW146397   6.216   7.688   5.085  2.4088  1.6294 -0.9295
14617SOL    HW246398   6.186   7.822   5.173  0.8437  0.6793  0.0094
14618SOL     OW46399   2.473   7.197   4.750  0.2055  0.3409  0.4157
14618SOL    HW146400   2.498   7.264   4.680  0.4860  0.5649  0.7269
14618SOL    HW246401   2.556   7.168   4.799 -0.0651  0.6624  1.0745
14619SOL     OW46402   4.365   0.189   3.834  0.1693 -0.0849 -0.0121
14619SOL    HW146403   4.330   0.194   3.741 -2.0241  3.1956  0.8597
14619SOL    HW246404   4.417   0.272   3.854 -1.4304  0.4122  2.3727
14620SOL     OW46405   2.838   2.567   7.660  0.1351 -0.3767 -0.1323
14620SOL    HW146406   2.897   2.558   7.581 -1.5370 -0.0191 -1.4479
14620SOL    HW246407   2.770   2.494   7.660 -0.4850  0.1850  0.4502
14625SOL     OW46408   5.572   8.443   3.640  0.1156 -0.1780 -1.0083
14625SOL    HW146409   5.621   8.357   3.632  0.3246 -0.0354 -1.2528
14625SOL    HW246410   5.631   8.518   3.611 -0.7153 -0.1483 -2.7274
14627SOL     OW46411   8.524   5.579   6.214 -0.4457  0.5519 -0.0421
14627SOL    HW146412   8.597   5.543   6.272 -1.2087  0.5747  0.9452
14627SOL    HW246413   8.563   5.638   6.144  0.4482  0.9877  0.8079
14628SOL     OW46414   3.761   3.348   3.302 -0.1330 -0.2128 -0.0247
14628SOL    HW146415   3.861   3.348   3.304 -0.1354  0.6508  0.9097
14628SOL    HW246416   3.729   3.360   3.208  0.6655  1.9037 -0.0653
14629SOL     OW46417   9.862   2.416   7.687  0.4408 -0.0416 -0.5682
14629SOL    HW146418   9.765   2.423   7.666  0.7422  1.6334 -1.4877
14629SOL    HW246419   9.915   2.423   7.602  1.3228 -2.0425 -0.2003
14630SOL     OW46420   4.922   5.863   1.040 -0.6175  0.0532  0.3936
14630SOL    HW146421   4.849   5.800   1.014 -3.2783  2.3279  2.1446
14630SOL    HW246422   4.888   5.957   1.040  3.2684  1.6167 -2.1743
14631SOL     OW46423   0.054   6.595   6.031  0.0664  0.2208 -0.7246
14631SOL    HW146424   0.023   6.587   6.125  1.0483  0.3837 -0.3904
14631SOL    HW246425   0.102   6.511   6.004  0.5304  0.5168 -0.8118
14632SOL     OW46426   5.893   0.800   5.813  0.2640  0.2296 -0.0299
14632SOL    HW146427   5.902   0.771   5.908 -0.9598  0.2595  0.1031
14632SOL    HW246428   5.930   0.729   5.753  0.7737  0.0826  0.4529
14633SOL     OW46429   3.945   8.724   2.987 -0.1140 -0.0079 -0.5760
14633SOL    HW146430   3.946   8.755   2.892 -1.4775  1.0952 -0.2465
14633SOL    HW246431   4.038   8.704   3.017  0.4253  0.6183 -1.8174
14634SOL     OW46432   6.751   1.120   5.071 -0.5798 -0.6106 -0.5054
14634SOL    HW146433   6.816   1.058   5.028 -1.8751 -2.4996  0.1868
14634SOL    HW246434   6.778   1.215   5.053  1.1098 -1.3599 -2.0596
14635SOL     OW46435   0.859   6.366   7.857 -0.1280  0.3983 -0.1337
14635SOL    HW146436   0.772   6.319   7.843 -0.0494  0.0785  0.4588
14635SOL    HW246437   0.910   6.322   7.930  0.7527  0.2831 -0.8040
14636SOL     OW46438   3.028   3.723   5.703 -0.4573 -0.0468  0.0924
14636SOL    HW146439   3.013   3.626   5.720 -1.9048  0.1031 -0.2661
14636SOL    HW246440   2.960   3.777   5.754  0.3150  0.7732  0.2617
14637SOL     OW46441   9.554   3.986   4.424  0.2371  0.4639  0.3310
14637SOL    HW146442   9.575   3.953   4.516  0.7874 -0.6800 -0.1949
14637SOL    HW246443   9.550   3.908   4.361 -1.4081  1.1076 -0.3739
14638SOL     OW46444   3.704   3.637   4.326  0.4231  0.0815  0.2649
14638SOL    HW146445   3.792   3.620   4.371  0.0779  0.6689  1.1958
14638SOL    HW246446   3.703   3.730   4.290  0.6163 -0.3205 -0.7722
14639SOL     OW46447   3.022   7.452   1.182  0.4759  0.0881 -0.1860
14639SOL    HW146448   3.064   7.520   1.123 -0.5111  0.8038 -0.0729
14639SOL    HW246449   2.932   7.427   1.145  0.9953 -1.4398 -0.4447
14641SOL     OW46450   9.707   9.793   6.821 -0.0999 -0.0301  0.4094
14641SOL    HW146451   9.791   9.769   6.772 -0.1883 -0.4535  0.4675
14641SOL    HW246452   9.725   9.796   6.919  0.0028  0.5310  0.3777
14642SOL     OW46453   9.726   1.339   6.026  0.1093  0.1648  0.3716
14642SOL    HW146454   9.656   1.306   6.089 -0.3669  2.4971  1.1136
14642SOL    HW246455   9.682   1.392   5.953  1.0476  1.5102  0.7541
14645SOL     OW46456   0.582   5.941   0.922  0.2894  0.7279 -0.8921
14645SOL    HW146457   0.533   5.874   0.978 -0.6863  1.4941 -0.8115
14645SOL    HW246458   0.576   5.914   0.825 -0.2528  0.7914 -0.8774
14646SOL     OW46459   3.692   3.549   3.510 -0.2944  0.2190 -0.0012
14646SOL    HW146460   3.674   3.512   3.419 -1.9796  0.1665  0.3493
14646SOL    HW246461   3.761   3.494   3.556 -1.0357 -1.0602 -0.4073
14647SOL     OW46462   9.122   5.262   3.281  0.0766  0.3291 -0.4543
14647SOL    HW146463   9.185   5.299   3.349 -0.9388  1.3337 -0.0473
14647SOL    HW246464   9.049   5.328   3.264 -0.1400 -0.2639 -1.9050
14648SOL     OW46465   3.111   7.316   6.144 -0.5231  0.1125 -0.2900
14648SOL    HW146466   3.031   7.267   6.179 -0.7670  0.7352  0.0342
14648SOL    HW246467   3.130   7.395   6.202  0.7698 -0.4325  0.0507
14650SOL     OW46468   6.507   2.739   4.700 -0.0303  0.1729  0.1965
14650SOL    HW146469   6.592   2.709   4.656 -1.2084  0.4028 -2.3327
14650SOL    HW246470   6.522   2.748   4.798  2.0538 -2.7237  0.2244
14651SOL     OW46471   3.477   3.565   6.131 -0.1157  0.0615  0.4701
14651SOL    HW146472   3.517   3.480   6.097  0.1623  0.3073  0.1775
14651SOL    HW246473   3.379   3.567   6.109 -0.0979 -0.1310  0.3743
14652SOL     OW46474   4.491   7.920   0.452  0.1897 -0.1501  0.1681
14652SOL    HW146475   4.564   7.927   0.384  0.0840  0.1903  0.0943
14652SOL    HW246476   4.458   7.825   0.454 -0.2778 -0.0117 -0.7334
14653SOL     OW46477   4.441   2.032   0.996 -0.6792  0.1990 -0.1139
14653SOL    HW146478   4.501   2.083   0.934 -1.3898  1.3786  0.1608
14653SOL    HW246479   4.407   2.093   1.067 -1.1720 -0.7758  0.4982
14654SOL     OW46480   8.866   6.320   1.142 -0.2821  0.3226  0.1951
14654SOL    HW146481   8.806   6.264   1.199 -0.8442  0.6485 -0.0614
14654SOL    HW246482   8.951   6.271   1.124 -0.6452 -0.3293  0.2185
14655SOL     OW46483   5.097   1.546   5.303 -0.0263 -1.1348  0.0551
14655SOL    HW146484   5.166   1.474   5.294 -0.6520 -1.9172  1.2285
14655SOL    HW246485   5.138   1.635   5.286  0.8103 -1.7532 -1.2522
14656SOL     OW46486   2.332   1.302   0.204 -0.1749 -0.1886 -0.0967
14656SOL    HW146487   2.298   1.287   0.111 -1.3848 -0.9387  0.4502
14656SOL    HW246488   2.420   1.349   0.200 -0.9873  1.2747 -1.5743
14657SOL     OW46489   6.924   2.495   0.429 -0.9962 -0.6460  0.2551
14657SOL    HW146490   6.826   2.478   0.431 -1.1948 -0.0081 -2.5045
14657SOL    HW246491   6.964   2.453   0.348  0.6739  0.8224  0.2745
14658SOL     OW46492   2.293   9.607   6.544  0.7816  0.2287 -0.1789
14658SOL    HW146493   2.246   9.615   6.456  0.5569 -1.9010 -0.2755
14658SOL    HW246494   2.315   9.511   6.561  3.0081  0.9283  0.9702
14659SOL     OW46495   9.504   4.651   2.767  0.3754  0.1827 -0.2141
14659SOL    HW146496   9.594   4.644   2.809 -0.2582  0.1521  1.1489
14659SOL    HW246497   9.462   4.561   2.760  1.3964 -0.1277 -3.0055
14660SOL     OW46498   4.139   3.873   4.096 -0.0423  0.1827  0.0780
14660SOL    HW146499   4.230   3.903   4.123 -0.7168  2.1407  0.3140
14660SOL    HW246500   4.096   3.944   4.040 -0.9294 -1.2824 -1.1402
14661SOL     OW46501   9.481   5.736   2.112 -0.4005  0.9598  0.1331
14661SOL    HW146502   9.418   5.788   2.170 -1.6684  0.6146 -0.9144
14661SOL    HW246503   9.429   5.682   2.046  0.9160 -1.2949  0.8847
14662SOL     OW46504   7.952   8.038   0.872 -0.0022 -0.1752  0.2408
14662SOL    HW146505   7.881   7.986   0.825  0.4342 -1.3001  0.8136
14662SOL    HW246506   7.917   8.129   0.895 -1.8654 -1.3045  2.0743
14664SOL     OW46507   1.040   8.114   2.755  0.3214  0.3716 -0.4462
14664SOL    HW146508   1.049   8.162   2.842 -2.0345 -1.6430  0.9552
14664SOL    HW246509   1.105   8.038   2.751 -0.0999 -0.0054 -0.1194
14665SOL     OW46510   2.205   7.700   4.889  0.2789 -0.3924 -0.1446
14665SOL    HW146511   2.115   7.724   4.923  0.0466  0.5440 -1.4150
14665SOL    HW246512   2.203   7.607   4.851 -0.5743  0.2370 -1.6780
14666SOL     OW46513   6.020   2.271   1.862 -0.3272  0.0955  0.2047
14666SOL    HW146514   5.957   2.207   1.818 -1.4444  1.4525 -0.2512
14666SOL    HW246515   5.986   2.294   1.953 -0.4639  0.7703 -0.0114
14667SOL     OW46516   0.851   1.002   0.989 -0.3906 -0.2634  0.2283
14667SOL    HW146517   0.915   1.026   0.915 -0.4764 -2.8882 -0.7666
14667SOL    HW246518   0.903   0.982   1.072 -0.0405 -0.4879 -0.0391
14668SOL     OW46519   9.639   7.835   6.413  0.7049 -0.6340 -0.1849
14668SOL    HW146520   9.586   7.869   6.335  0.7578  0.1576  0.1211
14668SOL    HW246521   9.737   7.847   6.394  0.6930  0.3658  0.3651
14669SOL     OW46522   2.120   5.207   6.803  0.2571  0.4176  0.8122
14669SOL    HW146523   2.041   5.241   6.854 -0.8796 -1.8266  0.6270
14669SOL    HW246524   2.181   5.158   6.865 -0.5682 -1.3567  0.2566
14670SOL     OW46525   8.967   0.875   0.968 -0.3662  0.3721 -0.1542
14670SOL    HW146526   8.965   0.787   0.921  0.2881  0.1634  0.1918
14670SOL    HW246527   9.062   0.898   0.990 -0.3809  1.8357 -1.4964
14671SOL     OW46528   6.270   0.547   3.603 -0.2545 -0.0190  0.6540
14671SOL    HW146529   6.338   0.567   3.673  1.2654 -1.8740 -0.2609
14671SOL    HW246530   6.308   0.564   3.512 -1.2133 -0.4506  0.1605
14672SOL     OW46531   9.973   9.708   3.257  0.3622  0.0878  0.1009
14672SOL    HW146532   9.993   9.635   3.191  2.5840 -0.0742  0.9298
14672SOL    HW246533  10.057   9.735   3.304 -1.0011  0.9686  2.1004
14673SOL     OW46534   3.175   2.814   3.455  0.0890  0.1856  0.0260
14673SOL    HW146535   3.154   2.775   3.365  2.9587  1.5585 -1.3179
14673SOL    HW246536   3.095   2.862   3.490 -1.5890 -1.7580 -1.0286
14676SOL     OW46537   3.765   5.065   7.549 -0.4523 -0.0354  0.4364
14676SOL    HW146538   3.844   5.065   7.488 -1.6996 -0.4365 -1.2085
14676SOL    HW246539   3.758   4.977   7.596 -1.9793 -1.3911 -2.1926
14677SOL     OW46540   3.329   0.946   5.435  0.0627 -0.2720 -0.3340
14677SOL    HW146541   3.247   0.947   5.377 -0.4139  0.3624  0.3480
14677SOL    HW246542   3.303   0.952   5.531  0.9200  0.2176 -0.1233
14678SOL     OW46543   5.042   5.332   0.266 -0.2152 -0.2331  0.7455
14678SOL    HW146544   5.084   5.386   0.194 -1.4098  2.2678  1.8508
14678SOL    HW246545   5.110   5.271   0.307  1.4077  1.0839  0.0600
14679SOL     OW46546   2.371   1.731   5.639  0.7225 -0.0788  0.3908
14679SOL    HW146547   2.398   1.655   5.698  0.1437  0.8651  1.9013
14679SOL    HW246548   2.287   1.708   5.591  1.0419 -0.7428  0.1503
14680SOL     OW46549   9.590   2.032   7.553  0.1727  0.0228  0.0576
14680SOL    HW146550   9.664   2.090   7.519 -0.1272  0.3896  0.0271
14680SOL    HW246551   9.627   1.943   7.581  0.8355  0.6677  1.2969
14681SOL     OW46552   2.469   1.143   5.358  0.5331 -0.3010  0.2812
14681SOL    HW146553   2.401   1.108   5.423 -0.3782 -0.8616 -0.9509
14681SOL    HW246554   2.482   1.241   5.374 -0.7091 -0.1416  0.4313
14682SOL     OW46555   7.459   0.031   7.646 -0.1378  0.6533  0.5153
14682SOL    HW146556   7.401  -0.037   7.602  1.7511 -0.2208 -0.7085
14682SOL    HW246557   7.448   0.024   7.745  0.4641 -1.9000  0.4536
14684SOL     OW46558   7.938   9.820   1.584 -0.8247 -0.3000  0.1643
14684SOL    HW146559   7.887   9.736   1.569 -0.6822 -0.5051  0.8065
14684SOL    HW246560   8.027   9.799   1.625 -1.1265  0.2185  1.1106
14688SOL     OW46561   0.751   4.096   3.897  0.5010  0.4266  0.0686
14688SOL    HW146562   0.795   4.126   3.982 -0.0594  0.8860  0.1912
14688SOL    HW246563   0.766   4.164   3.826  1.3646 -0.1703 -0.3354
14689SOL     OW46564   3.875   0.197   6.639 -0.1851 -0.0121  0.5392
14689SOL    HW146565   3.776   0.196   6.653 -0.4913 -1.5579 -1.4447
14689SOL    HW246566   3.903   0.285   6.603 -0.8532  0.3970  1.0124
14690SOL     OW46567   8.999   6.378   7.580 -0.0203 -0.0841  0.7113
14690SOL    HW146568   8.956   6.467   7.561 -0.1644 -0.1161  0.8900
14690SOL    HW246569   8.929   6.307   7.585 -0.0792  0.0694  2.2787
14692SOL     OW46570   2.991   9.602   3.966 -0.0241  0.1083  0.3176
14692SOL    HW146571   3.065   9.653   4.010  1.7045 -0.0852 -2.2820
14692SOL    HW246572   2.959   9.652   3.886  1.0071 -2.3115 -1.6987
14694SOL     OW46573   3.021   6.449   0.842 -0.1068  0.0406 -0.9250
14694SOL    HW146574   3.054   6.542   0.829  1.1328 -0.1534  0.5991
14694SOL    HW246575   3.080   6.402   0.909 -2.2461 -1.0131  0.2634
14695SOL     OW46576   7.715   7.715   7.388  0.1327 -0.1069 -0.2738
14695SOL    HW146577   7.728   7.794   7.449 -0.4595  0.6306 -1.0905
14695SOL    HW246578   7.617   7.695   7.380  0.1747  0.1463 -1.4203
14696SOL     OW46579   5.149   1.980   0.133 -0.2947 -0.1801 -0.1893
14696SOL    HW146580   5.219   2.048   0.151 -1.6217  1.3834 -0.7488
14696SOL    HW246581   5.130   1.977   0.034 -1.0099 -0.5667 -0.0430
14697SOL     OW46582   4.395   8.644   0.739  0.5315  0.0501  0.0845
14697SOL    HW146583   4.422   8.622   0.645  0.2433 -1.1614  0.2777
14697SOL    HW246584   4.450   8.720   0.772 -0.4659  1.5474 -1.6211
14698SOL     OW46585   7.672   4.666   7.013  0.2494 -0.0111  0.4929
14698SOL    HW146586   7.672   4.651   7.112 -0.9553  0.0751  0.5149
14698SOL    HW246587   7.604   4.735   6.990  0.0596 -0.5060 -0.4658
14699SOL     OW46588   0.073   7.735   1.481  0.1001  0.3283 -0.4865
14699SOL    HW146589   0.170   7.712   1.486  0.0392  0.4917  2.3390
14699SOL    HW246590   0.019   7.664   1.527 -0.8062  1.8422  0.8644
14700SOL     OW46591   4.914   8.604   7.131 -0.3775  0.6226 -0.2619
14700SOL    HW146592   4.874   8.531   7.186  0.1854  0.4182 -0.1253
14700SOL    HW246593   5.011   8.586   7.118 -0.7471 -0.0074 -2.3827
14702SOL     OW46594   8.410   7.375   1.425  0.3226 -0.0661 -0.1783
14702SOL    HW146595   8.361   7.382   1.512  0.8593  1.9457 -0.0079
14702SOL    HW246596   8.409   7.464   1.379  3.2336 -0.1681 -0.4928
14703SOL     OW46597   9.798   4.612   4.013  0.5407 -0.1094 -0.0650
14703SOL    HW146598   9.722   4.659   3.968 -0.8738 -2.0714  0.2511
14703SOL    HW246599   9.770   4.580   4.103  1.0304 -2.7604 -0.8155
14704SOL     OW46600   9.541   0.963   6.009  0.5299 -0.0744  0.0119
14704SOL    HW146601   9.598   0.884   5.987 -0.3509 -0.8063  0.3421
14704SOL    HW246602   9.573   1.005   6.094  1.6524  0.5667 -0.7107
14706SOL     OW46603   5.342   3.079   7.056 -0.3424  0.7105  0.3415
14706SOL    HW146604   5.386   3.165   7.029  0.3616  0.1621 -0.2735
14706SOL    HW246605   5.243   3.093   7.063 -0.2295  1.5781  0.2742
14707SOL     OW46606   7.615   9.275   6.277  0.0820  0.2442 -0.0669
14707SOL    HW146607   7.665   9.282   6.364 -2.2108 -1.6276  1.4737
14707SOL    HW246608   7.679   9.261   6.202  1.9903  0.0276  1.5732
14708SOL     OW46609   7.683   9.873   7.430 -0.6881  0.1897  0.6200
14708SOL    HW146610   7.598   9.830   7.462 -0.3072 -1.0382 -0.0063
14708SOL    HW246611   7.660   9.954   7.376 -1.4786 -0.4474 -0.0083
14709SOL     OW46612   4.873   1.293   4.034  0.4151 -0.3723 -0.1909
14709SOL    HW146613   4.813   1.344   4.096  0.1075 -2.4870  1.3143
14709SOL    HW246614   4.820   1.226   3.982  0.9123  0.3408 -1.6505
14711SOL     OW46615   2.575   4.647   3.901  0.4115  0.7015  0.1809
14711SOL    HW146616   2.477   4.663   3.913  0.6823  0.8230  2.4594
14711SOL    HW246617   2.616   4.626   3.989  1.9160 -2.3257 -1.1548
14712SOL     OW46618   0.466   1.709   4.309 -0.2317  0.0001 -0.1013
14712SOL    HW146619   0.434   1.744   4.222 -0.9451 -0.2748  0.0522
14712SOL    HW246620   0.536   1.638   4.293 -1.1018 -0.7791 -0.4678
14713SOL     OW46621   6.791   7.803   2.663 -0.2769  0.5030  1.1269
14713SOL    HW146622   6.847   7.811   2.745  1.5419 -1.8022  0.1620
14713SOL    HW246623   6.842   7.838   2.584 -1.0041  0.3344  0.5764
14714SOL     OW46624   1.912   0.204   5.915  0.4776 -0.3315 -0.0029
14714SOL    HW146625   1.876   0.190   5.823 -0.1282 -2.7239  0.5566
14714SOL    HW246626   1.841   0.244   5.973 -0.1991 -1.7946  0.2079
14716SOL     OW46627   8.707   1.800   0.733  0.2525  0.1163  0.2027
14716SOL    HW146628   8.705   1.753   0.822 -1.1320 -0.9105 -0.3505
14716SOL    HW246629   8.778   1.760   0.676 -0.0673 -0.4478  0.1987
14717SOL     OW46630   4.230   8.160   6.408 -0.0061 -0.0667  0.1284
14717SOL    HW146631   4.204   8.138   6.314  0.0972  0.1644  0.0448
14717SOL    HW246632   4.194   8.090   6.470 -0.6181  0.1207 -0.0134
14718SOL     OW46633   9.097   4.275   5.012 -0.3541 -0.2062  0.1026
14718SOL    HW146634   9.025   4.324   4.962 -0.2483  0.7951  0.9118
14718SOL    HW246635   9.056   4.224   5.088 -0.3842 -0.8605 -0.3479
14719SOL     OW46636   4.144   9.607   4.267 -0.1792 -0.4279 -0.0392
14719SOL    HW146637   4.210   9.679   4.247 -0.3984  0.3491  1.9149
14719SOL    HW246638   4.172   9.557   4.349 -1.2922 -0.9909  0.0164
14721SOL     OW46639   6.917   3.016   1.081 -0.2006 -0.4804 -0.0473
14721SOL    HW146640   6.941   3.109   1.108 -0.6117 -0.3493 -0.1298
14721SOL    HW246641   6.976   2.986   1.006 -0.0672 -0.2889 -0.0186
14722SOL     OW46642   0.490   1.911   1.515 -0.5040 -0.3129 -0.2029
14722SOL    HW146643   0.421   1.839   1.525  0.9928 -1.8683 -0.9417
14722SOL    HW246644   0.473   1.963   1.432 -0.8201 -0.6560 -0.3516
14725SOL     OW46645   8.578   5.539   3.422 -0.2972 -0.1372 -0.2812
14725SOL    HW146646   8.575   5.622   3.366 -0.8586 -0.1548 -0.2774
14725SOL    HW246647   8.594   5.460   3.364 -1.2640 -0.1998 -0.4606
14726SOL     OW46648   3.113   3.693   1.223 -0.1707 -0.5930 -0.2447
14726SOL    HW146649   3.209   3.672   1.204 -0.1429 -0.2483 -0.4868
14726SOL    HW246650   3.063   3.702   1.137  0.1053  1.6599 -0.2013
14727SOL     OW46651   0.229   6.947   1.101 -0.4747  0.4094  0.4728
14727SOL    HW146652   0.130   6.945   1.091 -0.3641 -0.3091 -0.6020
14727SOL    HW246653   0.267   6.858   1.075  0.4836  0.8053  0.4979
14728SOL     OW46654   7.885   1.561   2.569  0.8462  0.3380  0.9284
14728SOL    HW146655   7.975   1.518   2.566  1.2114  1.1468 -0.0465
14728SOL    HW246656   7.850   1.571   2.475  0.2741  1.1203  1.2202
14729SOL     OW46657   8.669   6.516   4.020 -0.1483  0.2876 -0.1316
14729SOL    HW146658   8.711   6.606   4.030 -0.6724  0.5039  0.1605
14729SOL    HW246659   8.741   6.446   4.013  0.2670  0.5900  0.9782
14731SOL     OW46660   4.869   7.467   2.040 -0.4059  0.1472  0.6086
14731SOL    HW146661   4.862   7.558   2.000 -1.2552  1.1484  2.9189
14731SOL    HW246662   4.965   7.444   2.057 -0.0677 -0.1745 -1.6700
14732SOL     OW46663   9.173   1.772   5.169 -0.4145 -0.2975 -0.2578
14732SOL    HW146664   9.206   1.687   5.129 -1.2715 -1.1179  0.7277
14732SOL    HW246665   9.164   1.761   5.268 -1.2329  0.6954 -0.2018
14733SOL     OW46666   8.434   4.361   0.342 -0.9699 -0.1262  0.1608
14733SOL    HW146667   8.467   4.283   0.396 -0.1848  0.1186  0.0477
14733SOL    HW246668   8.402   4.328   0.253  1.0606 -0.1385 -0.6055
14734SOL     OW46669   7.651   3.985   2.973  0.0338  0.0315  0.0551
14734SOL    HW146670   7.680   4.019   3.062  1.4524  1.1522 -0.8000
14734SOL    HW246671   7.551   3.983   2.969 -0.0599 -2.4789  2.5474
14735SOL     OW46672   1.114   1.633   2.273 -0.1470  0.2857 -0.7381
14735SOL    HW146673   1.114   1.615   2.174  0.2741  1.7530 -1.0240
14735SOL    HW246674   1.152   1.724   2.290  0.3903 -0.2187  0.8376
14736SOL     OW46675   5.055   9.788   3.052  0.2386  0.0489  0.0192
14736SOL    HW146676   5.011   9.703   3.080  0.7381 -0.3134 -0.2825
14736SOL    HW246677   5.002   9.830   2.978  0.3212 -0.3169 -0.2535
14737SOL     OW46678   5.137   1.980   6.759  0.2811 -0.1217 -0.0094
14737SOL    HW146679   5.114   2.060   6.814  1.5101 -0.4211  0.9480
14737SOL    HW246680   5.072   1.972   6.683 -0.9752  0.7154  0.9633
14738SOL     OW46681   1.867   0.504   7.929 -0.3084  0.6926 -0.2325
14738SOL    HW146682   1.787   0.454   7.897 -0.2419  0.4539 -0.0320
14738SOL    HW246683   1.887   0.478   8.024 -0.7138  1.6457  0.1200
14739SOL     OW46684   0.023   1.083   3.355  0.0549 -0.2574  0.0258
14739SOL    HW146685   0.108   1.030   3.354  0.4377  0.3331 -2.0788
14739SOL    HW246686  -0.041   1.042   3.420  1.3573 -1.6717  0.4546
14740SOL     OW46687   7.381   5.715   0.054 -0.2911  0.1889  0.2987
14740SOL    HW146688   7.471   5.745   0.085  0.6065 -0.5102 -1.5473
14740SOL    HW246689   7.324   5.692   0.133  0.6570  1.9748  1.5491
14741SOL     OW46690   6.840   9.569   5.114  0.2001 -0.1240  0.8251
14741SOL    HW146691   6.898   9.576   5.033  1.3189 -1.2840  1.5084
14741SOL    HW246692   6.816   9.661   5.145  3.7206  0.5040  1.9594
14742SOL     OW46693   8.239   5.493   7.213 -0.4949 -0.0946 -1.4030
14742SOL    HW146694   8.309   5.554   7.175 -1.3703  1.6068 -0.3704
14742SOL    HW246695   8.245   5.403   7.169  4.1986 -0.9313  0.5569
14743SOL     OW46696   8.747   8.080   3.991  0.0040  0.1258 -0.6793
14743SOL    HW146697   8.773   8.056   4.085  1.9202  2.9214 -0.4559
14743SOL    HW246698   8.803   8.028   3.926 -0.9102 -1.3651 -0.2988
14744SOL     OW46699   0.047   5.478   4.915  0.0294 -0.2324 -0.1824
14744SOL    HW146700   0.111   5.502   4.842  0.8358 -1.8740 -0.0364
14744SOL    HW246701  -0.035   5.439   4.875 -0.0505  0.0149 -0.2640
14745SOL     OW46702   3.829   2.636   3.939 -0.6258 -0.6405  0.4770
14745SOL    HW146703   3.856   2.574   3.865 -0.7091  0.6513 -0.6715
14745SOL    HW246704   3.846   2.730   3.910 -1.0843 -0.1030  1.9475
14747SOL     OW46705   7.751   6.872   4.262 -0.3130  0.3465  0.5180
14747SOL    HW146706   7.799   6.886   4.176  1.3902  0.9707  1.5368
14747SOL    HW246707   7.766   6.779   4.294  0.0042  0.4532  0.6886
14748SOL     OW46708   5.455   6.719   2.184  0.1396 -0.1865 -0.1676
14748SOL    HW146709   5.437   6.689   2.090  1.7859 -0.6457 -0.3574
14748SOL    HW246710   5.417   6.652   2.247  2.5072 -1.9866 -0.5802
14749SOL     OW46711   0.689   5.078   2.428 -0.1053  0.0776 -0.3405
14749SOL    HW146712   0.695   5.157   2.490  0.2468  0.3210 -0.6845
14749SOL    HW246713   0.661   5.108   2.337 -3.1612 -0.5932  0.3198
14751SOL     OW46714   8.197   3.117   2.740  0.3226 -0.1155  0.6692
14751SOL    HW146715   8.123   3.054   2.764  0.8668 -0.7831  0.5946
14751SOL    HW246716   8.214   3.179   2.817 -1.3516  1.0563  0.1247
14752SOL     OW46717   7.023   0.063   3.893 -0.2437  0.7248 -0.5095
14752SOL    HW146718   7.035   0.066   3.794  1.2825  0.1565 -0.3674
14752SOL    HW246719   6.949  -0.001   3.916  1.2010 -1.2562 -1.1834
14753SOL     OW46720   1.412   8.853   0.641  0.0605 -1.0208 -0.3066
14753SOL    HW146721   1.389   8.812   0.553  0.6916 -1.0233 -0.4696
14753SOL    HW246722   1.422   8.952   0.629 -0.8980 -0.8868 -0.0271
14754SOL     OW46723   2.353   1.518   1.944 -0.0847  0.0772  0.0273
14754SOL    HW146724   2.265   1.552   1.910  0.6547  0.0632 -1.9347
14754SOL    HW246725   2.412   1.596   1.966 -0.8983  0.0998  2.2403
14755SOL     OW46726   8.612   6.351   6.929  0.4592 -0.4035  0.5086
14755SOL    HW146727   8.519   6.363   6.965 -0.2396 -2.1019 -0.6565
14755SOL    HW246728   8.636   6.254   6.931  1.9139 -0.0603  0.0657
14756SOL     OW46729   2.854   3.585  10.087  0.3348  0.1642 -0.1327
14756SOL    HW146730   2.770   3.588  10.032  0.8774 -1.7957 -1.1170
14756SOL    HW246731   2.933   3.591  10.027  0.9366 -1.6281  0.4598
14758SOL     OW46732   0.577   6.203   1.019  0.4515  0.0160 -0.2366
14758SOL    HW146733   0.506   6.228   1.085  0.8701 -0.9146  0.5734
14758SOL    HW246734   0.572   6.105   1.001  1.7372 -0.1039  0.0664
14759SOL     OW46735   3.604   7.040   3.160 -0.0096  0.4706  0.3665
14759SOL    HW146736   3.622   6.993   3.247 -0.7863  0.8288  0.7208
14759SOL    HW246737   3.682   7.026   3.099  0.7140  0.5331  1.2526
14760SOL     OW46738   9.795   3.607   7.720 -0.1496 -0.5353 -0.4562
14760SOL    HW146739   9.696   3.602   7.734 -0.4357  2.5220 -0.9838
14760SOL    HW246740   9.826   3.529   7.666 -2.3845 -1.1165 -0.9145
14761SOL     OW46741   3.536   6.998   2.213 -0.6878 -0.1712  0.4896
14761SOL    HW146742   3.628   6.967   2.238  0.2318  0.9284 -1.4378
14761SOL    HW246743   3.491   6.928   2.157  0.2399  0.6244 -1.3039
14762SOL     OW46744   8.957   5.439   3.168  0.1233 -0.3484  0.2944
14762SOL    HW146745   8.902   5.469   3.090  1.8797 -1.6323 -1.4723
14762SOL    HW246746   8.972   5.516   3.230  0.2866  1.1588 -1.5754
14764SOL     OW46747   0.081   2.889   7.505 -0.1836  0.4272  0.0731
14764SOL    HW146748   0.066   2.841   7.418 -2.3581 -1.0425  1.2286
14764SOL    HW246749   0.110   2.824   7.574 -4.2046  0.4852  1.9449
14765SOL     OW46750   2.657   0.509   7.439  0.4580  0.2741 -0.7513
14765SOL    HW146751   2.587   0.463   7.493  0.8431  0.6064  0.0496
14765SOL    HW246752   2.745   0.502   7.486  0.6870  1.0737 -1.0392
14767SOL     OW46753   4.830   9.606   6.652 -0.0709  0.2124  0.3688
14767SOL    HW146754   4.930   9.613   6.657 -0.0266  1.1695 -1.3414
14767SOL    HW246755   4.805   9.513   6.625  0.3570 -0.0412  0.8320
14768SOL     OW46756   2.042   7.504   3.444 -0.0090 -0.2480 -0.1000
14768SOL    HW146757   1.982   7.457   3.379 -0.3211 -0.6424  0.4620
14768SOL    HW246758   2.104   7.437   3.485 -0.9597 -0.3102  1.2611
14769SOL     OW46759   4.898   4.881   6.221  0.1799  0.2243 -0.1769
14769SOL    HW146760   4.866   4.857   6.129  1.5025  0.8962 -0.8428
14769SOL    HW246761   4.982   4.935   6.213  0.7885 -0.4486  1.4590
14771SOL     OW46762   0.420   4.988   4.882  0.0256 -0.1891 -0.4251
14771SOL    HW146763   0.361   5.064   4.909  1.0386  0.6134 -0.4497
14771SOL    HW246764   0.364   4.913   4.848 -0.9729  0.6400 -0.6246
14772SOL     OW46765   0.171   8.084   3.752  0.4483 -0.2300  0.1237
14772SOL    HW146766   0.136   8.019   3.819  0.6636 -0.9046 -0.4160
14772SOL    HW246767   0.186   8.172   3.797 -0.6831 -0.2937  0.6592
14773SOL     OW46768   2.295   4.214   1.057  0.6793 -0.0931  0.0232
14773SOL    HW146769   2.328   4.278   0.987  0.3247  0.8770  0.7294
14773SOL    HW246770   2.276   4.126   1.014  1.2757  0.2286 -0.9494
14776SOL     OW46771   9.684   4.825   5.819  0.0854 -0.4483  0.2473
14776SOL    HW146772   9.624   4.880   5.878 -2.9355 -1.9247 -1.3254
14776SOL    HW246773   9.659   4.839   5.724  2.8309 -0.4950 -0.5030
14777SOL     OW46774   2.254   4.470   6.481  0.6428  0.7570  0.1153
14777SOL    HW146775   2.228   4.467   6.578 -0.5008 -2.5007 -0.2188
14777SOL    HW246776   2.347   4.505   6.472  1.0658  0.2948  2.4590
14778SOL     OW46777   4.767   9.536   2.117 -0.7036 -0.6754 -0.3205
14778SOL    HW146778   4.726   9.616   2.161 -1.1408 -2.5500  2.8832
14778SOL    HW246779   4.796   9.560   2.024  0.3711  3.4913  0.9877
14779SOL     OW46780   6.169   0.931   1.148  0.2001 -0.1640  1.1350
14779SOL    HW146781   6.102   0.951   1.076  2.5108 -0.6651 -1.2161
14779SOL    HW246782   6.200   1.017   1.190 -0.9389  0.1452  1.3723
14782SOL     OW46783   0.689   0.869   3.537  0.0506  0.1245  0.2097
14782SOL    HW146784   0.719   0.780   3.503 -0.7571  0.0280 -0.2604
14782SOL    HW246785   0.763   0.913   3.588  0.4401 -0.8281  0.4576
14784SOL     OW46786   7.154   3.064   0.300  0.2066  0.6167 -0.0525
14784SOL    HW146787   7.120   3.000   0.370 -0.0627 -0.4196 -1.1085
14784SOL    HW246788   7.076   3.103   0.251  0.4149  0.9602 -0.1060
14785SOL     OW46789   9.425   9.786   4.631 -0.1574 -0.0992  0.2860
14785SOL    HW146790   9.389   9.716   4.571 -1.3410  0.0320  0.8222
14785SOL    HW246791   9.514   9.758   4.666 -0.3684 -1.0810  0.0524
14786SOL     OW46792   9.740   4.517   7.737 -0.5833  0.6250  0.3484
14786SOL    HW146793   9.710   4.426   7.708 -0.0547 -0.0942  1.9828
14786SOL    HW246794   9.681   4.550   7.811 -0.8009  1.6362 -0.2676
14787SOL     OW46795   0.989   2.532   1.413 -0.0325  0.0102  1.0245
14787SOL    HW146796   1.019   2.620   1.376  1.3680 -0.6986  0.4365
14787SOL    HW246797   0.995   2.534   1.513 -3.0042  1.6331  1.2243
14790SOL     OW46798   7.606   4.915   0.976  0.1654 -0.3891 -0.2275
14790SOL    HW146799   7.629   5.010   0.953  0.7636 -0.7692 -1.2119
14790SOL    HW246800   7.628   4.856   0.899 -0.9535 -1.2287  0.0837
14791SOL     OW46801   2.906   2.071   6.954  0.2571  0.0697  0.0370
14791SOL    HW146802   2.983   2.075   7.017 -0.4797  0.2654  0.9433
14791SOL    HW246803   2.877   2.164   6.931 -0.5188  0.0041  0.7199
14793SOL     OW46804   0.449   2.128   0.237  0.1459 -0.0742  0.0341
14793SOL    HW146805   0.409   2.037   0.246  2.8206 -1.3719 -0.4808
14793SOL    HW246806   0.459   2.151   0.140  0.3695  0.3375  0.1542
14795SOL     OW46807   7.121   9.682   2.050  0.3869  0.2703  0.3115
14795SOL    HW146808   7.041   9.740   2.065 -0.4609 -0.3563 -1.5769
14795SOL    HW246809   7.095   9.586   2.059  1.2474  0.1095  1.0926
14796SOL     OW46810   1.778   5.263   5.304  0.0200  0.1174  0.2000
14796SOL    HW146811   1.811   5.214   5.223 -0.1851  0.2885  0.0113
14796SOL    HW246812   1.759   5.198   5.377  1.0776  0.0465  0.4176
14797SOL     OW46813   8.520   9.623   7.643 -0.1932 -0.4041  0.8703
14797SOL    HW146814   8.559   9.547   7.696 -0.3930 -0.2776  1.1992
14797SOL    HW246815   8.549   9.710   7.683 -0.1996 -0.3062  0.6649
14798SOL     OW46816   7.530   7.988   4.912 -0.4316  0.5463 -0.3047
14798SOL    HW146817   7.605   8.008   4.850  1.0789 -3.8900 -0.0623
14798SOL    HW246818   7.461   7.932   4.866 -0.8657 -0.0972  1.0789
14799SOL     OW46819   7.870   7.671   5.197  0.1617  0.1246  0.0302
14799SOL    HW146820   7.959   7.646   5.160 -0.1479 -0.7539 -0.1558
14799SOL    HW246821   7.861   7.634   5.289 -0.0226  0.1797  0.0344
14800SOL     OW46822   2.471   1.405   6.004 -0.1217  0.3545 -0.3842
14800SOL    HW146823   2.545   1.386   6.068  0.6195  0.1774 -1.2798
14800SOL    HW246824   2.409   1.327   5.999 -1.2857  1.1077  1.5644
14801SOL     OW46825   4.563   7.896   3.563  0.7575  0.0664 -0.0604
14801SOL    HW146826   4.607   7.843   3.491  0.6782  1.6687 -1.3301
14801SOL    HW246827   4.464   7.893   3.551  0.8140  2.0965 -1.3633
14802SOL     OW46828   8.599   5.758   5.581 -0.0842  0.8852  0.3720
14802SOL    HW146829   8.576   5.708   5.665  0.9782  1.6215  1.1203
14802SOL    HW246830   8.698   5.755   5.567 -0.3775 -0.4118 -1.6198
14803SOL     OW46831   8.901   5.578   6.214  0.3526 -0.0694 -0.0511
14803SOL    HW146832   8.865   5.668   6.238  0.6422  0.2121 -0.6504
14803SOL    HW246833   8.998   5.585   6.191 -0.1507 -0.1379 -2.3024
14804SOL     OW46834   4.339   7.627   1.726  0.0952  0.4356 -0.0263
14804SOL    HW146835   4.300   7.703   1.675  0.6449  0.0302 -1.0692
14804SOL    HW246836   4.436   7.643   1.742  0.1496  0.0879  0.0087
14805SOL     OW46837   2.313   4.118   5.368 -0.6669 -0.0763  0.0221
14805SOL    HW146838   2.335   4.215   5.376  0.4150 -0.3594  0.6441
14805SOL    HW246839   2.219   4.102   5.399  0.8597  0.0182  5.1853
14807SOL     OW46840   0.014   1.043   7.177 -0.0996  0.6497  0.2077
14807SOL    HW146841  -0.071   1.077   7.217 -0.3177  0.7597 -0.3454
14807SOL    HW246842  -0.007   0.980   7.103  0.3043  0.7732 -0.0129
14808SOL     OW46843   8.021   8.102   4.630 -0.0017  0.1999 -0.1481
14808SOL    HW146844   7.955   8.132   4.562  0.0706 -0.6307 -0.5837
14808SOL    HW246845   8.068   8.020   4.597  0.5665  0.2342  0.5717
14809SOL     OW46846   4.986   1.124   6.558 -0.1096 -0.3986 -0.5501
14809SOL    HW146847   4.997   1.185   6.479 -0.9084  0.8422  0.2810
14809SOL    HW246848   5.073   1.081   6.579  0.2609 -0.2364 -1.7138
14810SOL     OW46849   8.203   0.829   2.212  0.1007 -0.1799 -0.2573
14810SOL    HW146850   8.214   0.908   2.272  0.9375 -0.4013 -0.1047
14810SOL    HW246851   8.200   0.746   2.268  0.3306 -0.3402 -0.4803
14811SOL     OW46852   9.674   9.925   6.058 -0.6977 -0.0773  0.2248
14811SOL    HW146853   9.653   9.850   6.122  0.0497  0.5331  1.1989
14811SOL    HW246854   9.763   9.908   6.015 -0.9498 -0.2080 -0.2519
14813SOL     OW46855   0.901   5.227   7.177 -0.0815 -0.0408 -0.2946
14813SOL    HW146856   0.842   5.160   7.222 -2.6584  1.3540 -1.4785
14813SOL    HW246857   0.959   5.180   7.111 -0.7891 -1.3077 -0.0476
14814SOL     OW46858   0.247   2.026   6.297 -0.0270 -0.4157 -0.7175
14814SOL    HW146859   0.331   1.998   6.250  0.0928 -0.1197 -0.6855
14814SOL    HW246860   0.170   1.976   6.259  0.0467 -0.0641 -1.3517
14815SOL     OW46861   1.085   4.563   4.522 -0.0116  0.2369  0.0872
14815SOL    HW146862   1.116   4.473   4.489  0.6607  0.2830  0.5642
14815SOL    HW246863   1.127   4.581   4.612  1.8985  2.1314 -1.1239
14816SOL     OW46864   5.686   8.929   2.769  0.0018 -0.1128 -0.3981
14816SOL    HW146865   5.639   8.885   2.692 -0.4868 -0.8880  0.3319
14816SOL    HW246866   5.693   8.864   2.845  1.1823  0.3896 -0.0639
14818SOL     OW46867   0.538   0.699   6.224  0.3481  0.0803 -0.4365
14818SOL    HW146868   0.445   0.662   6.221 -0.3290  1.8519 -3.9053
14818SOL    HW246869   0.604   0.624   6.219 -0.8590 -1.1835  1.9015
14819SOL     OW46870   8.730   8.067   2.414 -0.4237 -0.2983  0.0713
14819SOL    HW146871   8.678   8.133   2.468 -1.5703 -1.5890  0.5912
14819SOL    HW246872   8.721   8.088   2.317 -1.1113  0.0747  0.2111
14822SOL     OW46873   9.120   8.263   0.911 -0.3437 -0.1117 -0.3051
14822SOL    HW146874   9.140   8.223   1.001  1.8960 -0.7102 -1.0264
14822SOL    HW246875   9.179   8.343   0.897  1.1474 -1.4956 -2.2330
14823SOL     OW46876   0.907   7.354   2.906 -0.3722 -0.0104 -0.1363
14823SOL    HW146877   0.901   7.255   2.922 -1.9914 -0.3260 -2.4606
14823SOL    HW246878   0.970   7.371   2.830 -1.1394  0.6522 -0.6233
14824SOL     OW46879   2.988   3.026   1.477  0.2846 -0.3013 -0.6976
14824SOL    HW146880   2.939   3.114   1.477 -0.0925 -0.4953  0.7751
14824SOL    HW246881   3.047   3.021   1.558 -1.5020 -2.3853  0.5363
14825SOL     OW46882   3.682   1.189   5.700 -0.2171  0.5993 -0.1924
14825SOL    HW146883   3.687   1.259   5.772 -1.3635  1.5687 -1.0269
14825SOL    HW246884   3.709   1.229   5.613 -0.6933 -0.0506 -0.6446
14827SOL     OW46885   5.972   6.193   0.630  0.1888 -0.6905  0.2681
14827SOL    HW146886   6.019   6.251   0.697  2.9064 -0.8663 -1.4395
14827SOL    HW246887   5.935   6.251   0.556  0.9501 -0.9203 -0.2911
14828SOL     OW46888   4.415   5.158   4.820 -0.2685  0.4315  0.1622
14828SOL    HW146889   4.473   5.129   4.896 -2.5055 -0.4155  1.5960
14828SOL    HW246890   4.399   5.256   4.826  0.5856  0.5861  0.0376
14829SOL     OW46891   0.203   6.676   7.721 -0.2511  0.4572  0.0742
14829SOL    HW146892   0.106   6.699   7.708 -0.3118  1.0664  1.5727
14829SOL    HW246893   0.240   6.643   7.634 -2.1219 -1.0044 -0.2032
14830SOL     OW46894   8.575   9.201   2.769 -0.0716  0.3824 -0.1249
14830SOL    HW146895   8.504   9.216   2.700 -1.0220  1.3890  1.0527
14830SOL    HW246896   8.646   9.141   2.732 -1.5574 -0.6661 -1.2958
14831SOL     OW46897   3.696   1.088   4.800 -0.1548 -0.4226 -0.0380
14831SOL    HW146898   3.732   1.063   4.710  0.0260 -0.7410  0.1238
14831SOL    HW246899   3.611   1.037   4.816 -1.8632  1.9143 -1.3347
14833SOL     OW46900   9.545   8.335   4.745  0.7727  0.0335  0.5395
14833SOL    HW146901   9.543   8.379   4.655 -0.1534 -0.2408  0.4140
14833SOL    HW246902   9.623   8.369   4.797 -0.0081  1.9825  0.5073
14834SOL     OW46903   8.779   8.764   7.079  0.0230  0.6609  0.3319
14834SOL    HW146904   8.701   8.717   7.120 -0.1147  0.8428  0.2772
14834SOL    HW246905   8.816   8.830   7.144 -1.4048  2.3455 -0.5494
14835SOL     OW46906   8.859   2.822   5.899  0.0458  0.0121  0.0074
14835SOL    HW146907   8.805   2.879   5.837 -0.0271  0.5564  0.5706
14835SOL    HW246908   8.925   2.879   5.948  0.3962 -0.4857  0.1175
14837SOL     OW46909   4.540   6.508   0.338  0.0566 -0.1765 -0.3946
14837SOL    HW146910   4.530   6.449   0.418  0.4769  1.8811  1.2060
14837SOL    HW246911   4.614   6.474   0.280 -0.1087 -1.5493  0.1821
14838SOL     OW46912   8.113   3.572   0.950 -0.2969 -0.3385 -0.0145
14838SOL    HW146913   8.051   3.494   0.940 -0.7957  0.0230  0.2526
14838SOL    HW246914   8.061   3.657   0.948  0.2002 -0.0270  0.1192
14840SOL     OW46915   9.132   7.975   4.248 -0.1330 -0.3853  0.3151
14840SOL    HW146916   9.128   7.944   4.343  0.7025 -1.2198  0.0890
14840SOL    HW246917   9.199   7.921   4.198  1.8090  2.1452  0.0421
14841SOL     OW46918   0.168   8.861   4.198 -0.1882  0.0159  0.3973
14841SOL    HW146919   0.231   8.853   4.121  1.2999 -1.0283  1.6750
14841SOL    HW246920   0.127   8.952   4.200  0.1258  0.2013 -1.3232
14842SOL     OW46921   8.031   9.730   7.079 -0.5710 -0.2735 -0.0556
14842SOL    HW146922   8.106   9.738   7.144  0.0815 -0.5809 -0.7555
14842SOL    HW246923   7.992   9.639   7.083 -0.3297 -0.3899 -0.3004
14843SOL     OW46924   9.622   8.172   1.711 -0.8538  0.0157 -0.2353
14843SOL    HW146925   9.631   8.151   1.808  0.2750 -0.4242 -0.4259
14843SOL    HW246926   9.555   8.110   1.670  0.3576 -1.3460 -0.2047
14844SOL     OW46927   3.788   2.282   3.433 -0.3670  0.0804  0.3433
14844SOL    HW146928   3.847   2.341   3.378  1.3055 -0.2880  1.6783
14844SOL    HW246929   3.761   2.331   3.516 -3.0273  0.7074 -0.8398
14845SOL     OW46930   7.227   5.712   3.059 -0.5532 -0.0032 -0.1772
14845SOL    HW146931   7.319   5.696   3.097 -0.1742 -0.5555 -1.2868
14845SOL    HW246932   7.170   5.758   3.127 -0.2871 -2.1082  1.5148
14847SOL     OW46933   8.912   5.325   0.354  0.1507 -0.0710  0.3268
14847SOL    HW146934   8.815   5.350   0.356  0.0860 -0.3878  1.6474
14847SOL    HW246935   8.955   5.366   0.274 -1.1371 -0.1616 -0.4296
14849SOL     OW46936   9.561   8.259   5.754 -0.3251  0.6613 -0.5739
14849SOL    HW146937   9.486   8.209   5.797 -0.0492  1.1116  0.4406
14849SOL    HW246938   9.535   8.355   5.744  0.5967  1.0929  0.9692
14850SOL     OW46939   0.727   5.940   5.209  0.4236  0.6244 -0.2427
14850SOL    HW146940   0.772   5.858   5.174 -0.6132  0.1705 -0.5234
14850SOL    HW246941   0.753   6.019   5.154  1.8828  0.5973  0.3767
14851SOL     OW46942   7.406   6.094   7.574  0.3596  0.1888 -0.4416
14851SOL    HW146943   7.328   6.134   7.623  0.6315  1.8230 -1.3186
14851SOL    HW246944   7.394   6.107   7.476  1.3803 -0.2374 -0.6266
14852SOL     OW46945   5.024   0.382   2.233 -0.4405 -0.0098  0.2331
14852SOL    HW146946   4.971   0.465   2.248 -1.1065 -0.1885 -1.0262
14852SOL    HW246947   4.998   0.342   2.145  1.2665 -0.4935 -0.0650
14853SOL     OW46948   0.887   3.785   2.750 -0.2090  0.5656 -0.5584
14853SOL    HW146949   0.948   3.813   2.676 -0.6290  2.4354 -0.2303
14853SOL    HW246950   0.861   3.866   2.804  0.3137 -0.7764  1.8047
14854SOL     OW46951   5.013   2.665   0.037  0.3053  0.0695 -0.4863
14854SOL    HW146952   5.064   2.602  -0.021 -0.4099 -0.0828 -0.9579
14854SOL    HW246953   4.939   2.707  -0.016 -0.1282  0.2023  0.2156
14855SOL     OW46954   1.169   5.736   2.931  0.0464  0.2988  0.1241
14855SOL    HW146955   1.097   5.805   2.931 -0.1120  0.1735  2.0933
14855SOL    HW246956   1.198   5.717   2.837 -0.1840  2.7378 -0.4716
14856SOL     OW46957   3.949   5.373   5.431  0.5078  0.1786 -0.3268
14856SOL    HW146958   4.024   5.385   5.366  0.0785  0.0860 -0.8411
14856SOL    HW246959   3.899   5.289   5.410 -1.4443  1.6368 -1.7059
14857SOL     OW46960   9.580   3.765   4.234 -0.2744 -0.1410 -0.1203
14857SOL    HW146961   9.603   3.688   4.174 -1.0339 -0.1281 -0.4313
14857SOL    HW246962   9.486   3.795   4.216 -0.9656 -0.9854  1.9955
14858SOL     OW46963   8.876   4.829   7.241  0.2795 -0.1447 -0.3407
14858SOL    HW146964   8.805   4.861   7.179  0.0475 -2.2135 -1.2076
14858SOL    HW246965   8.962   4.875   7.220 -0.2649  0.6301 -0.8748
14859SOL     OW46966   6.229   0.705   0.826  0.0850 -0.1446 -0.3148
14859SOL    HW146967   6.253   0.650   0.906 -0.2901  0.2348  0.0633
14859SOL    HW246968   6.181   0.648   0.759  0.6518 -0.5305 -0.3964
14860SOL     OW46969   9.244   6.165   6.516  0.1638  0.2055 -0.3131
14860SOL    HW146970   9.299   6.224   6.575 -0.1631  0.6418 -0.4414
14860SOL    HW246971   9.155   6.148   6.559  0.8017 -1.4248  0.4302
14861SOL     OW46972   1.755   2.910   5.779  0.1418 -0.6157 -0.7309
14861SOL    HW146973   1.787   2.962   5.701  0.3744  0.0018 -0.2280
14861SOL    HW246974   1.796   2.946   5.863 -0.6303 -0.8282 -0.2532
14862SOL     OW46975   6.387   0.035   3.881  0.4939  0.3318  0.7435
14862SOL    HW146976   6.461   0.067   3.940 -0.6384  1.2008  1.7114
14862SOL    HW246977   6.355   0.111   3.824  0.1634  0.0199  0.5120
14863SOL     OW46978   4.148   4.450   5.638 -0.1494  0.0744 -0.1017
14863SOL    HW146979   4.171   4.472   5.732 -2.3184  2.5244 -0.0977
14863SOL    HW246980   4.192   4.516   5.576  0.5410 -0.9833 -0.7649
14864SOL     OW46981   9.552   1.484   4.038  0.0146  0.2476  0.2540
14864SOL    HW146982   9.648   1.480   4.065  0.2887 -1.7171 -0.9403
14864SOL    HW246983   9.541   1.448   3.945 -1.6959  1.6521 -0.1284
14865SOL     OW46984   9.982   0.829   6.531 -0.6773  0.2395  0.1386
14865SOL    HW146985   9.978   0.735   6.498  1.1925 -0.1864  1.0726
14865SOL    HW246986  10.002   0.891   6.454  0.3468 -0.3809 -0.1056
14866SOL     OW46987   7.398   0.049   4.574  0.4941 -0.5272  0.1234
14866SOL    HW146988   7.346  -0.026   4.615 -2.4687  0.8374 -1.0224
14866SOL    HW246989   7.366   0.136   4.612  1.4270  0.3918 -1.1837
14869SOL     OW46990   3.050   7.466   3.430  0.1938  0.0780  0.2634
14869SOL    HW146991   3.060   7.379   3.478 -1.4577  0.4187  1.2856
14869SOL    HW246992   3.113   7.533   3.470 -1.4229  0.4577  2.2519
14870SOL     OW46993   0.778   6.108   0.696 -0.0597 -0.1888  0.5416
14870SOL    HW146994   0.744   6.175   0.762  0.0085  0.1158  0.2668
14870SOL    HW246995   0.875   6.090   0.714 -0.2832 -0.8175  1.1234
14871SOL     OW46996   8.698   1.917   5.343  0.0872 -0.2189  0.1710
14871SOL    HW146997   8.718   1.849   5.273 -1.1407 -0.2866 -0.1236
14871SOL    HW246998   8.769   1.915   5.413  0.6349 -1.0380 -0.4064
14872SOL     OW46999   1.768   9.953   7.924 -0.0066 -0.4162 -0.8154
14872SOL    HW147000   1.688   9.912   7.969 -0.6404 -0.3564 -1.8577
14872SOL    HW247001   1.805   9.888   7.857 -0.3335  0.2770 -1.6762
14873SOL     OW47002   7.479   9.487   2.800 -0.0904 -0.5483 -0.2748
14873SOL    HW147003   7.382   9.497   2.821 -0.3466 -0.3740 -1.5080
14873SOL    HW247004   7.491   9.475   2.701  1.1628 -0.2782 -0.1633
14874SOL     OW47005   4.752   0.216   5.767  0.3056  0.5815 -0.8963
14874SOL    HW147006   4.667   0.250   5.809  0.0318 -1.2473  0.0648
14874SOL    HW247007   4.762   0.258   5.676 -0.6972  2.1906 -0.2989
14876SOL     OW47008   0.120   1.564   4.742  0.3697 -0.6178  0.3356
14876SOL    HW147009   0.053   1.499   4.706  0.8009 -1.4364  0.9769
14876SOL    HW247010   0.199   1.568   4.681 -1.7949  3.1315 -2.4125
14877SOL     OW47011   7.363   2.944   0.142 -0.4006 -0.6475  0.2109
14877SOL    HW147012   7.437   2.938   0.210  0.4678 -0.7628 -0.7277
14877SOL    HW247013   7.289   3.000   0.179 -0.6076 -1.9683  1.8491
14878SOL     OW47014   6.955   8.678   7.501  0.9076  0.1725 -0.3173
14878SOL    HW147015   6.892   8.748   7.535  0.2361 -0.2294 -0.7250
14878SOL    HW247016   6.966   8.688   7.402 -1.9512 -2.4601 -0.9757
14879SOL     OW47017   1.512   9.106   3.728  0.4619 -0.2639  0.0456
14879SOL    HW147018   1.539   9.111   3.632 -0.8273 -3.5848 -0.5593
14879SOL    HW247019   1.422   9.146   3.740  1.1663  1.3332  0.1443
14880SOL     OW47020   0.213   0.799   5.325 -0.0239 -0.0784 -0.5841
14880SOL    HW147021   0.282   0.745   5.276  0.3154 -0.6916  0.5393
14880SOL    HW247022   0.173   0.742   5.397 -1.8901  0.1981 -1.3925
14881SOL     OW47023   8.732   8.847   6.819 -0.2040 -0.1252 -0.5321
14881SOL    HW147024   8.751   8.834   6.916 -0.1108  2.6869 -0.1349
14881SOL    HW247025   8.737   8.758   6.772  2.9341 -1.0759  1.4512
14882SOL     OW47026   6.847   9.991   3.383  0.0398 -0.2008 -0.1899
14882SOL    HW147027   6.920  10.052   3.350 -1.8437  1.7484 -0.8868
14882SOL    HW247028   6.800   9.951   3.304 -1.5623  0.9215  0.1733
14883SOL     OW47029   7.701   2.531   1.094  0.1154  0.3261 -0.2274
14883SOL    HW147030   7.622   2.565   1.144  2.0867  1.3798  2.2596
14883SOL    HW247031   7.743   2.607   1.043  0.2656  0.0412 -0.5294
14884SOL     OW47032   8.635   6.762   0.055 -0.2791  0.0884  0.1347
14884SOL    HW147033   8.618   6.823  -0.022 -0.0666 -0.0293 -0.0049
14884SOL    HW247034   8.593   6.673   0.037 -0.2627  0.0723  0.1739
14885SOL     OW47035   4.172   3.833   1.712  0.3313  0.1672 -0.1827
14885SOL    HW147036   4.148   3.799   1.803 -2.3114 -0.1115 -0.9379
14885SOL    HW247037   4.236   3.910   1.720  0.1379  0.1219  1.9079
14886SOL     OW47038   3.846   4.633   1.304  0.1284 -0.4532 -0.2035
14886SOL    HW147039   3.836   4.731   1.290 -1.8086 -0.2584  2.1013
14886SOL    HW247040   3.823   4.585   1.220 -1.4584  0.9927 -0.6329
14887SOL     OW47041   0.972   9.930   7.536  0.0943 -0.1678 -0.6894
14887SOL    HW147042   1.003  10.023   7.514  1.3581 -0.9079 -2.1692
14887SOL    HW247043   0.902   9.902   7.471 -0.4840 -0.1628 -0.0766
14890SOL     OW47044   1.060   0.510   7.449 -0.0374  0.5589 -0.2346
14890SOL    HW147045   1.128   0.492   7.378  0.5875 -1.8931  0.9295
14890SOL    HW247046   1.106   0.540   7.532 -0.2861 -1.7027  0.7501
14891SOL     OW47047   3.694   2.872   0.985  0.3667 -0.3730  0.4224
14891SOL    HW147048   3.670   2.965   0.958 -1.0552 -0.5993  0.8832
14891SOL    HW247049   3.623   2.808   0.955  1.5313 -1.3679 -0.2471
14892SOL     OW47050   2.330   6.614   6.964 -0.1066 -0.1632  0.2880
14892SOL    HW147051   2.407   6.668   6.932  0.1774 -1.5500 -1.4762
14892SOL    HW247052   2.244   6.656   6.933  0.0240  0.3270  0.5924
14893SOL     OW47053   2.915   1.152   1.423  0.2552 -0.0812 -0.2563
14893SOL    HW147054   2.904   1.076   1.487 -2.2834 -0.1489 -0.7242
14893SOL    HW247055   2.891   1.123   1.331  0.9861  0.8206 -0.7447
14894SOL     OW47056   9.688   4.264   2.196  0.3998  0.3367 -0.5906
14894SOL    HW147057   9.637   4.348   2.210  0.9608  0.2997  1.8316
14894SOL    HW247058   9.630   4.198   2.147 -1.0498  1.1255  0.0234
14895SOL     OW47059   0.200   5.036   3.640 -0.0008 -0.2435 -0.1534
14895SOL    HW147060   0.103   5.052   3.624  0.1496  1.1475  0.2717
14895SOL    HW247061   0.212   4.952   3.694 -0.8930 -0.9776 -1.0802
14898SOL     OW47062   2.497   5.359   5.724  0.6031  0.1553  0.0203
14898SOL    HW147063   2.540   5.305   5.797 -1.1179 -0.1330  0.8683
14898SOL    HW247064   2.480   5.452   5.757  0.0328  0.0901 -0.0739
14899SOL     OW47065   4.385   6.269   3.182 -0.0941  0.0287  0.4137
14899SOL    HW147066   4.480   6.279   3.212 -0.3342  1.3279  0.7584
14899SOL    HW247067   4.363   6.172   3.172  0.7790 -0.3372  1.9166
14900SOL     OW47068   5.196   1.341   6.656 -0.2265  0.1143 -0.1914
14900SOL    HW147069   5.218   1.355   6.560  1.7571 -1.2925  0.0130
14900SOL    HW247070   5.163   1.248   6.670 -2.3634  0.9123  0.2005
14901SOL     OW47071   7.246   0.913   2.130 -0.1977 -0.0384 -0.2497
14901SOL    HW147072   7.274   0.824   2.095 -0.1720 -0.2289  0.2544
14901SOL    HW247073   7.310   0.983   2.098  0.1309 -0.2896 -0.1412
14902SOL     OW47074   1.392   7.013   0.463  0.3260 -0.3308 -0.4027
14902SOL    HW147075   1.477   6.987   0.509 -0.9477 -0.4442  1.9252
14902SOL    HW247076   1.408   7.017   0.364  2.6796 -1.6850 -0.1105
14903SOL     OW47077   7.325   0.775   3.591 -0.0058  0.0649  0.1606
14903SOL    HW147078   7.367   0.742   3.676  1.7915  1.0941 -0.2948
14903SOL    HW247079   7.319   0.875   3.594  0.1735  0.1136 -0.9496
14904SOL     OW47080   2.160   2.097   5.078  0.0001 -0.1640 -0.6102
14904SOL    HW147081   2.122   2.015   5.035  1.4346 -1.2898  0.2040
14904SOL    HW247082   2.087   2.147   5.125 -0.8795 -1.0070 -1.0606
14905SOL     OW47083   9.307   8.579   5.283 -0.3338  0.6234  0.1086
14905SOL    HW147084   9.332   8.499   5.338 -0.3776  0.0050 -0.7668
14905SOL    HW247085   9.314   8.661   5.339 -0.9626 -0.0688  1.2269
14906SOL     OW47086   7.960   5.640   4.169 -0.4746 -0.0533 -0.1648
14906SOL    HW147087   8.049   5.676   4.142 -0.4083  0.7511  1.0590
14906SOL    HW247088   7.970   5.579   4.248 -1.0893  0.7361  0.5430
14907SOL     OW47089   6.864   9.500   7.139 -0.4438  0.6261  0.6668
14907SOL    HW147090   6.867   9.472   7.235 -1.2221 -1.4393  0.1173
14907SOL    HW247091   6.769   9.501   7.108 -0.3191  2.6367  0.2809
14908SOL     OW47092   3.899   1.485   1.085  0.3167  0.9419 -0.4338
14908SOL    HW147093   3.861   1.476   0.993  0.3398  1.4025 -0.4927
14908SOL    HW247094   3.838   1.440   1.151 -0.8453  2.4584 -0.4128
14909SOL     OW47095   9.983   9.711   0.165 -0.1926 -0.0963  0.1455
14909SOL    HW147096   9.893   9.686   0.131  0.3131 -0.1153 -1.1980
14909SOL    HW247097   9.980   9.803   0.204 -0.7279  0.0123 -0.1498
14910SOL     OW47098   4.202   6.550   4.717  0.3149 -0.3987 -0.5504
14910SOL    HW147099   4.256   6.579   4.638  2.0398  0.3063  0.8459
14910SOL    HW247100   4.211   6.618   4.790 -2.6572 -0.1587 -0.3557
14911SOL     OW47101   0.281   9.682   7.370  0.0093 -0.0538  0.0927
14911SOL    HW147102   0.286   9.780   7.353  0.1453 -0.4043 -1.9324
14911SOL    HW247103   0.278   9.633   7.284 -3.0668 -1.7179  1.0947
14912SOL     OW47104   1.699   5.437   2.553 -0.0318 -0.0335  0.5531
14912SOL    HW147105   1.749   5.524   2.552 -1.3760  0.7592 -0.7048
14912SOL    HW247106   1.750   5.369   2.501  0.9183  0.0593  1.3487
14913SOL     OW47107   6.631   7.922   3.692  0.2116 -0.1049 -0.3604
14913SOL    HW147108   6.664   7.887   3.779  0.8788  2.1090  0.2879
14913SOL    HW247109   6.531   7.912   3.688 -0.0030  1.3009  1.3449
14914SOL     OW47110   8.505   0.496   7.314 -0.0404 -0.0278 -0.7354
14914SOL    HW147111   8.471   0.473   7.222 -1.5013 -1.6304  0.1636
14914SOL    HW247112   8.437   0.551   7.361  0.2752 -0.0452 -0.2619
14915SOL     OW47113   8.231   4.308   7.391 -0.1776  0.7003  0.0996
14915SOL    HW147114   8.143   4.347   7.366 -1.1286 -0.4826  1.5199
14915SOL    HW247115   8.217   4.221   7.438  1.8068 -0.1593 -0.8424
14916SOL     OW47116   2.255   2.169   1.620  0.6706  0.0522 -0.1788
14916SOL    HW147117   2.312   2.122   1.553  0.3866 -2.2642  1.1495
14916SOL    HW247118   2.292   2.260   1.637  1.8211 -0.0415 -2.0718
14917SOL     OW47119   0.618   1.724   1.838  0.0784 -0.1964 -0.3902
14917SOL    HW147120   0.611   1.624   1.839  1.8537 -0.3404  1.2293
14917SOL    HW247121   0.548   1.763   1.897  1.4321 -0.6798  1.5855
14918SOL     OW47122   9.902   0.708   2.061  0.9971 -0.1490 -0.1919
14918SOL    HW147123   9.918   0.801   2.028 -0.8891 -0.3581 -1.7890
14918SOL    HW247124   9.882   0.648   1.983 -3.8205 -0.6208  1.2730
14919SOL     OW47125   1.143   4.700   6.441  0.2715  0.0650  0.0819
14919SOL    HW147126   1.108   4.625   6.496 -0.3573 -0.2106 -0.6963
14919SOL    HW247127   1.231   4.730   6.479  0.6114 -1.1718  0.2890
14921SOL     OW47128   6.662   8.466   4.040  0.2808 -0.2453 -0.0770
14921SOL    HW147129   6.753   8.427   4.026  0.3513 -0.4065  0.8027
14921SOL    HW247130   6.607   8.454   3.958  0.9653 -0.3958 -0.5120
14922SOL     OW47131   6.196   9.782   7.856 -0.1148  0.3963 -0.3324
14922SOL    HW147132   6.233   9.854   7.914  1.5977 -0.9075  0.2553
14922SOL    HW247133   6.129   9.729   7.908 -0.0334  0.4441 -0.1779
14924SOL     OW47134   1.879   1.144   1.124 -0.0186 -0.0925 -0.1597
14924SOL    HW147135   1.949   1.101   1.180 -0.3199 -1.4316 -0.7940
14924SOL    HW247136   1.788   1.114   1.153 -0.1917 -0.5549 -1.1420
14925SOL     OW47137   8.719   1.666   3.605  0.1177 -0.2251  0.3726
14925SOL    HW147138   8.681   1.747   3.560  1.8477  0.6554  0.4447
14925SOL    HW247139   8.653   1.591   3.601 -1.1549  0.9286 -0.4790
14926SOL     OW47140   8.590   3.721   7.090  0.8842 -0.2347  0.6625
14926SOL    HW147141   8.684   3.689   7.089  1.1613  0.5733 -2.0719
14926SOL    HW247142   8.587   3.820   7.081 -0.2616 -0.4200 -1.3268
14930SOL     OW47143   8.656   6.162   4.996 -0.3476 -0.3768  0.6219
14930SOL    HW147144   8.657   6.186   5.093 -0.6808  0.8584  0.3252
14930SOL    HW247145   8.563   6.170   4.960 -0.1333 -0.2999  0.0707
14931SOL     OW47146   7.013   6.982   6.403 -0.7952  0.4564  0.0572
14931SOL    HW147147   7.050   6.889   6.390  2.7908  1.8067  0.0276
14931SOL    HW247148   6.984   6.993   6.498 -2.0431 -0.9520 -0.1456
14932SOL     OW47149   9.218   2.910   3.596 -0.2007 -0.1799 -0.0918
14932SOL    HW147150   9.248   2.840   3.661 -0.5169 -1.1860 -1.0061
14932SOL    HW247151   9.258   2.998   3.621 -0.0503 -0.6187  1.2594
14933SOL     OW47152   3.990   3.008   5.982  0.8271 -0.2428 -0.4912
14933SOL    HW147153   3.939   2.933   5.940 -0.7124  1.0694 -0.9870
14933SOL    HW247154   4.022   3.071   5.911 -0.9819  1.4770  0.1763
14934SOL     OW47155   3.859   0.459   7.258  0.2483  0.1172 -0.2801
14934SOL    HW147156   3.871   0.378   7.202 -1.7490  0.1933 -0.8368
14934SOL    HW247157   3.918   0.532   7.224  0.8397 -0.5829 -0.7697
14936SOL     OW47158   0.192   5.967   4.168  0.6181  0.1782  0.1785
14936SOL    HW147159   0.258   5.903   4.208 -0.3682 -0.9399  0.0406
14936SOL    HW247160   0.232   6.010   4.088  1.6131  0.3830  0.7846
14937SOL     OW47161   8.936   3.383   2.653 -0.1760  0.2290  0.1234
14937SOL    HW147162   8.956   3.399   2.556  1.0792 -0.7069  0.2082
14937SOL    HW247163   8.838   3.374   2.666 -0.3496  0.3154 -1.0798
14938SOL     OW47164   1.657   3.134   1.106  0.0604  0.4603  0.0550
14938SOL    HW147165   1.693   3.225   1.125  1.6531 -0.2542  0.4504
14938SOL    HW247166   1.590   3.141   1.032 -0.3833  2.0571  0.5761
14939SOL     OW47167   2.902   5.741   6.319 -0.0001  0.8333 -0.0247
14939SOL    HW147168   2.854   5.672   6.265  1.0228  1.1447 -1.3606
14939SOL    HW247169   2.871   5.832   6.291 -0.6317  0.9427  1.0403
14940SOL     OW47170   1.181   5.180   6.079  0.0977 -0.2109  0.0681
14940SOL    HW147171   1.087   5.204   6.056 -0.6918 -0.6771  2.6074
14940SOL    HW247172   1.193   5.081   6.075  0.3119 -0.1996  0.3505
14941SOL     OW47173   9.070   5.973   3.433 -0.3071 -0.4614 -0.2987
14941SOL    HW147174   9.114   5.996   3.346 -0.2637  0.1750 -0.1091
14941SOL    HW247175   8.971   5.983   3.424 -0.2205  0.7328  0.0630
14942SOL     OW47176   7.317   6.125   5.447  0.3739  0.0668 -0.2376
14942SOL    HW147177   7.286   6.136   5.542 -0.8462  0.1731 -0.6461
14942SOL    HW247178   7.407   6.168   5.437  0.2183  0.6436  0.7075
14943SOL     OW47179   8.120   8.192   3.347 -0.9136  0.1604  0.1572
14943SOL    HW147180   8.148   8.098   3.366 -2.5990 -0.3093  0.4039
14943SOL    HW247181   8.098   8.201   3.250 -2.2059 -0.1040  0.4158
14945SOL     OW47182   8.799   3.595   3.073 -0.7648 -0.5476  0.2188
14945SOL    HW147183   8.795   3.562   3.167  1.6740  1.3468  1.0540
14945SOL    HW247184   8.817   3.518   3.011  2.0481 -1.2693  1.8284
14946SOL     OW47185   7.252   5.346   0.715  0.1129  0.6414 -0.3361
14946SOL    HW147186   7.331   5.285   0.719 -0.4071 -0.1456 -1.8514
14946SOL    HW247187   7.230   5.378   0.807  0.0701 -1.8796  0.5841
14949SOL     OW47188   8.171   5.776   6.947 -0.3450 -0.4725 -0.0556
14949SOL    HW147189   8.193   5.804   6.853  0.7835  0.6433  0.5322
14949SOL    HW247190   8.232   5.822   7.011 -1.2017 -1.1248  1.2540
14950SOL     OW47191   6.666   5.632   7.907 -0.5340 -0.0676  0.2402
14950SOL    HW147192   6.673   5.691   7.827 -0.5903  0.3153  0.5178
14950SOL    HW247193   6.615   5.550   7.884  0.2607 -0.3967 -0.3707
14951SOL     OW47194   4.306   1.759   7.661 -0.2015 -0.0132  0.1697
14951SOL    HW147195   4.290   1.679   7.719 -2.5887 -0.3673 -0.9066
14951SOL    HW247196   4.231   1.825   7.673 -0.2052  0.3568 -1.7248
14952SOL     OW47197   7.013   9.720   3.760 -0.1151  0.7182 -0.2279
14952SOL    HW147198   7.111   9.723   3.779  0.3035  0.4367 -2.1805
14952SOL    HW247199   6.973   9.639   3.802  1.0782 -0.7761 -1.8951
14953SOL     OW47200   0.137   3.598   1.019  0.1371  0.2587  0.5711
14953SOL    HW147201   0.129   3.505   1.056  2.5684 -0.2922 -0.2183
14953SOL    HW247202   0.095   3.601   0.928  1.7664 -0.5881 -0.2306
14954SOL     OW47203   4.149   8.954   2.978  0.2176  0.8619  0.1294
14954SOL    HW147204   4.103   8.966   3.066  0.4561 -2.3331  0.7496
14954SOL    HW247205   4.230   8.896   2.990 -0.2883 -0.4282 -2.3315
14956SOL     OW47206   3.669   7.828   3.680 -0.8607  0.4517  0.5312
14956SOL    HW147207   3.720   7.900   3.632 -0.7383  1.1203  1.6636
14956SOL    HW247208   3.598   7.792   3.619 -0.8703  1.4703 -0.0761
14957SOL     OW47209   0.219   9.892   1.242  0.6703  0.3970 -0.2591
14957SOL    HW147210   0.180   9.870   1.331 -0.2058  0.6671 -0.5704
14957SOL    HW247211   0.293   9.829   1.222  0.0714 -0.4313  0.1258
14958SOL     OW47212   4.935   9.828   4.931 -0.2061 -0.7811 -0.0926
14958SOL    HW147213   5.024   9.784   4.915 -0.3625 -1.4209  0.7624
14958SOL    HW247214   4.950   9.919   4.969  0.0876 -0.7642 -0.2390
14960SOL     OW47215   1.213   9.924   7.786  0.4576  0.8195 -0.1712
14960SOL    HW147216   1.115   9.907   7.789  0.5038  0.5488 -0.0912
14960SOL    HW247217   1.236   9.978   7.705  0.1398  1.6150  0.2700
14962SOL     OW47218   3.717   6.216   0.537  0.4708  0.5587  0.2983
14962SOL    HW147219   3.710   6.120   0.564  0.8142  0.4199 -0.1194
14962SOL    HW247220   3.741   6.271   0.618  0.5909  0.2576  0.4679
14963SOL     OW47221   9.451   6.845   0.497 -0.1317  0.3309 -0.2572
14963SOL    HW147222   9.462   6.943   0.484 -0.0912  0.1342 -1.7682
14963SOL    HW247223   9.364   6.827   0.544  0.8883  1.2036  2.0298
14964SOL     OW47224   8.081   3.196   4.708 -0.1025 -0.1664 -0.1748
14964SOL    HW147225   8.166   3.204   4.760 -0.5129  0.6125  0.3891
14964SOL    HW247226   8.032   3.283   4.711 -0.7545 -0.5118 -0.7779
14965SOL     OW47227   8.818   9.178   0.308  0.2274 -0.1146 -0.0091
14965SOL    HW147228   8.765   9.159   0.391  1.0217 -1.9078  0.1040
14965SOL    HW247229   8.776   9.132   0.230 -0.0456  0.8905 -0.4676
14966SOL     OW47230   1.589   3.107   2.432  0.3013 -0.2256 -0.2180
14966SOL    HW147231   1.516   3.040   2.444 -0.7488  0.7599 -0.9979
14966SOL    HW247232   1.586   3.143   2.338  1.0340  0.6986  0.1043
14967SOL     OW47233   1.399   6.310   3.206  0.0946 -0.6370 -0.1225
14967SOL    HW147234   1.348   6.274   3.284 -0.0540 -2.0299 -0.8550
14967SOL    HW247235   1.475   6.248   3.184  1.1881  0.6293 -0.0036
14968SOL     OW47236   7.419   2.825   0.889 -0.0150  0.3556  0.0053
14968SOL    HW147237   7.461   2.916   0.883  0.8940 -0.1050 -0.8246
14968SOL    HW247238   7.432   2.777   0.802  0.7044 -1.0780  0.8949
14969SOL     OW47239   2.810   3.011   1.760 -0.3142  0.4121  0.7170
14969SOL    HW147240   2.795   3.016   1.661 -0.4863  1.7266  0.7908
14969SOL    HW247241   2.740   2.953   1.802 -0.1604 -0.2607  0.0543
14970SOL     OW47242   1.504   5.840   4.653 -0.6326 -0.4512  0.0960
14970SOL    HW147243   1.452   5.898   4.590 -1.1569 -0.2587  0.7009
14970SOL    HW247244   1.442   5.795   4.716 -0.1911 -1.3763 -0.1107
14972SOL     OW47245   4.657   7.481   0.488  0.3106 -0.3458  0.3035
14972SOL    HW147246   4.733   7.545   0.476  1.1644 -1.1745  1.1629
14972SOL    HW247247   4.687   7.389   0.464  0.0857 -0.9368  2.2019
14973SOL     OW47248   8.215   8.178   0.309  0.1117 -0.1658 -0.0472
14973SOL    HW147249   8.237   8.086   0.342  0.7694 -0.5917 -1.6410
14973SOL    HW247250   8.249   8.189   0.216  2.9421  2.7901  1.2351
14974SOL     OW47251   0.064   8.982   1.974  0.6829  0.1651  0.4291
14974SOL    HW147252   0.041   9.006   1.879  1.2621  0.3178  0.3292
14974SOL    HW247253  -0.014   8.935   2.016  1.1679 -1.7287 -0.7450
14975SOL     OW47254   1.937   5.580   0.794  0.4796  0.2182  0.7539
14975SOL    HW147255   1.933   5.654   0.862 -0.9229  1.7395 -0.9203
14975SOL    HW247256   1.856   5.522   0.804 -0.0366  0.8042 -0.0069
14976SOL     OW47257   2.083   3.305   1.004 -0.2479 -0.2974 -0.2273
14976SOL    HW147258   1.988   3.310   0.972 -0.0950 -0.1861 -0.6753
14976SOL    HW247259   2.137   3.374   0.955 -0.0874  0.1375  0.5591
14977SOL     OW47260   4.096   8.133   4.056 -0.1338 -0.5355  0.0111
14977SOL    HW147261   4.122   8.155   3.963  0.8232  0.8261  0.5843
14977SOL    HW247262   4.128   8.040   4.078  1.1387 -0.2291 -0.4739
14978SOL     OW47263   7.599   2.728   2.166 -0.5605 -0.4200 -0.7679
14978SOL    HW147264   7.507   2.703   2.135 -1.0473 -0.8768  0.9639
14978SOL    HW247265   7.662   2.654   2.143 -1.3904 -1.8753  1.4820
14979SOL     OW47266   6.736   1.497   4.028 -0.0723 -0.0044 -0.2639
14979SOL    HW147267   6.815   1.435   4.035  0.5620  0.7550 -0.5990
14979SOL    HW247268   6.680   1.471   3.950  0.4141  0.0882 -0.6479
14980SOL     OW47269   6.811   0.622   0.534 -0.0880 -0.7473 -0.3263
14980SOL    HW147270   6.737   0.689   0.532 -0.3480 -1.0285 -0.1374
14980SOL    HW247271   6.800   0.558   0.457 -0.0751 -0.8273 -0.2616
14981SOL     OW47272   9.704   9.697   2.567  0.4845  0.0770 -0.0084
14981SOL    HW147273   9.679   9.636   2.642  0.9855 -0.5841 -0.3694
14981SOL    HW247274   9.624   9.712   2.508  0.2853 -0.0018  0.2397
14982SOL     OW47275   3.396   9.545   0.119  0.2626 -0.2099  0.1596
14982SOL    HW147276   3.403   9.508   0.212 -0.6507  1.0798  0.7482
14982SOL    HW247277   3.300   9.543   0.089  0.1355  2.0303  0.3488
14983SOL     OW47278   6.724   0.235   1.336 -0.4828  0.2142  0.1008
14983SOL    HW147279   6.747   0.326   1.370  1.4574  0.5737 -2.0729
14983SOL    HW247280   6.804   0.194   1.292 -1.9984 -1.5741 -1.0864
14984SOL     OW47281   5.529   2.584   0.554 -0.1571  0.8204  0.0877
14984SOL    HW147282   5.453   2.609   0.495 -0.1036 -0.5850 -0.5924
14984SOL    HW247283   5.510   2.497   0.599  0.1871  1.4426  1.4627
14985SOL     OW47284   9.935   2.706   0.112  0.4475 -0.0297  0.1478
14985SOL    HW147285   9.989   2.623   0.122  1.2687  0.5524  0.6314
14985SOL    HW247286   9.963   2.754   0.029 -0.7130 -0.7237 -0.6728
14986SOL     OW47287   9.638   2.268   0.360 -0.1886 -0.4144 -0.0963
14986SOL    HW147288   9.553   2.251   0.312 -0.8693 -1.0122  1.2806
14986SOL    HW247289   9.631   2.353   0.412  0.0874 -0.3959 -0.0884
14987SOL     OW47290   8.789   6.488   5.816  0.4424  0.2775  0.9275
14987SOL    HW147291   8.746   6.404   5.847 -1.8643  1.3118  0.6576
14987SOL    HW247292   8.873   6.504   5.867 -0.7779 -0.5350  3.2269
14988SOL     OW47293   0.589   7.501   5.287  0.2134 -0.0260  0.7507
14988SOL    HW147294   0.598   7.504   5.188 -0.0341 -0.5808  0.7125
14988SOL    HW247295   0.583   7.406   5.318  0.9281  0.1133  1.3523
14990SOL     OW47296   4.340   7.633   4.306 -0.0021  0.5077  0.6949
14990SOL    HW147297   4.353   7.542   4.347  0.4276  0.0246 -0.4761
14990SOL    HW247298   4.243   7.654   4.301 -0.2332 -0.7232 -0.7361
14991SOL     OW47299   1.944   6.211   4.468 -0.1534  0.2237 -0.3981
14991SOL    HW147300   1.854   6.216   4.425 -0.2345  1.3289 -0.1224
14991SOL    HW247301   1.935   6.174   4.560 -0.5116  1.5089  0.1017
14996SOL     OW47302   9.352   4.472   2.356 -0.3607  0.1840  0.2787
14996SOL    HW147303   9.388   4.386   2.391 -0.1064  0.3132  0.3323
14996SOL    HW247304   9.252   4.467   2.354 -0.3271 -0.3194 -0.2521
14999SOL     OW47305   1.203   3.789   1.545  0.0240  0.3455 -0.3487
14999SOL    HW147306   1.107   3.767   1.561 -0.2593  1.1357 -0.9350
14999SOL    HW247307   1.244   3.821   1.630 -0.4009  0.6163 -0.2410
15000SOL     OW47308   9.564   3.420   3.457 -1.1639  0.5482 -0.2664
15000SOL    HW147309   9.509   3.502   3.473  0.4439  1.5774  0.1169
15000SOL    HW247310   9.636   3.414   3.527 -0.4280 -0.4439 -1.0958
15001SOL     OW47311   8.335   0.219   7.842  0.1857  0.2277 -0.3364
15001SOL    HW147312   8.369   0.182   7.929 -2.5283 -1.3777  0.1285
15001SOL    HW247313   8.351   0.153   7.769 -1.8988 -0.6222 -0.0830
15002SOL     OW47314   1.459   6.119   0.700  0.0435  0.4859  0.0903
15002SOL    HW147315   1.433   6.096   0.607  0.4151  1.5574 -0.2844
15002SOL    HW247316   1.559   6.122   0.707  0.0219  0.0406  0.6143
15003SOL     OW47317   9.617   1.770   2.174  0.1548 -0.2098 -0.3606
15003SOL    HW147318   9.549   1.755   2.246 -0.7814  1.2545 -0.8976
15003SOL    HW247319   9.684   1.696   2.175 -0.5177 -0.8321  1.2402
15005SOL     OW47320   9.680   9.166   0.987  0.1447 -0.1143 -0.2228
15005SOL    HW147321   9.590   9.129   1.006 -0.0850 -0.0567 -1.1849
15005SOL    HW247322   9.737   9.160   1.070 -1.7127  2.7624  1.3389
15006SOL     OW47323   1.247   4.628   1.343  0.0658 -0.3232 -0.0668
15006SOL    HW147324   1.303   4.626   1.260 -1.8935  0.6068 -1.4581
15006SOL    HW247325   1.295   4.679   1.414  1.1263  0.1744 -1.1229
15007SOL     OW47326   4.157   7.338   0.897 -0.1064  0.0728  0.4510
15007SOL    HW147327   4.255   7.351   0.878 -0.4212  0.3441 -1.0620
15007SOL    HW247328   4.104   7.390   0.830 -1.3197 -2.5131 -0.6415
15008SOL     OW47329   0.391   1.369   0.847  0.4050 -0.2296 -0.0288
15008SOL    HW147330   0.311   1.423   0.819 -0.2917 -0.8130  0.7881
15008SOL    HW247331   0.395   1.285   0.793 -1.4578 -1.7907  2.1419
15009SOL     OW47332   4.432   8.802   1.881  0.2768  1.4638  0.4790
15009SOL    HW147333   4.429   8.791   1.981 -2.0434  0.2315  0.3108
15009SOL    HW247334   4.485   8.728   1.841 -1.2585  0.2808  0.6020
15011SOL     OW47335   0.826   7.457   1.777 -0.3556  0.0102 -0.0849
15011SOL    HW147336   0.782   7.515   1.846 -0.2778 -1.0037  0.8214
15011SOL    HW247337   0.757   7.396   1.736 -0.4081  0.6341 -0.9311
15013SOL     OW47338   0.799   5.830   7.897 -0.0677  0.1631 -0.0328
15013SOL    HW147339   0.862   5.830   7.820 -0.1116 -0.1652 -0.0693
15013SOL    HW247340   0.791   5.737   7.934 -0.0671  0.3145  0.3494
15014SOL     OW47341   3.145   1.007   0.949 -0.6105 -0.6698  0.8015
15014SOL    HW147342   3.103   0.918   0.937  0.3972 -1.1733  0.9387
15014SOL    HW247343   3.241   1.003   0.920 -0.2426  0.0664  1.8891
15015SOL     OW47344   0.183   4.025   6.613 -0.1639  0.1394 -0.5225
15015SOL    HW147345   0.245   4.070   6.678  0.8984 -2.0098 -0.0131
15015SOL    HW247346   0.183   4.076   6.527  0.6177  1.4113  0.2151
15017SOL     OW47347   1.515   9.752   2.354 -0.5875  0.5889  0.4655
15017SOL    HW147348   1.534   9.822   2.423  0.8592 -0.1652  0.8664
15017SOL    HW247349   1.601   9.718   2.318 -1.2593 -1.3891  0.6903
15018SOL     OW47350   5.679   0.467   1.295 -0.5642 -0.0037  0.2090
15018SOL    HW147351   5.592   0.513   1.285 -0.0197  1.1728  0.8015
15018SOL    HW247352   5.749   0.533   1.322  0.9343 -0.5617 -2.1530
15019SOL     OW47353   0.032   8.119   3.215 -0.3305 -0.2586  0.1341
15019SOL    HW147354   0.008   8.206   3.173  0.5317 -0.0454  0.0743
15019SOL    HW247355   0.017   8.124   3.314  2.0219  0.7819  0.4735
15021SOL     OW47356   1.490   1.945   4.772  0.2980  0.0851  0.0743
15021SOL    HW147357   1.404   1.924   4.817 -0.1605  3.0016  0.6699
15021SOL    HW247358   1.538   2.016   4.823  1.4781  0.9037 -2.0818
15022SOL     OW47359   7.134   3.248   3.296  0.7065  0.3754  0.1525
15022SOL    HW147360   7.094   3.335   3.270  0.9356  1.0019  1.7963
15022SOL    HW247361   7.073   3.201   3.360  0.2465 -1.0208 -1.2693
15023SOL     OW47362   5.972   8.901   2.770 -0.4725 -0.0769 -0.7879
15023SOL    HW147363   6.038   8.972   2.747 -0.7011 -0.0547 -1.3984
15023SOL    HW247364   5.879   8.935   2.754 -0.6089 -0.2709 -0.4052
15025SOL     OW47365   4.024   4.072   5.781 -0.8534 -0.1975 -0.0507
15025SOL    HW147366   4.082   4.148   5.810 -0.0079 -0.6129 -0.6163
15025SOL    HW247367   4.021   4.068   5.681 -0.6821 -1.0621 -0.0271
15027SOL     OW47368   4.578   3.880   4.937 -0.1182  0.3353 -0.4923
15027SOL    HW147369   4.669   3.859   4.973  0.2117  2.0963 -0.2196
15027SOL    HW247370   4.558   3.977   4.952 -1.3507  0.3574 -2.0898
15028SOL     OW47371   7.419   2.627   5.014 -0.6179  0.3502  0.1443
15028SOL    HW147372   7.470   2.713   5.012  0.1855 -0.0941  1.2754
15028SOL    HW247373   7.470   2.558   5.065 -0.5248 -1.2733 -2.0527
15029SOL     OW47374   4.008   4.519   6.495 -0.3122 -0.6252 -0.0506
15029SOL    HW147375   4.014   4.615   6.520  0.5222 -0.4185 -1.0022
15029SOL    HW247376   3.928   4.505   6.437  0.1067 -0.3239 -0.7037
15030SOL     OW47377   1.028   5.652   3.976  0.2678  0.0993 -0.1769
15030SOL    HW147378   1.011   5.729   3.914  2.0315  1.0667  0.5078
15030SOL    HW247379   1.105   5.599   3.942  0.3317 -0.1951  0.4345
15031SOL     OW47380   1.912   6.679   7.291  0.2609 -0.3270  0.2026
15031SOL    HW147381   1.817   6.691   7.320 -0.0051 -0.0721 -0.7516
15031SOL    HW247382   1.915   6.663   7.192  1.0953 -1.8769  0.4563
15032SOL     OW47383   8.358   8.219   5.305  0.1825 -0.8908 -0.0279
15032SOL    HW147384   8.376   8.309   5.344  1.4762 -1.6967  1.2780
15032SOL    HW247385   8.344   8.227   5.206  1.4771  0.5646 -0.0983
15033SOL     OW47386   9.468   1.555   2.380  0.2076 -0.0340  0.2228
15033SOL    HW147387   9.392   1.619   2.394 -0.0532 -0.0405 -1.0492
15033SOL    HW247388   9.533   1.563   2.455 -0.9855  0.0669  1.2639
15034SOL     OW47389   9.428   3.749   7.070 -0.1042  0.0646 -0.4668
15034SOL    HW147390   9.483   3.736   6.987 -0.5568 -0.6033 -0.6628
15034SOL    HW247391   9.481   3.718   7.150  0.1258  0.2105 -0.5619
15035SOL     OW47392   9.215   6.117   3.942 -0.4013 -0.4551  0.4319
15035SOL    HW147393   9.185   6.095   3.849  0.5591 -1.3658  0.3329
15035SOL    HW247394   9.306   6.158   3.940 -0.5827 -0.0162  0.9303
15037SOL     OW47395   6.914   5.387   2.869 -0.2616 -0.1634 -0.2490
15037SOL    HW147396   6.946   5.469   2.821  0.3980  0.4313  1.1744
15037SOL    HW247397   6.849   5.337   2.811 -1.1696  1.7018 -0.8590
15038SOL     OW47398   3.988   8.858   6.093 -0.2422 -0.2635  0.0498
15038SOL    HW147399   4.019   8.941   6.047 -0.2678  0.1672  0.7983
15038SOL    HW247400   3.901   8.828   6.054 -0.2257  0.0516 -0.2308
15039SOL     OW47401   8.224   0.298   7.495 -0.0487 -0.0837 -0.5536
15039SOL    HW147402   8.140   0.325   7.542  1.6494  3.2935  0.7368
15039SOL    HW247403   8.281   0.243   7.557 -0.5209 -0.9095 -0.8409
15040SOL     OW47404   8.981   9.625   3.143 -0.0349  0.0580  0.7854
15040SOL    HW147405   9.074   9.634   3.179 -0.0770  0.7692  0.7321
15040SOL    HW247406   8.955   9.710   3.097 -0.0037 -0.8034 -0.8609
15041SOL     OW47407   9.298   1.898   2.995 -0.0883 -0.0942  0.4444
15041SOL    HW147408   9.288   1.966   2.923 -0.7440 -0.1464  0.4841
15041SOL    HW247409   9.223   1.832   2.989 -1.2820  1.0153  2.3649
15042SOL     OW47410   6.943   4.857   2.791  0.0746 -0.3487  0.1149
15042SOL    HW147411   6.929   4.842   2.889  1.5057  1.6107  0.6319
15042SOL    HW247412   6.977   4.949   2.775 -0.7164 -0.4429 -2.2992
15043SOL     OW47413   0.323   6.852   5.785  0.2252  0.1402  0.1611
15043SOL    HW147414   0.334   6.795   5.866  0.1540 -0.3556 -0.1739
15043SOL    HW247415   0.225   6.865   5.766  0.2393  1.5815  1.0775
15044SOL     OW47416   2.915   5.210   3.961  0.2284 -0.4103 -0.0540
15044SOL    HW147417   2.998   5.265   3.955 -0.3453  0.5520  0.7317
15044SOL    HW247418   2.923   5.145   4.036 -0.6837  1.3395  1.5920
15045SOL     OW47419   0.149   0.430   3.866  1.0281 -0.2487 -0.4023
15045SOL    HW147420   0.166   0.333   3.881  0.8955 -0.1957  0.1029
15045SOL    HW247421   0.142   0.448   3.768 -0.9145 -1.0850 -0.4504
15046SOL     OW47422   9.716   4.598   2.947 -0.6140  0.2329 -0.1672
15046SOL    HW147423   9.714   4.672   3.014 -1.3661  0.5297 -0.5128
15046SOL    HW247424   9.810   4.570   2.931 -0.4834 -0.4449  1.6865
15048SOL     OW47425   7.822   6.106   2.622  0.0247  0.0550  0.0558
15048SOL    HW147426   7.879   6.031   2.590  1.5559  0.4152  1.8365
15048SOL    HW247427   7.827   6.182   2.557 -0.5577 -0.9177 -1.1285
15049SOL     OW47428   7.360   6.351   7.164  0.2728  0.3113  0.0479
15049SOL    HW147429   7.291   6.387   7.100 -0.4145 -1.1613 -0.0489
15049SOL    HW247430   7.384   6.423   7.230  0.2160  1.5080 -1.2143
15050SOL     OW47431   8.139   8.432   2.914 -0.0606 -0.4763  0.7307
15050SOL    HW147432   8.097   8.518   2.885 -1.0558 -0.4938  2.0866
15050SOL    HW247433   8.151   8.372   2.835 -0.3269  0.4925 -0.0507
15051SOL     OW47434   2.287   6.390   7.337 -0.0441 -0.1629 -0.0820
15051SOL    HW147435   2.210   6.442   7.372 -1.0932 -1.2862 -0.6869
15051SOL    HW247436   2.293   6.402   7.238 -0.3471 -1.2322 -0.2409
15052SOL     OW47437   2.794   7.112   1.588 -0.2722  0.1353 -0.4302
15052SOL    HW147438   2.697   7.087   1.593  0.1668 -1.6145 -0.5351
15052SOL    HW247439   2.834   7.107   1.679 -0.1312  0.3116 -0.4822
15054SOL     OW47440   7.822   8.401   3.491  0.1644 -1.1462 -0.0983
15054SOL    HW147441   7.855   8.318   3.445 -0.7339 -1.3316 -0.4230
15054SOL    HW247442   7.874   8.416   3.575  0.7451 -1.6999 -0.3613
15056SOL     OW47443   2.407   2.601   3.418 -0.2348  0.0741 -0.3998
15056SOL    HW147444   2.366   2.687   3.389 -2.1488  0.2155  2.5795
15056SOL    HW247445   2.471   2.618   3.493 -0.5729 -1.0830  0.1675
15058SOL     OW47446   6.571   0.769   7.703  0.2317 -0.0086  0.0756
15058SOL    HW147447   6.496   0.788   7.639  0.4615  1.5753  0.2759
15058SOL    HW247448   6.575   0.670   7.720 -0.0262 -0.4173 -2.1135
15059SOL     OW47449   1.781   5.007   6.585 -0.5392 -0.6142 -0.3211
15059SOL    HW147450   1.705   4.989   6.647 -0.0217  0.7901  0.7490
15059SOL    HW247451   1.866   4.977   6.628 -0.2011  0.1812 -0.4170
15061SOL     OW47452   9.639   3.241   4.408 -0.1408 -0.0673  0.0386
15061SOL    HW147453   9.620   3.143   4.405  0.7349 -0.2742  0.9656
15061SOL    HW247454   9.648   3.270   4.503 -3.1484  1.4792 -0.1155
15062SOL     OW47455   9.752   2.238   5.127  0.2451  0.8046  0.2568
15062SOL    HW147456   9.742   2.251   5.028 -2.4086 -0.0099  0.3713
15062SOL    HW247457   9.744   2.141   5.148  0.9006  0.9653  1.2918
15063SOL     OW47458   6.799   1.888   2.378  0.6168 -0.4434 -0.1865
15063SOL    HW147459   6.842   1.974   2.352 -0.8844 -0.0047 -1.2445
15063SOL    HW247460   6.707   1.905   2.411  0.4737 -1.6107  0.0348
15064SOL     OW47461   7.992   9.115   2.631  0.4243  0.6477 -0.5344
15064SOL    HW147462   7.908   9.167   2.618  0.3315  0.5225 -0.4416
15064SOL    HW247463   8.007   9.054   2.553 -1.0547 -1.3800  0.7337
15066SOL     OW47464   2.560   2.370   5.300 -0.1126  0.3874  0.4437
15066SOL    HW147465   2.552   2.391   5.397  0.8845  0.6794  0.4687
15066SOL    HW247466   2.534   2.275   5.284  1.0286 -0.0622  1.2043
15067SOL     OW47467   3.699   6.442   7.081  0.3752  0.4661 -0.3648
15067SOL    HW147468   3.669   6.395   6.998  0.1964  2.2694 -1.3540
15067SOL    HW247469   3.620   6.458   7.140  0.7910 -2.5762  1.1223
15068SOL     OW47470   8.784   3.146   7.845 -0.1235  0.1748  0.0608
15068SOL    HW147471   8.878   3.114   7.855 -0.0474 -0.2650 -1.8431
15068SOL    HW247472   8.727   3.106   7.917  1.2597  0.9565  1.6204
15069SOL     OW47473   3.269   9.376   7.457 -0.2761 -0.3132  0.6329
15069SOL    HW147474   3.348   9.378   7.395  0.4469  0.2175  1.5732
15069SOL    HW247475   3.245   9.469   7.484 -1.9257 -0.3821 -0.5131
15071SOL     OW47476   2.326   9.440   3.038  0.2739 -0.2640 -0.0644
15071SOL    HW147477   2.378   9.507   3.091 -1.5430 -0.4068  1.9775
15071SOL    HW247478   2.354   9.348   3.065 -1.2369 -0.3490  1.3514
15072SOL     OW47479   8.844   4.846   3.262  0.3943 -0.4290  0.1146
15072SOL    HW147480   8.884   4.771   3.209  1.0021  0.2231 -0.3551
15072SOL    HW247481   8.886   4.932   3.235 -0.3936  0.1027  0.5630
15075SOL     OW47482   3.520   9.702   7.897 -0.2084  0.1291 -0.2526
15075SOL    HW147483   3.434   9.701   7.947  0.0290  0.8884  0.1752
15075SOL    HW247484   3.558   9.794   7.897  0.8348 -0.2908 -0.0409
15076SOL     OW47485   7.916   4.453   5.541 -0.6450 -0.2193  0.6193
15076SOL    HW147486   7.824   4.422   5.520 -0.6450 -0.8937  1.5759
15076SOL    HW247487   7.981   4.408   5.479 -0.5503 -2.8804  2.5585
15077SOL     OW47488   3.869   7.282   2.635 -0.5492  0.3217 -0.3070
15077SOL    HW147489   3.893   7.187   2.616 -1.3952 -0.1081  0.7231
15077SOL    HW247490   3.812   7.317   2.560 -1.7271 -0.5481  0.1590
15078SOL     OW47491   2.167   6.555   3.707 -0.1097  0.0917  0.4456
15078SOL    HW147492   2.191   6.482   3.643  0.3935  0.2707  0.4294
15078SOL    HW247493   2.209   6.536   3.796 -0.5960 -0.0225  0.6543
15080SOL     OW47494   6.240   0.912   3.609  0.0108  0.0736  0.4029
15080SOL    HW147495   6.244   0.962   3.695  1.3397  1.9884 -0.7313
15080SOL    HW247496   6.145   0.904   3.579 -0.1809  2.5814  0.2681
15081SOL     OW47497   5.079   1.814   0.577  0.0354  0.2274 -0.4507
15081SOL    HW147498   5.145   1.889   0.592 -1.0608  0.6864  2.4558
15081SOL    HW247499   5.126   1.727   0.588  0.6855  0.5136 -0.8750
15082SOL     OW47500   0.241   7.370   4.479 -0.4104  0.2776  0.6195
15082SOL    HW147501   0.331   7.345   4.513 -0.3797  0.1036  0.4142
15082SOL    HW247502   0.210   7.453   4.523 -0.2516  0.2043  0.8673
15083SOL     OW47503   4.240   3.323   4.321 -0.2721  0.3253 -0.4109
15083SOL    HW147504   4.273   3.234   4.287  0.6947  0.2808  0.6230
15083SOL    HW247505   4.205   3.377   4.245  0.3797 -0.4196 -1.2447
15085SOL     OW47506   2.389   8.223   4.255  0.3286  0.2280 -0.2394
15085SOL    HW147507   2.316   8.154   4.259  1.3575 -0.8375  0.6036
15085SOL    HW247508   2.466   8.186   4.203  0.5858  1.0528 -0.4450
15086SOL     OW47509   9.098   2.985   0.469  0.6060  0.7330  0.1244
15086SOL    HW147510   9.150   2.901   0.488 -1.8795 -1.0359 -0.5800
15086SOL    HW247511   9.098   3.001   0.370  0.6889  1.2880  0.2175
15087SOL     OW47512   5.593   1.412   3.696  0.0460  0.1819  0.4138
15087SOL    HW147513   5.603   1.392   3.599 -1.0390 -0.5241  0.4375
15087SOL    HW247514   5.496   1.413   3.720  0.2525  1.5117  1.2538
15088SOL     OW47515   1.852   1.530   2.686  0.0900 -0.1607  0.2490
15088SOL    HW147516   1.900   1.503   2.603  0.1681  2.8355 -0.7527
15088SOL    HW247517   1.905   1.502   2.766  1.1488 -1.0440 -0.7377
15089SOL     OW47518   0.554   2.940   0.322  0.1570 -0.4810 -0.5963
15089SOL    HW147519   0.554   3.002   0.244 -1.4186  1.9168  1.2594
15089SOL    HW247520   0.464   2.899   0.333 -0.0032  0.1839  0.7038
15090SOL     OW47521   4.828   7.888   0.850  0.0755 -0.0646  0.0176
15090SOL    HW147522   4.870   7.806   0.812  1.1232  0.0346  0.9353
15090SOL    HW247523   4.777   7.936   0.778  0.3706 -0.9261 -0.7779
15092SOL     OW47524   3.536   6.205   5.857  0.4511  0.4549 -0.4713
15092SOL    HW147525   3.607   6.135   5.861  0.4439  0.4441 -0.5509
15092SOL    HW247526   3.469   6.189   5.930  1.5719  1.5747  0.8387
15094SOL     OW47527   6.704   3.731   2.797 -0.2582  0.5150  0.0991
15094SOL    HW147528   6.740   3.652   2.747 -1.1827  0.1271  0.0297
15094SOL    HW247529   6.778   3.776   2.847  0.3255 -0.2283 -0.0882
15095SOL     OW47530   4.593   5.537   4.127 -0.4873 -0.3249 -0.5146
15095SOL    HW147531   4.689   5.508   4.120 -0.4573 -0.0050 -1.5359
15095SOL    HW247532   4.585   5.608   4.197 -0.0917 -0.8333  0.0508
15096SOL     OW47533   0.600   1.518   0.957 -0.0966 -0.1392 -0.3545
15096SOL    HW147534   0.553   1.607   0.955  1.6526  0.8243  0.6914
15096SOL    HW247535   0.549   1.453   0.900 -0.6010  1.9332 -2.3533
15097SOL     OW47536   6.207   1.568   5.264  0.1241 -0.6463 -0.2274
15097SOL    HW147537   6.253   1.512   5.195  0.1825  0.3198 -0.9819
15097SOL    HW247538   6.270   1.638   5.297 -0.4867  0.0632 -0.5531
15098SOL     OW47539   4.438   9.001   5.206  0.2658  0.0811 -0.2806
15098SOL    HW147540   4.453   9.091   5.247  0.5198  0.4012 -1.0619
15098SOL    HW247541   4.481   8.998   5.116 -2.4192  0.2655 -1.6347
15099SOL     OW47542   4.317   8.936   3.985  0.2085  0.3207 -0.2947
15099SOL    HW147543   4.331   8.840   4.007  0.5394  0.3939 -0.1868
15099SOL    HW247544   4.278   8.944   3.893 -0.5879  0.0463  0.0125
15100SOL     OW47545   4.293   5.185   3.109 -0.3409 -0.1138 -0.3006
15100SOL    HW147546   4.384   5.144   3.116 -0.2252  0.1263 -0.3668
15100SOL    HW247547   4.258   5.205   3.200 -1.1123 -1.9068 -0.2003
15101SOL     OW47548   0.387   5.636   3.758 -0.1658  0.5485 -0.0182
15101SOL    HW147549   0.402   5.554   3.703 -1.8957  0.4308 -0.3319
15101SOL    HW247550   0.403   5.614   3.855 -0.8540 -0.2256 -0.0749
15103SOL     OW47551   9.452   2.659   5.328 -0.1245 -0.0065 -0.0369
15103SOL    HW147552   9.468   2.583   5.265 -0.1644 -1.8896  2.1632
15103SOL    HW247553   9.532   2.719   5.328  1.1898 -1.7025  0.4176
15105SOL     OW47554   8.623   5.594   4.667  0.1876  0.3960  0.1091
15105SOL    HW147555   8.608   5.495   4.668  0.3872  0.2665 -3.5831
15105SOL    HW247556   8.535   5.641   4.663  0.1564  0.3155 -0.1434
15106SOL     OW47557   2.957   8.714   7.537  0.5863 -0.3513 -0.2317
15106SOL    HW147558   3.029   8.768   7.581  0.8444 -1.4529  0.7129
15106SOL    HW247559   2.982   8.617   7.539 -0.6953 -0.6895 -0.3410
15107SOL     OW47560   3.917   2.770   7.427 -0.2674 -0.2345  0.1639
15107SOL    HW147561   3.928   2.673   7.407 -0.1128 -0.0105 -0.8847
15107SOL    HW247562   3.984   2.799   7.495  0.0755 -0.7310  0.0335
15108SOL     OW47563   2.041   6.043   2.562 -0.2979  0.1911 -0.5016
15108SOL    HW147564   1.989   6.128   2.576  0.1289  0.1355  1.6300
15108SOL    HW247565   2.133   6.055   2.598  0.1660 -0.7553 -1.3861
15109SOL     OW47566   1.645   6.778   1.665 -0.0505 -0.1970  0.3979
15109SOL    HW147567   1.557   6.738   1.691 -0.1459 -0.0908  0.2308
15109SOL    HW247568   1.703   6.784   1.747  0.2770 -1.4739  0.2659
15110SOL     OW47569   6.710   3.869   1.023 -0.1118 -0.5862  0.5787
15110SOL    HW147570   6.676   3.852   0.931  0.1305 -0.5450  0.4805
15110SOL    HW247571   6.698   3.787   1.079 -0.7807 -0.4262  0.6716
15111SOL     OW47572   4.686   9.287   5.562  0.0415  0.4066  0.4991
15111SOL    HW147573   4.616   9.225   5.599  1.7895 -1.8849  0.0951
15111SOL    HW247574   4.768   9.282   5.618  1.3422 -0.1142 -1.4219
15112SOL     OW47575   3.551   8.405   1.066 -0.4405 -0.2200 -0.2878
15112SOL    HW147576   3.478   8.341   1.043  0.4227 -0.5515 -2.2039
15112SOL    HW247577   3.637   8.372   1.029  0.2977  1.2777  0.0438
15113SOL     OW47578   0.272   8.277   7.627 -0.2442  0.0948  0.2304
15113SOL    HW147579   0.273   8.298   7.529  0.9932 -0.5425  0.1082
15113SOL    HW247580   0.331   8.199   7.646 -2.2501 -1.2387  1.1754
15114SOL     OW47581   6.620   8.209   3.730  0.0251  0.3102 -0.6751
15114SOL    HW147582   6.701   8.243   3.777 -0.9475  1.7722 -0.0112
15114SOL    HW247583   6.623   8.109   3.727  1.7017  0.3377 -0.4282
15115SOL     OW47584   9.967   5.394   7.077  1.0836  0.0499  0.0826
15115SOL    HW147585   9.931   5.444   6.998  2.5537 -2.6699 -2.4174
15115SOL    HW247586   9.930   5.433   7.161 -3.0358  1.0376 -2.0543
15116SOL     OW47587   9.950   8.603   0.904 -0.6510 -0.3037 -0.5267
15116SOL    HW147588   9.927   8.700   0.890  0.8763  0.1049 -0.3495
15116SOL    HW247589   9.901   8.568   0.983 -1.2538  0.3125 -0.6207
15117SOL     OW47590   5.803   7.541   5.440  0.0116  0.5810 -0.1406
15117SOL    HW147591   5.767   7.634   5.428  0.4492  1.2010  3.0523
15117SOL    HW247592   5.728   7.478   5.461  0.0168  0.6797  0.1748
15118SOL     OW47593   6.668   7.352   5.622  0.2627 -0.0724  0.2051
15118SOL    HW147594   6.709   7.411   5.552 -0.9811  1.4835  0.7588
15118SOL    HW247595   6.739   7.325   5.688  1.0166  0.1374 -0.5080
15119SOL     OW47596   2.486   5.867   7.514  0.4244  0.1060 -0.2406
15119SOL    HW147597   2.493   5.944   7.577  2.9322 -0.0776 -0.2576
15119SOL    HW247598   2.513   5.783   7.561 -0.7017 -0.5269 -0.6917
15120SOL     OW47599   1.369   6.211   6.720  0.3357  0.3724 -0.3103
15120SOL    HW147600   1.459   6.241   6.687  1.1322  1.3732  2.6072
15120SOL    HW247601   1.298   6.267   6.678  1.2360  0.9639 -1.0659
15121SOL     OW47602   4.239   7.882   1.622  0.1778 -0.8381 -0.0505
15121SOL    HW147603   4.196   7.950   1.562 -0.5127 -2.1370 -1.0549
15121SOL    HW247604   4.220   7.906   1.718 -0.6859 -0.0149 -0.4113
15122SOL     OW47605   1.080   4.605   0.107 -0.3384  0.5640  0.0601
15122SOL    HW147606   1.104   4.615   0.204  2.7762  0.0908 -0.6090
15122SOL    HW247607   1.067   4.696   0.067  0.3081  0.8450  0.4715
15123SOL     OW47608   8.081   5.339   2.399 -0.0104  0.9232  0.5322
15123SOL    HW147609   8.029   5.415   2.360 -0.9142  0.3399  0.5669
15123SOL    HW247610   8.047   5.320   2.492 -0.7862 -0.4422 -0.0153
15125SOL     OW47611   8.641   0.260   7.324  1.1036 -0.1229  0.1933
15125SOL    HW147612   8.713   0.251   7.393  0.5893  0.1684  0.7772
15125SOL    HW247613   8.611   0.355   7.320  1.7965  0.0549 -1.1181
15127SOL     OW47614   9.119   5.520   2.950  0.2427 -0.2151  0.0914
15127SOL    HW147615   9.095   5.494   3.043 -2.3227  0.2523 -0.3975
15127SOL    HW247616   9.102   5.618   2.937 -1.2168 -0.6338 -1.3669
15128SOL     OW47617   2.238   8.806   4.121  0.1540  0.3518 -0.4687
15128SOL    HW147618   2.222   8.809   4.219 -0.7099  0.9755 -0.6267
15128SOL    HW247619   2.335   8.822   4.102  0.2745  0.4710  0.2599
15129SOL     OW47620   1.793   1.883   5.400 -0.6529  0.1318  0.6685
15129SOL    HW147621   1.722   1.924   5.458  0.6183  1.5579  1.2599
15129SOL    HW247622   1.844   1.956   5.354 -0.1882 -0.9154 -0.5151
15130SOL     OW47623   7.831   6.351   5.556 -0.0701  0.0548  0.2170
15130SOL    HW147624   7.920   6.392   5.537  0.3975 -1.3638 -0.7153
15130SOL    HW247625   7.818   6.341   5.654  1.4362 -1.0921  0.3098
15131SOL     OW47626   0.737   3.968   0.689 -0.3291  0.4141  0.4167
15131SOL    HW147627   0.824   4.018   0.691  0.0626 -0.1078 -1.9364
15131SOL    HW247628   0.744   3.891   0.626 -3.0901  1.5190 -1.3490
15132SOL     OW47629   2.887   1.021   1.838 -0.2957  0.0683  0.0207
15132SOL    HW147630   2.980   1.051   1.858 -0.8020  0.0851  2.5206
15132SOL    HW247631   2.882   0.989   1.743  1.9953  0.9994 -0.4505
15133SOL     OW47632   8.717   4.134   3.349  0.3440 -0.5688 -0.5314
15133SOL    HW147633   8.766   4.221   3.342 -0.3751 -0.2766 -2.1284
15133SOL    HW247634   8.778   4.066   3.390  0.8256  0.7260  0.9878
15134SOL     OW47635   0.094   9.174   7.760  0.3820 -0.1071  0.7169
15134SOL    HW147636   0.117   9.238   7.687 -2.0395  0.5258  0.4731
15134SOL    HW247637   0.010   9.204   7.806  0.0628 -2.2557  1.6036
15135SOL     OW47638   1.345   4.211   4.560  0.0868 -0.2252 -0.4675
15135SOL    HW147639   1.384   4.118   4.559  0.4821 -0.0579 -1.4086
15135SOL    HW247640   1.304   4.229   4.649  1.6381 -0.6352  0.3387
15136SOL     OW47641   0.039   2.351   2.252 -0.0171  0.1867  0.7401
15136SOL    HW147642  -0.009   2.395   2.328 -0.4252 -0.9200  1.1342
15136SOL    HW247643  -0.009   2.370   2.166 -0.2393  0.4318  0.9186
15137SOL     OW47644   5.940   5.219   2.103 -0.8336  0.3564 -0.2741
15137SOL    HW147645   5.954   5.122   2.122 -0.9001 -0.0035 -1.9217
15137SOL    HW247646   6.004   5.273   2.156 -1.1435 -0.5562  1.0517
15138SOL     OW47647   2.580   2.491   4.208  0.0214 -0.3588 -0.5092
15138SOL    HW147648   2.671   2.496   4.166 -0.0501 -0.1770 -0.6446
15138SOL    HW247649   2.581   2.542   4.294 -0.0786  0.0393 -0.7434
15139SOL     OW47650   5.736   9.166   1.532  0.2948  0.2167 -0.6882
15139SOL    HW147651   5.720   9.250   1.582  1.5542 -0.8885  1.6340
15139SOL    HW247652   5.649   9.131   1.496 -1.5008 -1.4226  4.7643
15140SOL     OW47653   8.229   3.955   0.645  0.0002 -0.3236  0.6028
15140SOL    HW147654   8.258   3.981   0.737 -0.0454 -1.1040  0.8458
15140SOL    HW247655   8.294   3.889   0.608 -0.0103 -0.0461  0.0962
15141SOL     OW47656   1.678   9.505   5.864  0.7817 -0.5210 -0.6920
15141SOL    HW147657   1.665   9.443   5.941 -0.8203 -0.3388 -0.8001
15141SOL    HW247658   1.708   9.594   5.898  1.8712 -0.9787 -0.4397
15142SOL     OW47659   5.218   8.461   3.959 -0.2326 -0.0770  0.1702
15142SOL    HW147660   5.287   8.532   3.948 -1.5980  1.0404 -1.3790
15142SOL    HW247661   5.221   8.425   4.053  3.0036 -0.6677 -0.1114
15143SOL     OW47662   5.422   2.003   4.934 -0.0026  0.0448 -0.0639
15143SOL    HW147663   5.458   1.998   4.842 -0.1403 -1.0059 -0.0616
15143SOL    HW247664   5.356   1.929   4.949  0.7768 -0.4256  1.1971
15144SOL     OW47665   9.965   4.318   4.018 -0.4676 -0.2245  0.0420
15144SOL    HW147666   9.940   4.238   3.964  0.7585 -0.6885  0.1360
15144SOL    HW247667   9.979   4.396   3.958  0.6940 -0.6888 -0.3047
15145SOL     OW47668   2.176   0.333   0.315  0.1675 -0.5297  0.4312
15145SOL    HW147669   2.264   0.296   0.286 -0.0623 -0.6377 -0.1524
15145SOL    HW247670   2.136   0.273   0.385  0.5121 -0.5322  0.6251
15146SOL     OW47671   9.922   0.192   0.671  0.2160  0.5019 -0.4695
15146SOL    HW147672   9.912   0.092   0.681 -0.1076  0.4427 -1.4193
15146SOL    HW247673   9.870   0.237   0.744  2.3278 -0.0632  1.4697
15147SOL     OW47674   9.226   7.078   1.735 -0.1441  0.1962  0.4828
15147SOL    HW147675   9.208   7.112   1.643 -0.4162 -0.6993  0.1951
15147SOL    HW247676   9.297   7.133   1.778 -0.4659  1.0172 -0.0240
15148SOL     OW47677   5.116   4.082   1.407  0.6765  0.3471  0.1450
15148SOL    HW147678   5.043   4.133   1.362  0.5873 -0.8176 -1.0788
15148SOL    HW247679   5.201   4.136   1.405  0.0735  1.3362  0.7980
15149SOL     OW47680   2.716   9.401   2.966  0.4310 -0.5149 -0.3814
15149SOL    HW147681   2.693   9.304   2.957  0.0094 -0.5931  1.3643
15149SOL    HW247682   2.664   9.441   3.041  1.8966  0.6334  0.0529
15150SOL     OW47683   0.113   0.717   5.021  0.2516  0.0628  0.4605
15150SOL    HW147684   0.124   0.815   5.005 -0.8613 -0.2244 -2.2926
15150SOL    HW247685   0.021   0.699   5.057 -0.7443 -0.2618 -2.1447
15151SOL     OW47686   2.854   2.124   4.250  0.4205  0.4699  0.0562
15151SOL    HW147687   2.763   2.089   4.273  0.5256  1.1235  1.5634
15151SOL    HW247688   2.881   2.193   4.317  3.0085 -1.4118  1.0437
15152SOL     OW47689   1.813   3.374   1.451  0.1756 -0.4204  0.0029
15152SOL    HW147690   1.862   3.460   1.468 -1.6851  0.6671 -0.0438
15152SOL    HW247691   1.880   3.301   1.438  1.7955  0.9611  0.2527
15153SOL     OW47692   3.098   4.080   2.852 -0.7405 -0.5265  0.2936
15153SOL    HW147693   3.140   3.992   2.873 -0.5792 -0.5237 -0.0135
15153SOL    HW247694   2.999   4.069   2.843 -0.5677 -0.9605 -1.2245
15155SOL     OW47695   5.954   0.146   2.917  0.1682  0.1074 -0.0205
15155SOL    HW147696   5.891   0.080   2.875  0.0520 -0.0129  0.3384
15155SOL    HW247697   5.921   0.169   3.009  0.1139  0.8023 -0.2105
15157SOL     OW47698   6.973   0.775   5.868  0.2351 -0.0407  0.1591
15157SOL    HW147699   6.982   0.802   5.772  0.8597  0.0359  0.2375
15157SOL    HW247700   6.892   0.818   5.907  1.4540  2.0711  0.3960
15158SOL     OW47701   0.906   7.904   5.624 -0.3873  0.5526 -0.1914
15158SOL    HW147702   0.998   7.911   5.584 -0.6064 -1.8247 -1.1840
15158SOL    HW247703   0.904   7.954   5.710  1.9547  0.3289  0.0391
15159SOL     OW47704   2.899   6.421   2.783  0.5070 -0.0910  0.1209
15159SOL    HW147705   2.949   6.495   2.738  1.4206 -0.4582  0.5375
15159SOL    HW247706   2.923   6.418   2.880  0.2963 -0.7963  0.1552
15160SOL     OW47707   2.648   6.127   5.047  0.0447 -0.3857 -0.4571
15160SOL    HW147708   2.639   6.077   5.133  1.8188  0.3533  0.1752
15160SOL    HW247709   2.573   6.192   5.038 -0.0320 -0.3193  0.6282
15161SOL     OW47710   7.805   8.390   6.337  0.3186 -0.4854  0.3077
15161SOL    HW147711   7.727   8.430   6.386 -0.2515 -0.4661 -0.5933
15161SOL    HW247712   7.827   8.446   6.258  0.4029 -1.2086 -0.1865
15162SOL     OW47713   4.227   5.624   3.065  0.0682  0.2033  0.4037
15162SOL    HW147714   4.171   5.552   3.105  0.0667 -1.3048 -2.2073
15162SOL    HW247715   4.169   5.702   3.040 -0.2845  0.1683  1.1042
15163SOL     OW47716   5.007   2.275   0.084 -0.1081 -0.6459  0.5699
15163SOL    HW147717   5.084   2.216   0.109  0.1405  0.3222  2.1914
15163SOL    HW247718   4.967   2.313   0.167 -1.8485 -0.5201 -0.3240
15164SOL     OW47719   3.408   1.950   2.699 -0.0461 -0.1302 -1.2825
15164SOL    HW147720   3.340   2.005   2.651 -0.9923 -0.0585  0.1087
15164SOL    HW247721   3.456   2.008   2.765  1.3874 -0.1805 -2.2562
15165SOL     OW47722   4.166   7.421   3.159 -0.3478 -0.5124  0.5019
15165SOL    HW147723   4.162   7.519   3.140 -0.8315 -0.6351 -0.0439
15165SOL    HW247724   4.098   7.397   3.228 -1.1895 -0.6786 -0.3602
15166SOL     OW47725   0.265   6.694   6.943  0.0044  0.1727  0.2354
15166SOL    HW147726   0.281   6.713   6.846 -0.5621 -0.0011  0.1018
15166SOL    HW247727   0.267   6.780   6.994  3.9634 -0.0859  0.6621
15167SOL     OW47728   0.478   7.725   4.860  0.2586  0.0306 -0.4912
15167SOL    HW147729   0.469   7.816   4.900 -3.1470 -0.8568  0.9798
15167SOL    HW247730   0.546   7.727   4.786  0.2880  3.7182 -0.4581
15168SOL     OW47731   8.944   9.014   4.482  0.4872 -0.4258 -0.2132
15168SOL    HW147732   9.027   8.990   4.431 -0.5861 -1.4234 -1.5298
15168SOL    HW247733   8.871   8.950   4.459 -1.3644  1.8704 -0.9231
15169SOL     OW47734   8.155   5.661   2.901 -0.3308  0.5428 -0.0198
15169SOL    HW147735   8.216   5.669   2.979 -1.3879 -0.4416  0.9221
15169SOL    HW247736   8.061   5.677   2.930 -0.4637  2.9387 -1.6217
15170SOL     OW47737   0.256   4.139   4.055 -0.0722 -0.5738 -0.8021
15170SOL    HW147738   0.191   4.190   3.999 -1.0695 -2.0310 -1.0256
15170SOL    HW247739   0.256   4.043   4.026  0.1188 -1.1581  1.0491
15171SOL     OW47740   8.000   6.966   6.036  0.0895  0.1401  0.0181
15171SOL    HW147741   7.908   6.973   5.997  0.4447 -0.9384 -1.0493
15171SOL    HW247742   8.022   7.051   6.084 -0.9034  0.9819 -0.9713
15172SOL     OW47743   7.617   2.005   3.113  0.3399 -0.4253  0.1301
15172SOL    HW147744   7.569   1.942   3.174  0.4920 -0.9319 -0.2639
15172SOL    HW247745   7.615   1.969   3.020  1.2430 -0.3199  0.0633
15173SOL     OW47746   9.078   1.690   5.438  0.0052  0.4468 -0.1379
15173SOL    HW147747   9.014   1.625   5.398 -0.7010  1.6635 -1.0302
15173SOL    HW247748   9.031   1.775   5.459  1.2576  1.2856 -0.6003
15174SOL     OW47749   5.672   5.277   2.205 -0.8504 -0.6922  0.4907
15174SOL    HW147750   5.763   5.243   2.184 -0.5790 -2.5210  4.3297
15174SOL    HW247751   5.604   5.206   2.186 -1.4450  0.3562 -1.4952
15176SOL     OW47752   6.787   6.221   1.346 -0.2035  0.2541 -0.1126
15176SOL    HW147753   6.700   6.219   1.296 -0.3729 -0.0451  0.1918
15176SOL    HW247754   6.770   6.248   1.441  0.0092 -0.0271  0.0033
15177SOL     OW47755   3.937   8.627   5.868 -0.2525  0.0365  0.3274
15177SOL    HW147756   3.977   8.647   5.958  0.6312 -0.7387  0.1165
15177SOL    HW247757   4.007   8.586   5.809 -0.6859  1.0134 -0.8950
15178SOL     OW47758   7.160   5.915   0.373 -0.7993  0.1261  0.1776
15178SOL    HW147759   7.118   5.893   0.285 -2.0237  1.5593  0.3881
15178SOL    HW247760   7.246   5.865   0.383 -0.5816  0.0691 -1.8989
15179SOL     OW47761   9.959   6.910   7.087 -0.3027 -0.0714 -0.4399
15179SOL    HW147762   9.994   6.895   6.994  1.2630 -1.1612  0.3083
15179SOL    HW247763   9.924   6.824   7.123 -0.6869  0.2989  0.0633
15182SOL     OW47764   8.627   7.187   6.985 -0.2521 -0.1425  0.1379
15182SOL    HW147765   8.701   7.156   6.926 -1.3571 -2.6451 -0.0111
15182SOL    HW247766   8.661   7.199   7.078  0.8429  1.0075 -0.3970
15183SOL     OW47767   8.004   5.442   4.353  0.4913  0.5003  0.3135
15183SOL    HW147768   8.079   5.480   4.407  0.9018 -0.1531  0.2095
15183SOL    HW247769   8.031   5.353   4.315  0.0260  0.7178 -0.5488
15184SOL     OW47770   9.576   7.042   3.811 -0.2367  0.0519  0.3019
15184SOL    HW147771   9.517   7.030   3.891  1.6068  1.3239  1.8936
15184SOL    HW247772   9.635   7.121   3.825  0.9883 -0.4704 -1.7965
15185SOL     OW47773   8.807   7.821   2.519 -0.0909  0.0600 -0.3771
15185SOL    HW147774   8.780   7.917   2.521  0.5919  0.2264  1.9356
15185SOL    HW247775   8.878   7.804   2.587 -0.4687 -2.1788 -0.4760
15186SOL     OW47776   8.709   7.347   0.795  0.0018 -0.5082 -0.3222
15186SOL    HW147777   8.804   7.318   0.799 -0.3707 -1.7352 -0.1804
15186SOL    HW247778   8.703   7.445   0.814  1.2910 -0.2949 -0.9740
15187SOL     OW47779   7.566   1.874   2.875 -0.0996  0.1764  0.1453
15187SOL    HW147780   7.480   1.853   2.921 -0.0487  0.0616  0.1883
15187SOL    HW247781   7.619   1.790   2.862 -0.1894  0.1845 -0.2765
15188SOL     OW47782   3.320   1.384   7.878  0.4535  0.1156 -0.2654
15188SOL    HW147783   3.308   1.336   7.965 -0.5055  0.3144 -0.2847
15188SOL    HW247784   3.405   1.436   7.880  0.9206 -0.6653  0.1887
15189SOL     OW47785   0.630   1.386   6.605 -0.1869  0.4573  0.1380
15189SOL    HW147786   0.608   1.362   6.510 -1.1248 -0.3454  0.5558
15189SOL    HW247787   0.546   1.413   6.653 -0.0009 -0.9213  1.2537
15190SOL     OW47788   5.021   2.295   4.807  0.5863  0.2036 -0.6085
15190SOL    HW147789   4.953   2.267   4.874  0.0744 -2.6170 -2.2182
15190SOL    HW247790   5.113   2.282   4.845  0.2922 -0.0946  0.0016
15191SOL     OW47791   1.839   2.220   0.553 -0.6557  0.1703  0.1006
15191SOL    HW147792   1.836   2.209   0.652  1.7724  1.2411  0.3235
15191SOL    HW247793   1.825   2.131   0.509  3.0516 -1.2455  1.5254
15192SOL     OW47794   2.893   2.857   2.487 -0.2224  0.1724  0.2902
15192SOL    HW147795   2.822   2.916   2.526 -0.4222  1.1900 -1.5282
15192SOL    HW247796   2.973   2.913   2.464  0.0891 -0.4872 -0.2385
15195SOL     OW47797   1.528   8.184   2.340  0.3894 -0.2269  0.1103
15195SOL    HW147798   1.480   8.208   2.425  0.4712  2.5800 -0.5727
15195SOL    HW247799   1.469   8.126   2.284 -0.6963  0.0314  0.9579
15196SOL     OW47800   1.531   9.929   6.435  0.0958  0.3262  0.0239
15196SOL    HW147801   1.604   9.881   6.484 -0.1784 -0.9827 -0.8196
15196SOL    HW247802   1.544   9.919   6.337 -0.8371  0.6517 -0.1360
15197SOL     OW47803   0.011   9.601   1.069 -0.6377  0.5275 -0.5111
15197SOL    HW147804  -0.081   9.634   1.050 -0.7372 -0.4632 -1.8466
15197SOL    HW247805   0.032   9.614   1.166 -1.7129  1.8816 -0.4435
15198SOL     OW47806   4.652   9.493   4.896  0.6306 -0.4793  0.3488
15198SOL    HW147807   4.620   9.473   4.988 -0.1182  2.2548  0.7209
15198SOL    HW247808   4.587   9.455   4.830 -0.4016  0.1347  1.0031
15200SOL     OW47809   0.482   1.282   4.830  0.1933 -0.5000  1.2176
15200SOL    HW147810   0.489   1.221   4.909  0.4156 -0.1253  1.4838
15200SOL    HW247811   0.418   1.356   4.850 -1.0619 -1.3552  0.4349
15201SOL     OW47812   9.396   5.177   3.841  0.2568  0.3703 -0.2525
15201SOL    HW147813   9.380   5.273   3.865 -1.3295  0.2289 -0.6793
15201SOL    HW247814   9.472   5.141   3.895  0.4743  1.7067  0.3404
15202SOL     OW47815   2.600   4.408   5.866 -0.0818 -0.0751  0.2637
15202SOL    HW147816   2.538   4.338   5.830 -1.3695  1.8276 -1.3553
15202SOL    HW247817   2.695   4.379   5.853 -0.5746 -2.3168  1.3081
15203SOL     OW47818   0.780   3.662   2.184  0.1743  0.6319  0.0099
15203SOL    HW147819   0.832   3.724   2.242 -0.3507  0.2526  0.8989
15203SOL    HW247820   0.825   3.573   2.183 -1.6305 -0.4007  2.6561
15204SOL     OW47821   2.699   4.201   0.311  0.1300 -0.0883  0.2755
15204SOL    HW147822   2.657   4.123   0.264 -1.8035  1.4778 -0.6310
15204SOL    HW247823   2.638   4.235   0.382  0.2061  1.6924 -0.4931
15205SOL     OW47824   8.213   8.395   3.808 -0.2832  0.2665  0.0998
15205SOL    HW147825   8.242   8.461   3.738 -1.1283  0.1807 -0.3429
15205SOL    HW247826   8.272   8.315   3.805  0.8776  1.0772  0.7693
15206SOL     OW47827   9.700   3.581   4.658 -0.6398 -0.2642 -0.3564
15206SOL    HW147828   9.602   3.603   4.654 -0.5065  0.9510  1.7657
15206SOL    HW247829   9.749   3.631   4.587 -1.5803 -0.9962 -1.5242
15207SOL     OW47830   4.612   2.292   6.748 -0.7602 -0.0263  0.3777
15207SOL    HW147831   4.548   2.284   6.672 -1.8262  0.7222  1.1911
15207SOL    HW247832   4.594   2.377   6.799 -0.3747 -0.7549  1.7585
15208SOL     OW47833   0.545   0.020   3.965 -0.2976 -0.6232  0.5142
15208SOL    HW147834   0.645   0.010   3.963 -0.2378  0.0959 -1.2249
15208SOL    HW247835   0.523   0.111   4.000 -0.3309 -0.6796  0.6380
15209SOL     OW47836   1.441   8.839   2.129 -0.1831 -0.0009 -0.5469
15209SOL    HW147837   1.364   8.886   2.170 -0.1471 -2.0789  1.9964
15209SOL    HW247838   1.511   8.906   2.104 -0.9380  1.4764  1.2068
15210SOL     OW47839   7.794   7.773   7.131 -0.3526 -0.1211 -0.5911
15210SOL    HW147840   7.881   7.822   7.129  0.2481 -1.1752 -0.5995
15210SOL    HW247841   7.783   7.728   7.219 -1.4517  0.9868 -0.1438
15211SOL     OW47842   3.748   0.089   6.027 -0.9227 -0.4783 -0.0333
15211SOL    HW147843   3.800   0.005   6.044  0.0190  0.0689 -0.1735
15211SOL    HW247844   3.718   0.092   5.932  1.8269  0.8420 -0.9247
15213SOL     OW47845   1.455   2.513   6.071  0.1456  0.0822  0.5572
15213SOL    HW147846   1.494   2.534   5.982  0.4820 -1.0015  0.4449
15213SOL    HW247847   1.522   2.532   6.142  0.0938  0.3560  0.5325
15214SOL     OW47848   5.549   5.613   0.279  0.7509  0.9726  0.3861
15214SOL    HW147849   5.507   5.638   0.192  2.3400 -0.2554 -0.7628
15214SOL    HW247850   5.610   5.687   0.308 -0.0369  1.5305  0.6289
15218SOL     OW47851   1.671   9.119   0.663  0.4855 -0.0345  0.2017
15218SOL    HW147852   1.717   9.197   0.622 -0.9994  1.3832  1.1799
15218SOL    HW247853   1.720   9.091   0.745  0.4938  0.4754  0.3725
15219SOL     OW47854   7.898   3.709   5.331  0.0345 -0.0110 -0.0325
15219SOL    HW147855   7.893   3.610   5.324 -1.7957  0.1858 -1.8245
15219SOL    HW247856   7.985   3.741   5.292  0.5520 -0.8775  0.4028
15220SOL     OW47857   1.100   3.530   6.621  0.3082  0.1585  0.3160
15220SOL    HW147858   1.134   3.624   6.626 -0.1075  0.2660  1.3154
15220SOL    HW247859   1.105   3.488   6.711 -1.5540 -0.0495  0.3355
15221SOL     OW47860   1.335   2.434   0.916 -0.5447 -0.3693 -0.4591
15221SOL    HW147861   1.347   2.427   1.015 -0.9736  0.6741 -0.3189
15221SOL    HW247862   1.301   2.526   0.893  1.3209  0.0428 -1.7389
15222SOL     OW47863   4.057   8.553   3.403 -0.6545  0.0847  0.8850
15222SOL    HW147864   4.047   8.455   3.385 -2.6764  0.5092 -0.5163
15222SOL    HW247865   4.146   8.571   3.444  0.4822 -2.1355 -0.5151
15223SOL     OW47866   4.986   8.145   6.801  0.1577 -0.1892 -0.1815
15223SOL    HW147867   4.930   8.221   6.769 -0.1155 -0.3288 -0.0395
15223SOL    HW247868   5.083   8.168   6.792  0.0761  0.5705  0.8135
15224SOL     OW47869   0.203   5.195   3.228 -0.5357 -0.0146 -0.4446
15224SOL    HW147870   0.295   5.234   3.219 -0.6058 -0.0847 -1.5537
15224SOL    HW247871   0.210   5.100   3.258 -0.1887 -0.3216 -1.4544
15225SOL     OW47872   9.644   8.210   6.599  0.0047  0.2229  0.3320
15225SOL    HW147873   9.646   8.275   6.675  0.3609 -1.4022  1.7604
15225SOL    HW247874   9.732   8.161   6.595 -0.9086 -1.4747  0.4859
15226SOL     OW47875   8.855   6.955   0.101 -0.1564  0.0250 -0.1057
15226SOL    HW147876   8.952   6.931   0.091 -0.2351 -2.1086  3.4678
15226SOL    HW247877   8.799   6.873   0.088 -1.2120  0.4725  1.4349
15227SOL     OW47878   6.078   8.241   2.538  0.1399  0.4060  0.1911
15227SOL    HW147879   6.098   8.236   2.636 -0.5916  0.3055  0.3407
15227SOL    HW247880   5.980   8.255   2.525  0.3182  1.0053 -0.5198
15228SOL     OW47881   4.852   1.185   7.108  0.2064 -0.1669 -0.1807
15228SOL    HW147882   4.927   1.162   7.170  0.3732  0.3996 -0.1638
15228SOL    HW247883   4.771   1.206   7.161 -0.4592 -2.4293 -0.2482
15229SOL     OW47884   1.397   5.019   1.178  0.4344  0.0952 -0.2969
15229SOL    HW147885   1.403   5.113   1.211  1.2101 -0.6007  1.6045
15229SOL    HW247886   1.358   5.018   1.085 -0.5996  2.1908  0.1018
15230SOL     OW47887   1.452   5.927   4.032 -0.3090 -0.4000 -0.2675
15230SOL    HW147888   1.436   5.831   4.057  0.7182 -1.1194 -2.2598
15230SOL    HW247889   1.366   5.968   4.002 -1.3371  0.1658  3.2829
15231SOL     OW47890   4.020   7.058   4.865 -0.3358  0.1540  0.1048
15231SOL    HW147891   4.050   6.963   4.857  1.5016  0.7613 -0.4269
15231SOL    HW247892   3.976   7.086   4.779 -1.0916 -0.2783  0.3456
15232SOL     OW47893   0.312   8.440   7.115  0.6582  1.0296 -0.3234
15232SOL    HW147894   0.292   8.385   7.034 -0.4899  1.4414 -0.3301
15232SOL    HW247895   0.371   8.517   7.090 -0.4099  1.6558 -0.9419
15234SOL     OW47896   0.548   7.562   2.740  0.6283  0.5739 -0.6240
15234SOL    HW147897   0.577   7.642   2.794  0.9179 -0.6399  1.0584
15234SOL    HW247898   0.629   7.517   2.703  0.6600 -0.5546  0.7909
15235SOL     OW47899   7.784   0.808   3.135 -0.1927  0.4794 -0.4785
15235SOL    HW147900   7.769   0.862   3.052  0.8476  0.7794 -0.4807
15235SOL    HW247901   7.698   0.767   3.164 -0.6855  0.8744 -1.3590
15237SOL     OW47902   0.612   9.981   5.351 -0.6176 -0.2365  0.2488
15237SOL    HW147903   0.549  10.003   5.277 -0.6949 -0.8446  0.1299
15237SOL    HW247904   0.663  10.063   5.377 -1.2000  0.1755  0.1015
15238SOL     OW47905   1.172   1.958   5.498 -0.0770  0.3604  0.4377
15238SOL    HW147906   1.077   1.927   5.508  0.0857 -0.7776 -1.2589
15238SOL    HW247907   1.233   1.878   5.501  0.7985  1.0378  1.0057
15239SOL     OW47908   2.509   2.056   7.358 -0.6030  0.2044  0.0266
15239SOL    HW147909   2.555   2.076   7.272 -2.2054  1.0542 -0.6577
15239SOL    HW247910   2.439   2.126   7.375  1.0255  1.2085  3.0142
15242SOL     OW47911   7.945   0.808   4.536 -0.3697  0.5165 -0.3939
15242SOL    HW147912   7.850   0.777   4.535 -0.2695  0.1368  1.2020
15242SOL    HW247913   7.948   0.907   4.543 -0.6361  0.4788  0.2187
15244SOL     OW47914   1.123   9.986   6.600  0.4260 -0.5415 -0.3377
15244SOL    HW147915   1.149   9.906   6.545 -0.3782  0.0174 -1.5593
15244SOL    HW247916   1.103  10.062   6.539  1.2289  0.6156  0.8246
15245SOL     OW47917   9.311   7.191   3.404  0.3421 -0.5898  0.7002
15245SOL    HW147918   9.319   7.260   3.332  1.0866 -0.9141  0.4707
15245SOL    HW247919   9.302   7.237   3.493 -1.9639 -0.1802  0.2699
15250SOL     OW47920   2.169   0.194   0.063  0.6221  0.1106 -0.3744
15250SOL    HW147921   2.153   0.257   0.138  0.1829  1.0126 -1.2067
15250SOL    HW247922   2.119   0.109   0.080 -0.9300  0.9827 -0.4875
15251SOL     OW47923   6.777   8.987   7.417  0.4708  0.3249  0.8835
15251SOL    HW147924   6.747   9.076   7.382  1.1978  0.1515 -0.2095
15251SOL    HW247925   6.755   8.916   7.349 -1.3350 -0.5358  2.3247
15252SOL     OW47926   8.785   0.761   4.720 -0.6573  0.1170  0.0177
15252SOL    HW147927   8.700   0.729   4.763 -1.0018 -1.2468 -1.6610
15252SOL    HW247928   8.784   0.861   4.717 -0.9182  0.2394  2.5431
15253SOL     OW47929   6.218   0.061   6.384 -0.2792  0.0133  0.0196
15253SOL    HW147930   6.127   0.094   6.407  0.6413  2.2414  0.6032
15253SOL    HW247931   6.258   0.118   6.312  1.6154  0.6736  1.5448
15254SOL     OW47932   1.642   1.086   5.372  0.2388 -0.0664 -0.1260
15254SOL    HW147933   1.548   1.053   5.356 -0.4277  0.8532  1.7864
15254SOL    HW247934   1.669   1.065   5.466  1.2386  1.3873 -0.0772
15255SOL     OW47935   0.237   4.994   2.186 -0.1148  0.6041 -0.4076
15255SOL    HW147936   0.295   5.071   2.213 -0.0023  1.3553 -2.6956
15255SOL    HW247937   0.145   5.027   2.164 -0.6753 -0.2238  0.6157
15256SOL     OW47938   1.140   3.253   7.343 -0.2056 -0.4572 -0.2362
15256SOL    HW147939   1.142   3.170   7.287 -1.0262  0.4964 -1.7057
15256SOL    HW247940   1.098   3.328   7.291  1.3685  1.1380  0.7101
15257SOL     OW47941   5.168   1.807   5.302 -0.3168 -0.5175  0.0116
15257SOL    HW147942   5.223   1.850   5.230  0.7319 -2.2236 -0.2236
15257SOL    HW247943   5.145   1.876   5.371  0.3138  0.6989 -0.9596
15259SOL     OW47944   1.438   6.777   2.145  0.6292  0.0310 -0.1198
15259SOL    HW147945   1.514   6.760   2.207  0.7645  0.5357 -0.1463
15259SOL    HW247946   1.382   6.694   2.137  1.6316 -0.5915 -0.7303
15260SOL     OW47947   9.803   3.351   6.014  0.2356  0.2292  0.6368
15260SOL    HW147948   9.845   3.265   5.985  0.4627  0.2924  0.7848
15260SOL    HW247949   9.744   3.334   6.093 -1.5053 -0.2115 -0.7186
15261SOL     OW47950   7.123   1.136   4.469  0.7018 -0.3834  0.1654
15261SOL    HW147951   7.188   1.060   4.467  0.4552 -0.5671 -1.1839
15261SOL    HW247952   7.100   1.163   4.376 -0.4619  0.2779  0.6306
15264SOL     OW47953   9.132   7.217   1.161  0.5897  0.8388 -0.5884
15264SOL    HW147954   9.049   7.266   1.134 -0.7295 -1.6685 -1.2148
15264SOL    HW247955   9.147   7.227   1.260 -0.4229  1.3308 -0.4872
15265SOL     OW47956   9.997   4.899   4.615 -0.6509 -0.5281  0.0470
15265SOL    HW147957   9.943   4.896   4.699 -1.1956 -0.8584 -0.3140
15265SOL    HW247958   9.937   4.920   4.538 -0.2058 -0.5677 -0.3087
15267SOL     OW47959   3.223   6.477   6.312 -0.1226  0.2972  0.2950
15267SOL    HW147960   3.320   6.498   6.302  0.2764 -0.5941  2.2060
15267SOL    HW247961   3.211   6.378   6.319 -1.3804  0.2533 -1.9637
15268SOL     OW47962   4.008   9.822   2.212 -0.1741  0.6764  0.2386
15268SOL    HW147963   4.070   9.871   2.274  1.4603 -1.3811  0.2716
15268SOL    HW247964   3.944   9.768   2.266  0.0353  0.3475  0.1557
15269SOL     OW47965   8.342   1.581   6.210 -0.6436 -0.4743  0.9679
15269SOL    HW147966   8.325   1.611   6.116  2.0563 -1.0519  0.2407
15269SOL    HW247967   8.390   1.653   6.260  0.6563 -1.3151  0.9577
15270SOL     OW47968   7.394   8.499   2.494 -0.7402  0.2227 -0.0631
15270SOL    HW147969   7.356   8.591   2.485 -0.6317  0.2541 -0.2109
15270SOL    HW247970   7.469   8.488   2.430 -0.5651  0.1268  0.1602
15271SOL     OW47971   1.705   5.637   5.077  0.1730 -0.1692  0.4076
15271SOL    HW147972   1.735   5.604   5.167 -2.2593 -0.3566  1.1899
15271SOL    HW247973   1.628   5.582   5.045  0.6142  0.2978 -1.5239
15272SOL     OW47974   1.595   8.001   4.112 -0.4659  0.2422 -0.2882
15272SOL    HW147975   1.610   7.954   4.024 -0.2153 -0.9541  0.3855
15272SOL    HW247976   1.500   7.989   4.140 -0.0530 -1.0397  0.5647
15273SOL     OW47977   7.840   4.109   5.370 -0.3949 -0.2009  0.3467
15273SOL    HW147978   7.919   4.168   5.359  0.2356 -1.0970  0.0743
15273SOL    HW247979   7.793   4.098   5.283  0.5639 -1.6006 -0.0157
15275SOL     OW47980   1.523   7.267   5.771  0.1453  0.3368  0.2284
15275SOL    HW147981   1.580   7.191   5.802 -1.2720 -1.0964 -0.5889
15275SOL    HW247982   1.475   7.307   5.850  1.0838  0.5657  0.6948
15276SOL     OW47983   3.715   8.616   2.752 -0.8779 -0.3510  0.2810
15276SOL    HW147984   3.749   8.524   2.732 -3.0230 -0.7674 -1.7197
15276SOL    HW247985   3.729   8.674   2.671 -0.6552  0.7423  1.0963
15277SOL     OW47986   9.959   9.001   1.106  0.2148 -0.0780  0.1453
15277SOL    HW147987  10.043   8.966   1.064  0.3636  0.4662 -0.0216
15277SOL    HW247988   9.881   8.945   1.077  0.3572  0.1216 -0.6401
15278SOL     OW47989   0.558   3.094   3.811 -0.0388 -0.3756  0.4143
15278SOL    HW147990   0.652   3.101   3.778  0.1770  0.5440  1.2006
15278SOL    HW247991   0.551   3.016   3.874 -0.3516 -1.8565 -1.4055
15279SOL     OW47992   8.248   5.128   1.960 -0.1701  0.2023 -0.1995
15279SOL    HW147993   8.288   5.039   1.940 -1.1556  0.2545 -2.5395
15279SOL    HW247994   8.223   5.132   2.057  1.2553 -1.4932  0.2711
15280SOL     OW47995   9.079   5.458   0.143 -0.1746 -0.8649  0.2174
15280SOL    HW147996   9.172   5.488   0.161  0.6058 -2.9634 -0.1652
15280SOL    HW247997   9.031   5.527   0.089  1.2310  0.1085  0.1899
15282SOL     OW47998   2.397   7.581   2.180 -0.4752  0.2904  0.5489
15282SOL    HW147999   2.455   7.653   2.218 -1.7192 -0.2764  3.6914
15282SOL    HW248000   2.453   7.514   2.132  1.3616  0.3254  2.5713
15284SOL     OW48001   5.407   9.684   4.080  0.4658 -0.1522  0.2119
15284SOL    HW148002   5.410   9.585   4.096 -0.8820 -0.3512 -0.6821
15284SOL    HW248003   5.345   9.703   4.003  1.0485  1.3524  0.1047
15286SOL     OW48004   7.970   9.898   7.346 -0.4031 -0.0415 -0.1512
15286SOL    HW148005   7.916   9.852   7.417 -0.4312  0.0064 -0.1415
15286SOL    HW248006   7.957   9.851   7.258  0.4159 -0.7112  0.0790
15287SOL     OW48007   3.253   3.038   0.312 -0.1154  0.6265 -0.0557
15287SOL    HW148008   3.292   2.966   0.369  1.4557  2.3069  1.0400
15287SOL    HW248009   3.210   3.107   0.370  0.6784  1.8792 -0.9321
15288SOL     OW48010   0.433   6.800   1.708 -0.0479 -0.6522 -0.4775
15288SOL    HW148011   0.348   6.845   1.681  0.2598  0.4760  0.3961
15288SOL    HW248012   0.439   6.711   1.664  0.0901  0.8007 -3.5284
15290SOL     OW48013   3.344   2.406   1.101  0.2577 -0.2841  0.1367
15290SOL    HW148014   3.408   2.370   1.033  0.4665 -0.7232  0.5691
15290SOL    HW248015   3.250   2.395   1.068  0.2337 -2.4627  0.8458
15291SOL     OW48016   8.054   2.135   1.826  0.4027 -0.3348 -0.4568
15291SOL    HW148017   7.982   2.134   1.758  0.1711 -0.9552 -0.2072
15291SOL    HW248018   8.017   2.105   1.914  0.5551  1.0374  0.0882
15292SOL     OW48019   8.978   9.309   2.891  0.5892 -0.0062 -0.0441
15292SOL    HW148020   9.039   9.275   2.963  0.7144  0.2644 -0.0191
15292SOL    HW248021   8.888   9.327   2.929  1.5076  3.2288  0.8080
15293SOL     OW48022   6.485   9.073   7.831  0.0792 -0.0740  0.0871
15293SOL    HW148023   6.523   8.985   7.861 -0.7591 -0.8547 -1.0978
15293SOL    HW248024   6.422   9.107   7.901  1.6602  0.4217  1.3105
15294SOL     OW48025   5.124   0.458   6.940  0.0880  0.1241 -0.4036
15294SOL    HW148026   5.096   0.547   6.977 -0.1242 -0.0299 -0.1889
15294SOL    HW248027   5.064   0.433   6.864 -0.2683 -0.1385 -0.0380
15295SOL     OW48028   9.311   8.960   0.732 -0.4353  0.5696 -0.3110
15295SOL    HW148029   9.347   9.046   0.697  0.0685  0.4554 -0.0747
15295SOL    HW248030   9.273   8.974   0.824  0.0726  0.4445 -0.0786
15298SOL     OW48031   1.508   6.025   1.707 -0.2408 -0.0961  0.7131
15298SOL    HW148032   1.599   5.984   1.697  0.1149  0.6035  1.0342
15298SOL    HW248033   1.510   6.092   1.781 -0.0109  2.6832 -1.6997
15299SOL     OW48034   7.565   7.897   7.901 -0.1128 -0.1789  0.2114
15299SOL    HW148035   7.615   7.983   7.915 -0.7501 -0.0660  1.9872
15299SOL    HW248036   7.488   7.913   7.839  2.2510 -0.4552 -2.9178
15301SOL     OW48037   8.023   7.331   6.620  0.0371  0.1980  0.5950
15301SOL    HW148038   8.052   7.369   6.708  0.2706  0.7423  0.2865
15301SOL    HW248039   8.033   7.401   6.549 -0.1492 -0.2402  0.1363
15302SOL     OW48040   3.783   4.301   7.338 -0.9331  0.1722 -0.4280
15302SOL    HW148041   3.772   4.396   7.369 -0.2992  0.2297 -0.3773
15302SOL    HW248042   3.779   4.240   7.417  0.4916  0.3039 -0.2469
15304SOL     OW48043   3.414   0.613   3.713 -0.4433 -0.3083 -0.3651
15304SOL    HW148044   3.482   0.623   3.641 -0.5030 -0.4183 -0.4374
15304SOL    HW248045   3.391   0.517   3.725  0.2076 -0.3726  0.4016
15305SOL     OW48046   0.111   7.055   4.850 -0.2814  0.2855  0.2003
15305SOL    HW148047   0.198   7.088   4.887 -0.1261  0.8593 -0.6615
15305SOL    HW248048   0.128   7.004   4.765 -0.5236 -1.9417  1.4495
15306SOL     OW48049   5.803   2.680   1.686  0.2192 -0.4362  0.8227
15306SOL    HW148050   5.876   2.654   1.750  0.7641 -0.4764  0.1899
15306SOL    HW248051   5.843   2.725   1.606 -0.5524  0.5518  0.9829
15307SOL     OW48052   3.151   7.388   0.027 -0.1478  0.7930 -0.0096
15307SOL    HW148053   3.233   7.421   0.073 -0.9736  0.7717  1.5122
15307SOL    HW248054   3.073   7.394   0.090 -0.8195 -1.6014 -0.5674
15308SOL     OW48055   8.207   7.187   7.421  0.1174 -0.2218 -0.6719
15308SOL    HW148056   8.141   7.112   7.412  0.1234 -0.1159 -1.6207
15308SOL    HW248057   8.239   7.191   7.516 -2.0112  0.3774  0.0576
15310SOL     OW48058   3.795   7.385   5.763 -0.0454  0.4357  0.2833
15310SOL    HW148059   3.875   7.441   5.783  0.2529  0.2212 -0.2969
15310SOL    HW248060   3.799   7.301   5.817  1.7350 -1.0237 -2.0278
15313SOL     OW48061   2.035   2.795   6.937  0.3401  0.3419  0.5884
15313SOL    HW148062   2.122   2.828   6.973  0.1468  0.1067  1.2952
15313SOL    HW248063   2.024   2.699   6.961 -0.4446  0.5660  1.1519
15314SOL     OW48064   9.972   8.400   6.676  0.1542  0.0723 -0.2644
15314SOL    HW148065  10.067   8.368   6.678 -0.6081 -2.1641  0.3751
15314SOL    HW248066   9.942   8.408   6.581  1.1022  1.2076 -0.4849
15315SOL     OW48067   2.530   0.232   7.827  0.2924 -0.0003  0.0030
15315SOL    HW148068   2.440   0.197   7.803  0.7413 -0.1479 -1.5331
15315SOL    HW248069   2.597   0.158   7.825  0.2616 -0.1247  2.3006
15316SOL     OW48070   1.605   2.286   1.196 -0.0855  0.2225  0.0333
15316SOL    HW148071   1.623   2.212   1.261  1.2703  0.8959  0.4502
15316SOL    HW248072   1.632   2.257   1.104 -0.3954 -0.1223  0.0519
15318SOL     OW48073   2.638   8.520   1.188  0.2268  0.3291 -0.3875
15318SOL    HW148074   2.686   8.546   1.272  0.2144 -1.3680  0.1678
15318SOL    HW248075   2.704   8.497   1.117  0.2351  0.6079 -0.4710
15319SOL     OW48076   3.752   7.294   1.508 -0.4434  0.0550 -0.3628
15319SOL    HW148077   3.843   7.253   1.518 -0.4703  0.2116  0.6298
15319SOL    HW248078   3.751   7.384   1.552 -0.6848  0.6630 -1.5998
15321SOL     OW48079   0.787   3.156   1.523  0.5038 -0.3647  0.2507
15321SOL    HW148080   0.788   3.074   1.466  0.3326 -0.5768  0.5581
15321SOL    HW248081   0.868   3.157   1.581 -0.6118 -1.4270  1.8492
15322SOL     OW48082   5.957   2.797   1.250 -0.1474  0.0103 -0.2853
15322SOL    HW148083   6.001   2.709   1.235 -1.3366 -0.5608 -0.5022
15322SOL    HW248084   5.950   2.816   1.348  0.2172 -0.0746 -0.2436
15324SOL     OW48085   6.663  10.003   2.308  0.7935 -0.1456  0.2059
15324SOL    HW148086   6.599   9.998   2.232 -0.5320 -0.4700  1.3295
15324SOL    HW248087   6.722   9.922   2.309  0.0657 -0.6759  0.1791
15325SOL     OW48088   6.924   8.736   5.334  0.0231  0.6319 -0.0922
15325SOL    HW148089   6.944   8.649   5.379  0.9359  2.3600  2.9906
15325SOL    HW248090   6.828   8.758   5.345 -0.1755  0.1193 -0.7388
15326SOL     OW48091   0.647   8.325   4.647 -0.0894 -0.1950 -0.1950
15326SOL    HW148092   0.592   8.388   4.593  1.4076  0.2322 -1.2713
15326SOL    HW248093   0.740   8.361   4.656  0.0919 -1.0008  1.3941
15327SOL     OW48094   9.233   7.156   7.022 -0.2572 -0.2659 -0.1326
15327SOL    HW148095   9.226   7.073   7.078 -1.4265 -0.4011 -0.4831
15327SOL    HW248096   9.154   7.214   7.038 -1.6065 -1.2024 -3.0695
15328SOL     OW48097   1.285   1.156   0.895 -0.2596  0.2867 -0.1732
15328SOL    HW148098   1.385   1.158   0.888 -0.1474  0.1374  1.2860
15328SOL    HW248099   1.256   1.215   0.970 -1.0713 -2.1900  1.4760
15329SOL     OW48100   7.854   4.214   7.547  0.1354 -0.0129  0.4492
15329SOL    HW148101   7.888   4.261   7.465 -3.4558  1.5164 -0.2854
15329SOL    HW248102   7.870   4.116   7.539  1.0584  0.2731 -1.4647
15330SOL     OW48103   4.310   9.593   5.060  0.4581  0.3479 -0.3498
15330SOL    HW148104   4.234   9.553   5.113  2.4017 -0.8960  1.5805
15330SOL    HW248105   4.332   9.533   4.983  0.4391 -0.0280 -0.0650
15331SOL     OW48106   3.446   4.793   7.134 -0.5918  0.2066 -0.1344
15331SOL    HW148107   3.383   4.731   7.181 -1.8690  2.9283  1.9067
15331SOL    HW248108   3.528   4.806   7.190  0.4872 -0.9759 -1.3903
15332SOL     OW48109   1.712   1.739   2.397 -0.0607  0.4176 -0.0928
15332SOL    HW148110   1.612   1.749   2.396 -0.0903  0.0712 -0.9620
15332SOL    HW248111   1.751   1.797   2.326  0.3682  0.6336  0.3203
15333SOL     OW48112   6.867   0.606   3.810 -0.1659  0.3589 -0.3759
15333SOL    HW148113   6.870   0.649   3.900 -0.9226  0.1775 -0.2695
15333SOL    HW248114   6.939   0.647   3.753 -0.5696  1.4372 -0.1327
15334SOL     OW48115   7.581   8.639   4.241 -0.1699 -0.1478 -0.2351
15334SOL    HW148116   7.567   8.715   4.305 -0.3205  0.3536 -0.8649
15334SOL    HW248117   7.497   8.584   4.237 -0.5834  0.5189 -0.9148
15335SOL     OW48118   2.824   3.269   4.519 -0.2258  0.1424  0.1541
15335SOL    HW148119   2.877   3.314   4.591  1.8787  0.7150 -1.6826
15335SOL    HW248120   2.872   3.279   4.431 -1.8072 -2.0998 -1.0201
15337SOL     OW48121   8.428   7.882   7.482 -0.8148 -0.3680 -0.3448
15337SOL    HW148122   8.391   7.815   7.418 -3.4423  2.5499 -1.9959
15337SOL    HW248123   8.362   7.897   7.556  0.3252 -0.5321  0.7286
15338SOL     OW48124   1.001   4.103   0.636 -0.3368  0.3202  0.3030
15338SOL    HW148125   1.017   4.095   0.734  0.2833 -1.9914  0.0300
15338SOL    HW248126   1.085   4.132   0.590  0.2276 -1.5451  0.1195
15339SOL     OW48127   9.004   6.521   2.864 -0.3189  0.3266  0.0258
15339SOL    HW148128   8.911   6.485   2.851 -1.1663  1.6494  2.1908
15339SOL    HW248129   9.063   6.449   2.900 -0.1572 -0.8609 -2.4953
15340SOL     OW48130   9.721   3.956   6.982  0.3014 -0.5240 -0.1492
15340SOL    HW148131   9.769   3.889   6.925 -0.2293 -0.3537 -0.8024
15340SOL    HW248132   9.722   3.926   7.078  0.4232 -1.2556 -0.3802
15341SOL     OW48133   4.749   0.552   2.970 -0.0129 -0.0546 -0.1875
15341SOL    HW148134   4.808   0.533   3.048 -0.7168  0.3898  0.4643
15341SOL    HW248135   4.681   0.621   2.995  0.4418  0.9067 -1.5211
15342SOL     OW48136   9.900   8.783   4.370 -0.8035 -0.8089  0.0225
15342SOL    HW148137   9.928   8.837   4.290  1.2241 -0.2852  1.0728
15342SOL    HW248138   9.907   8.685   4.348  0.1699 -0.6710 -0.3189
15343SOL     OW48139   9.312   6.800   6.430  0.1736  0.3184 -0.2550
15343SOL    HW148140   9.301   6.886   6.479 -1.2536 -0.6334  1.1541
15343SOL    HW248141   9.241   6.794   6.359  0.0770  0.1715 -0.1471
15344SOL     OW48142   1.362   8.249   6.516 -0.1770 -0.3381 -0.0157
15344SOL    HW148143   1.289   8.316   6.534 -1.0495 -1.4668  0.7223
15344SOL    HW248144   1.383   8.248   6.419 -1.9244 -0.7692 -0.4090
15345SOL     OW48145   4.746   6.582   1.172  0.0637  0.1619 -0.5739
15345SOL    HW148146   4.790   6.658   1.123  1.1019 -0.4937 -0.6718
15345SOL    HW248147   4.672   6.618   1.230 -0.9384  1.0030 -2.3162
15347SOL     OW48148   1.643   7.075   7.686  0.1076  0.1193  0.4545
15347SOL    HW148149   1.612   6.982   7.707 -2.0915  0.8384  0.4888
15347SOL    HW248150   1.620   7.136   7.761  0.9999  0.8103  0.1756
15348SOL     OW48151   2.980   6.276   7.127  0.3410 -0.4393 -0.6059
15348SOL    HW148152   3.046   6.349   7.106 -0.8456  0.3236 -1.7705
15348SOL    HW248153   2.914   6.310   7.194  0.6919 -0.9533 -0.0016
15349SOL     OW48154   4.439   9.243   6.044 -0.0001  0.0758 -0.3620
15349SOL    HW148155   4.420   9.179   6.118  3.2823 -1.1814 -0.5137
15349SOL    HW248156   4.424   9.337   6.077 -0.8297 -0.5714  1.1676
15350SOL     OW48157   5.969   0.874   3.554 -0.0235 -0.4331  0.0570
15350SOL    HW148158   5.994   0.789   3.509  0.1887 -0.9834  1.2100
15350SOL    HW248159   5.957   0.946   3.485 -1.3007 -1.6496 -1.0130
15351SOL     OW48160   2.472   3.295   1.907 -0.9701  0.3043  0.0633
15351SOL    HW148161   2.390   3.295   1.850 -0.3539  3.4770 -0.9193
15351SOL    HW248162   2.550   3.329   1.854 -0.0206  1.7884  2.3235
15352SOL     OW48163   3.246   3.030   1.646 -0.7083  0.0499  0.7625
15352SOL    HW148164   3.247   2.930   1.645 -0.2415  0.0032  3.1371
15352SOL    HW248165   3.210   3.063   1.733  0.3277  1.9458  0.5266
15353SOL     OW48166   9.567   8.288   0.459  1.1231 -0.3265 -0.6229
15353SOL    HW148167   9.658   8.319   0.484  0.3323  1.2944  0.3461
15353SOL    HW248168   9.569   8.190   0.437  2.8311 -0.5913  0.6501
15354SOL     OW48169   4.563   1.055   1.456 -0.2095 -0.3664 -0.2328
15354SOL    HW148170   4.617   1.096   1.383  0.0566 -0.4150 -0.0655
15354SOL    HW248171   4.467   1.080   1.445 -0.1681 -0.3690 -0.5939
15356SOL     OW48172   3.705   9.789   7.439  0.0311  0.2577  0.2370
15356SOL    HW148173   3.657   9.752   7.518 -0.0849  2.4074  1.1906
15356SOL    HW248174   3.709   9.889   7.445 -0.8900  0.5485 -2.9776
15358SOL     OW48175   3.058   4.753   4.755 -0.6660 -0.1730 -0.2049
15358SOL    HW148176   2.984   4.810   4.718 -0.3539 -0.5238 -1.4018
15358SOL    HW248177   3.112   4.716   4.679  2.5598  2.4614  0.6384
15359SOL     OW48178   2.706   7.730   1.232 -0.3213  0.5738  0.2623
15359SOL    HW148179   2.618   7.779   1.229 -0.3711  0.4521 -0.3019
15359SOL    HW248180   2.774   7.782   1.182 -1.1962 -1.5564 -3.3189
15360SOL     OW48181   9.816   6.383   4.379 -0.1151 -0.1238  0.5931
15360SOL    HW148182   9.729   6.423   4.351 -0.0881 -0.7273 -0.3866
15360SOL    HW248183   9.801   6.303   4.436 -0.2549 -1.5143 -1.3491
15361SOL     OW48184   9.562   6.903   6.470 -0.5589 -0.0920  0.2248
15361SOL    HW148185   9.473   6.876   6.433  0.4144 -0.8123 -1.6379
15361SOL    HW248186   9.580   6.852   6.554 -2.7044  1.4250  1.6784
15363SOL     OW48187   7.116   0.479   4.841 -0.4212  0.0806  0.2064
15363SOL    HW148188   7.085   0.517   4.753  1.9734  2.3391  0.2878
15363SOL    HW248189   7.067   0.524   4.915 -0.2876  0.2955  0.1632
15364SOL     OW48190   9.702   8.341   6.197  0.6977  0.0450  0.8293
15364SOL    HW148191   9.689   8.421   6.139  0.5969 -0.4278  0.1903
15364SOL    HW248192   9.618   8.286   6.195  0.3045  0.5776  2.2834
15365SOL     OW48193   0.355   9.104   7.918  0.2567 -0.2045  0.6518
15365SOL    HW148194   0.267   9.140   7.887  0.3512 -1.3706 -1.0589
15365SOL    HW248195   0.429   9.155   7.874  0.4244  0.2597  1.4768
15366SOL     OW48196   9.722   1.514   0.328 -0.5000  0.2206  0.0230
15366SOL    HW148197   9.809   1.469   0.306  1.2655  1.9802  2.9986
15366SOL    HW248198   9.670   1.456   0.390 -0.4928  0.0966 -0.0857
15367SOL     OW48199   4.358   1.431   3.839  0.2710 -0.1127 -0.2849
15367SOL    HW148200   4.407   1.476   3.914  0.1290  0.1606 -0.3547
15367SOL    HW248201   4.292   1.366   3.877  0.8842 -0.6911 -0.1953
15368SOL     OW48202   6.998   2.808   3.005 -0.3633  0.0899  0.0171
15368SOL    HW148203   7.034   2.885   3.057  0.3711 -0.5818  0.5082
15368SOL    HW248204   6.898   2.811   3.004 -0.3272  1.2398 -0.2609
15369SOL     OW48205   7.030   9.239   4.863 -0.3992  0.4230  0.2552
15369SOL    HW148206   6.941   9.248   4.817 -0.1456  0.9947 -0.1335
15369SOL    HW248207   7.039   9.146   4.900 -1.4816  0.5908  0.9787
15370SOL     OW48208   1.482   7.554   7.876  0.1996 -0.0569 -0.4029
15370SOL    HW148209   1.502   7.606   7.959 -0.0838  0.5005 -0.6824
15370SOL    HW248210   1.533   7.592   7.799 -1.1898  0.7864 -0.9309
15372SOL     OW48211   7.312   5.211   0.417 -0.0700 -0.0167  0.3115
15372SOL    HW148212   7.288   5.232   0.322 -0.0313  0.0636  0.3192
15372SOL    HW248213   7.349   5.293   0.461  0.9484 -0.3420  0.0698
15374SOL     OW48214   7.924   7.537   7.457 -0.4180 -0.1855  0.4714
15374SOL    HW148215   7.860   7.613   7.447  0.3467  0.2965 -1.0039
15374SOL    HW248216   8.007   7.557   7.405  0.9828 -0.7386  2.4649
15375SOL     OW48217   5.060   9.666   2.041  0.3344 -0.6796 -0.1386
15375SOL    HW148218   5.049   9.574   2.079 -0.5482 -0.9547 -1.0561
15375SOL    HW248219   5.069   9.732   2.116 -0.1698 -1.3635  0.5290
15376SOL     OW48220   8.457   2.403   5.533 -0.3446 -0.0019 -0.0097
15376SOL    HW148221   8.555   2.383   5.530 -0.2983  0.3056 -0.6617
15376SOL    HW248222   8.408   2.323   5.567  0.2974  0.4356  1.9525
15377SOL     OW48223   1.130   4.647   4.953  0.0213 -0.0134  0.0916
15377SOL    HW148224   1.044   4.650   4.902 -0.1565 -1.8754  0.2549
15377SOL    HW248225   1.149   4.738   4.990 -1.8985  0.4237  0.0899
15378SOL     OW48226   2.028   4.201   3.445 -0.5116  0.3875 -0.0603
15378SOL    HW148227   2.121   4.199   3.482 -1.1961  0.4564  1.7092
15378SOL    HW248228   2.029   4.166   3.352  1.0543 -1.0867  0.4706
15379SOL     OW48229   1.229   9.558   2.502  0.3463  0.0517 -0.7195
15379SOL    HW148230   1.316   9.570   2.550 -1.3454  1.0457  2.2217
15379SOL    HW248231   1.216   9.462   2.480  1.5098 -0.3282  0.2009
15380SOL     OW48232   3.776   6.100   3.406  0.0433  0.1121 -0.3549
15380SOL    HW148233   3.807   6.133   3.316 -0.7183 -0.4916 -0.8441
15380SOL    HW248234   3.685   6.137   3.425 -0.6484 -1.3613 -0.7293
15381SOL     OW48235   4.349   6.226   0.894 -0.4831 -0.1289  0.0671
15381SOL    HW148236   4.331   6.211   0.991  0.1986  1.3483  0.4348
15381SOL    HW248237   4.421   6.294   0.884  0.0110 -0.8588 -1.4698
15382SOL     OW48238   7.955   4.437   0.482  0.0273  0.5218 -0.5903
15382SOL    HW148239   8.031   4.445   0.547 -0.8357  1.5064  0.3077
15382SOL    HW248240   7.909   4.349   0.495 -0.4148  0.8996  0.4417
15383SOL     OW48241   6.929   2.786   1.525 -0.2100  0.0134 -0.0664
15383SOL    HW148242   6.889   2.817   1.612 -0.5086 -0.4521 -0.0365
15383SOL    HW248243   6.962   2.692   1.535 -3.6070 -1.4090 -1.5015
15384SOL     OW48244   2.133   9.407   7.795 -0.2438 -0.1524  0.4860
15384SOL    HW148245   2.153   9.487   7.737 -0.0597  1.0764  2.1987
15384SOL    HW248246   2.076   9.435   7.872 -2.3140 -2.1967 -0.2494
15385SOL     OW48247   0.057   7.099   7.865  0.1326  0.1377  0.1753
15385SOL    HW148248   0.048   7.185   7.916 -1.0014 -0.4870  1.0539
15385SOL    HW248249   0.123   7.111   7.791 -2.5189  2.8379 -1.9009
15386SOL     OW48250   7.847   1.967   3.241 -0.3012 -0.7639 -0.2671
15386SOL    HW148251   7.764   1.992   3.190 -1.6581 -1.3560  1.5785
15386SOL    HW248252   7.821   1.917   3.323  1.9207 -0.9635  0.3401
15387SOL     OW48253   1.606   7.301   7.500 -0.2861  0.0649  0.0913
15387SOL    HW148254   1.533   7.307   7.432 -0.8587 -1.5922  0.5388
15387SOL    HW248255   1.594   7.218   7.554  0.8707  0.7430  1.4036
15388SOL     OW48256   4.261   5.020   6.453 -0.2518  0.6700  0.2162
15388SOL    HW148257   4.201   5.101   6.451  0.7143  1.4205  0.8593
15388SOL    HW248258   4.213   4.942   6.414 -1.1275  1.6122 -0.6286
15389SOL     OW48259   2.643   2.061   7.628  0.2702 -0.6397  0.0400
15389SOL    HW148260   2.605   2.053   7.536 -0.9265  0.9039  0.3765
15389SOL    HW248261   2.581   2.019   7.694 -0.2738  0.7732  0.4500
15390SOL     OW48262   0.483   4.538   7.733 -0.1963  0.2445 -0.2254
15390SOL    HW148263   0.451   4.494   7.817 -1.7486  1.2324 -0.2641
15390SOL    HW248264   0.408   4.541   7.667  0.2428  1.7903 -0.6713
15394SOL     OW48265   6.334   3.811   0.058 -0.1724  0.2919 -0.0176
15394SOL    HW148266   6.297   3.749   0.126 -0.9621 -0.9484 -1.5364
15394SOL    HW248267   6.263   3.876   0.030  0.1725  0.8495  0.3980
15395SOL     OW48268   7.160   7.888   7.860 -0.1082  0.2334 -0.2178
15395SOL    HW148269   7.210   7.850   7.782 -0.8769 -0.5722 -0.3350
15395SOL    HW248270   7.083   7.943   7.825  0.3478  0.9918 -0.0366
15396SOL     OW48271   2.382   2.970   2.770 -0.2676  0.0343  0.1579
15396SOL    HW148272   2.403   2.908   2.845  0.8069 -2.0236 -1.7647
15396SOL    HW248273   2.298   2.939   2.724  0.4068 -0.1603 -0.9651
15398SOL     OW48274   9.736   3.383   3.679  0.1935  0.2809 -0.0025
15398SOL    HW148275   9.800   3.440   3.730 -0.1026  1.0990 -0.5382
15398SOL    HW248276   9.679   3.332   3.742 -1.1678  2.3971  0.5082
15401SOL     OW48277   2.967   1.065   0.684 -0.3233  0.1818  0.1029
15401SOL    HW148278   3.009   1.080   0.594  0.2885  1.7575  0.6413
15401SOL    HW248279   3.038   1.036   0.749 -1.1254 -3.0486 -0.4078
15402SOL     OW48280   1.195   9.639   2.244  0.8200  0.1820  0.2197
15402SOL    HW148281   1.215   9.618   2.340  0.4658 -2.0740 -0.1812
15402SOL    HW248282   1.233   9.729   2.221  0.3861  1.0123  2.6279
15403SOL     OW48283   2.133   3.187   6.734 -0.1858  0.2519  0.1390
15403SOL    HW148284   2.163   3.182   6.829 -2.2776 -1.5171  0.7697
15403SOL    HW248285   2.148   3.098   6.690  0.8160  1.0743 -1.2153
15404SOL     OW48286   5.962   9.123   2.394  0.2098 -0.3252 -0.3860
15404SOL    HW148287   6.006   9.039   2.427 -1.2484 -0.5537  1.0305
15404SOL    HW248288   5.905   9.102   2.315  1.3926 -0.3128 -1.2475
15405SOL     OW48289   1.082   4.234   7.601 -0.2452 -0.2449 -0.1377
15405SOL    HW148290   1.145   4.157   7.586  0.2628  0.3353 -1.0401
15405SOL    HW248291   1.011   4.207   7.667  0.4078 -1.2089  0.1837
15406SOL     OW48292   2.840   9.329   0.899  0.3591 -0.2934 -0.8728
15406SOL    HW148293   2.913   9.372   0.846  2.0209 -2.8559 -0.7428
15406SOL    HW248294   2.865   9.328   0.996  0.5118 -1.8419 -0.9201
15407SOL     OW48295   0.146   9.097   5.042  0.2080  0.3200  0.2072
15407SOL    HW148296   0.245   9.109   5.034  0.1599  1.0274  0.5670
15407SOL    HW248297   0.125   9.004   5.070  0.7331 -0.0714 -0.6995
15409SOL     OW48298   3.198   0.436   0.342 -0.4592 -0.0828 -0.5667
15409SOL    HW148299   3.291   0.401   0.339  0.1878  1.5641 -0.1335
15409SOL    HW248300   3.163   0.430   0.435 -0.3122  0.5061 -0.4730
15410SOL     OW48301   1.267   3.676   2.193 -0.5619  0.1763  0.1616
15410SOL    HW148302   1.315   3.588   2.193 -0.0996  0.4228 -0.7534
15410SOL    HW248303   1.210   3.683   2.111 -1.3140  0.3496  0.6927
15411SOL     OW48304   4.204   7.067   3.037  0.3989  0.0760  0.5616
15411SOL    HW148305   4.125   7.007   3.026  0.3829  0.3425 -0.8172
15411SOL    HW248306   4.247   7.083   2.948  0.1190  2.5054  0.8441
15412SOL     OW48307   5.031   4.925   2.617  0.0210 -0.0967 -0.0739
15412SOL    HW148308   4.961   4.856   2.599  2.7741 -2.5032 -1.7840
15412SOL    HW248309   5.093   4.893   2.688 -0.2515  1.8076  1.0742
15413SOL     OW48310   2.414   4.987   4.933  0.3322  0.2650 -0.0266
15413SOL    HW148311   2.459   5.077   4.928 -0.3940  0.5536 -1.4907
15413SOL    HW248312   2.481   4.916   4.913  0.8587  0.4806  0.9166
15414SOL     OW48313   9.992   5.858   7.464 -0.4704  0.0657 -0.5799
15414SOL    HW148314  10.009   5.811   7.551 -0.1598  0.5858 -0.3580
15414SOL    HW248315  10.069   5.842   7.402 -0.8106 -0.5215 -0.8577
15416SOL     OW48316   0.272   4.294   4.322 -0.1001 -0.3003  0.5440
15416SOL    HW148317   0.176   4.319   4.320  0.1288  0.5185 -0.3447
15416SOL    HW248318   0.293   4.232   4.247 -0.3107 -1.9200  1.7898
15419SOL     OW48319   6.582   6.145   0.537 -0.3816  0.6549  0.4350
15419SOL    HW148320   6.620   6.052   0.542 -2.0422 -0.0485  0.5397
15419SOL    HW248321   6.584   6.177   0.443  1.2621  0.9865  0.5685
15420SOL     OW48322   3.549   7.571   7.824  0.6815  0.0495 -0.0430
15420SOL    HW148323   3.617   7.629   7.869 -0.9375  1.7813  0.2521
15420SOL    HW248324   3.548   7.591   7.726  1.0899 -0.4861 -0.1558
15421SOL     OW48325   7.901   7.904   1.401  0.0790  0.2084 -0.0539
15421SOL    HW148326   7.846   7.874   1.479  0.3008  2.8666  1.1781
15421SOL    HW248327   7.870   7.995   1.372  1.7450  0.3679 -1.3831
15422SOL     OW48328   3.722   3.158   5.567 -0.9883  0.1966  0.1002
15422SOL    HW148329   3.664   3.239   5.564 -0.5874  0.5770  2.0936
15422SOL    HW248330   3.814   3.182   5.534 -1.8533 -0.3715 -2.9076
15423SOL     OW48331   1.800   0.199   1.792  0.0078 -1.0033 -0.3694
15423SOL    HW148332   1.709   0.188   1.831 -0.1368  1.6044  0.1427
15423SOL    HW248333   1.793   0.203   1.692 -0.2877 -1.9818 -0.3931
15424SOL     OW48334   1.058   9.835   1.265 -0.1633 -0.0781  0.2449
15424SOL    HW148335   1.145   9.880   1.243 -1.1317  1.8313  0.1746
15424SOL    HW248336   1.039   9.846   1.363  0.4901 -1.9830  0.5965
15425SOL     OW48337   1.141   3.409   2.999 -0.0829  0.7590  0.0259
15425SOL    HW148338   1.117   3.440   2.907  1.0575 -0.6548 -0.7704
15425SOL    HW248339   1.061   3.416   3.059 -0.4961  2.8818 -0.7359
15426SOL     OW48340   8.004   1.507   3.931 -0.7730  0.1252 -0.0912
15426SOL    HW148341   7.942   1.526   3.855  0.5339  2.9836 -0.5340
15426SOL    HW248342   7.970   1.552   4.014  0.6275  1.6447 -0.3206
15427SOL     OW48343   1.984   4.821   5.040 -0.2643 -0.2202 -0.5173
15427SOL    HW148344   2.017   4.915   5.039 -0.3068 -0.2039 -0.2469
15427SOL    HW248345   2.043   4.765   5.097 -0.5346 -0.2522 -0.2685
15430SOL     OW48346   9.123   9.908   4.455  0.1178  0.4895  0.1532
15430SOL    HW148347   9.131  10.003   4.486  1.9936  0.5538 -0.5233
15430SOL    HW248348   9.205   9.857   4.482 -1.2826 -1.1993  1.3554
15431SOL     OW48349   2.281   6.133   6.212 -0.2032  0.2736 -0.3346
15431SOL    HW148350   2.378   6.141   6.187 -0.0162 -0.6277  0.0820
15431SOL    HW248351   2.267   6.172   6.303 -0.3864  1.1427 -0.7329
15432SOL     OW48352   4.962   8.457   1.806 -0.1425 -0.1351  0.1444
15432SOL    HW148353   5.052   8.483   1.842 -0.1309 -0.0160  0.0312
15432SOL    HW248354   4.897   8.451   1.881  0.2449 -1.4433  0.3851
15433SOL     OW48355   0.682   9.401   4.921 -0.1547 -0.1070  0.0612
15433SOL    HW148356   0.690   9.495   4.888 -0.7350 -0.4510 -1.0871
15433SOL    HW248357   0.645   9.343   4.848  0.9006 -1.3709  0.5114
15434SOL     OW48358   7.931   2.811   0.045  0.8799  0.0766 -0.0538
15434SOL    HW148359   7.961   2.841   0.135  0.2253  0.0641  0.1760
15434SOL    HW248360   7.965   2.718   0.028 -0.4822 -0.6205  0.9367
15435SOL     OW48361   3.628   0.351   1.564  0.2299  0.1564  0.1741
15435SOL    HW148362   3.597   0.424   1.625 -1.6293  1.1285 -1.8486
15435SOL    HW248363   3.673   0.392   1.484  1.3265 -1.0214  0.1800
15437SOL     OW48364   9.784   0.645   0.332 -0.4509 -0.1760  0.5299
15437SOL    HW148365   9.829   0.556   0.346  2.5302  1.1978  0.0760
15437SOL    HW248366   9.848   0.707   0.286 -3.3903  1.4070 -1.5392
15438SOL     OW48367   2.191   2.079   6.453 -0.4466 -0.3155  0.2993
15438SOL    HW148368   2.219   1.983   6.459 -1.3781 -0.5538  0.8730
15438SOL    HW248369   2.130   2.101   6.529 -1.1937  0.4153 -0.5022
15439SOL     OW48370   4.305   1.283   7.755  0.8246  0.2562 -0.5242
15439SOL    HW148371   4.394   1.313   7.721  1.0744 -0.0602 -0.1548
15439SOL    HW248372   4.302   1.183   7.755  0.9838  0.2500  0.7827
15440SOL     OW48373   5.590   8.377   6.913 -0.0241  0.3603 -0.3195
15440SOL    HW148374   5.603   8.375   7.012  2.1401 -0.7425 -0.5952
15440SOL    HW248375   5.648   8.307   6.870 -0.1907  1.4812 -2.4433
15441SOL     OW48376   0.150   6.258   0.308  0.7888 -0.1670  0.8140
15441SOL    HW148377   0.215   6.288   0.238  1.5433 -1.6511  0.8616
15441SOL    HW248378   0.145   6.327   0.381  1.7060  0.3210  0.4192
15443SOL     OW48379   2.997   1.553   2.704 -0.5664  0.2620 -0.4068
15443SOL    HW148380   2.966   1.512   2.619  1.1299 -0.6141 -0.6293
15443SOL    HW248381   2.920   1.597   2.750 -1.7384 -0.2993 -1.7883
15444SOL     OW48382   0.007   1.640   4.157  0.4687  0.7162 -0.1625
15444SOL    HW148383   0.091   1.594   4.128 -1.0460 -1.5223 -1.1149
15444SOL    HW248384  -0.042   1.674   4.077 -1.0145 -0.6401  0.1591
15446SOL     OW48385   0.192   5.294   7.538  0.2221  0.0315 -0.0102
15446SOL    HW148386   0.242   5.236   7.473  0.6497  0.3349  0.0417
15446SOL    HW248387   0.206   5.258   7.631 -0.9208 -0.7796 -0.1504
15447SOL     OW48388   9.890   8.393   6.398  0.0484  0.1352 -0.4469
15447SOL    HW148389   9.954   8.461   6.364 -0.0868  0.2710 -0.4303
15447SOL    HW248390   9.829   8.364   6.324  0.8624 -0.8367 -0.7545
15448SOL     OW48391   9.571   7.135   5.215  0.6089 -0.3767  0.7936
15448SOL    HW148392   9.522   7.062   5.167  1.2636  1.0778 -2.1972
15448SOL    HW248393   9.664   7.143   5.178  1.0463  0.9898  2.1286
15449SOL     OW48394   8.106   5.314   6.352 -0.0966 -0.8995  0.4197
15449SOL    HW148395   8.186   5.350   6.304 -0.9219  0.1893 -0.1682
15449SOL    HW248396   8.025   5.322   6.292 -1.1752  0.6009  2.0212
15450SOL     OW48397   4.156   3.968   7.688  0.7041  0.2638 -0.6317
15450SOL    HW148398   4.253   3.973   7.715  0.7716  0.5296 -0.9183
15450SOL    HW248399   4.100   4.013   7.757  0.5887 -1.6256  0.5349
15451SOL     OW48400   2.776   4.750   6.101 -0.6475 -0.0242 -0.0940
15451SOL    HW148401   2.769   4.849   6.091  0.0045  0.0686  0.3186
15451SOL    HW248402   2.739   4.705   6.020 -0.7039  0.5617 -0.3920
15452SOL     OW48403   1.196   7.957   3.555 -0.4580 -0.2262  0.3114
15452SOL    HW148404   1.262   8.010   3.609 -1.1115 -0.8237  1.7216
15452SOL    HW248405   1.245   7.885   3.505  0.2115  0.6277 -0.2804
15453SOL     OW48406   1.051   6.685   5.870 -0.2295 -0.6946 -1.0143
15453SOL    HW148407   0.995   6.607   5.842 -1.0359 -0.5562  0.1685
15453SOL    HW248408   1.131   6.692   5.811 -0.8449 -1.6180 -1.9657
15454SOL     OW48409   3.824   5.078   5.043  0.3091  0.2440  0.5124
15454SOL    HW148410   3.875   4.991   5.049 -1.2820 -0.8392 -1.2003
15454SOL    HW248411   3.889   5.154   5.037  1.7340 -0.9791  0.0183
15456SOL     OW48412   1.766   0.687   0.805 -0.5616  0.0537 -0.5299
15456SOL    HW148413   1.780   0.766   0.866 -1.2827 -0.8213  0.7703
15456SOL    HW248414   1.838   0.687   0.735  2.5978 -1.0258  2.5518
15458SOL     OW48415   3.731   8.522   0.201 -0.2432  0.3781  0.1119
15458SOL    HW148416   3.639   8.560   0.211 -0.8111 -0.9208 -0.0959
15458SOL    HW248417   3.789   8.587   0.152 -1.3264  0.7770 -0.6531
15459SOL     OW48418   3.518   4.557   4.718 -0.5488  0.2290  0.0936
15459SOL    HW148419   3.544   4.464   4.692  0.7896 -0.0819  2.4708
15459SOL    HW248420   3.424   4.557   4.754 -0.3499 -0.2751  0.6047
15460SOL     OW48421   8.571   9.891   3.790  0.1150 -0.6467  0.0731
15460SOL    HW148422   8.648   9.955   3.788 -1.5365  1.5020  2.0888
15460SOL    HW248423   8.498   9.924   3.731 -0.7760 -0.6113  1.1762
15461SOL     OW48424   4.374   1.040   4.548 -0.8236  0.0323 -0.7845
15461SOL    HW148425   4.282   1.056   4.510 -1.3513 -0.2758  0.3494
15461SOL    HW248426   4.366   0.986   4.632  0.2405  1.9009  0.5207
15462SOL     OW48427   1.691   1.542   0.970  0.0592 -0.0148  0.6321
15462SOL    HW148428   1.726   1.633   0.952 -1.3239  0.2898 -0.6076
15462SOL    HW248429   1.627   1.546   1.047 -1.6973  0.4723 -0.8293
15464SOL     OW48430   4.777   5.622   1.267  0.9502  0.3785  0.2405
15464SOL    HW148431   4.795   5.659   1.176  0.5126  2.4307  0.9534
15464SOL    HW248432   4.779   5.522   1.264 -1.7353  0.3503 -2.6013
15465SOL     OW48433   9.271   3.411   5.076  0.7949 -0.1023 -0.3995
15465SOL    HW148434   9.262   3.417   5.175  0.2100  0.3944 -0.4840
15465SOL    HW248435   9.265   3.502   5.035 -0.3054 -0.4345 -1.0019
15466SOL     OW48436   6.270   1.386   3.976 -0.2348 -0.0942  0.3674
15466SOL    HW148437   6.173   1.375   3.958 -0.5181  0.7912  1.3122
15466SOL    HW248438   6.323   1.329   3.913 -1.3135  0.5733 -1.1709
15469SOL     OW48439   4.867   9.291   2.734  0.1568  0.6809 -0.1440
15469SOL    HW148440   4.809   9.369   2.758 -1.1658 -0.6318  0.9168
15469SOL    HW248441   4.826   9.240   2.659  0.4195  0.2960 -0.0296
15470SOL     OW48442   9.649   7.535   1.524 -0.1375 -0.3852  0.7704
15470SOL    HW148443   9.621   7.630   1.538 -0.1704 -0.3951  0.7686
15470SOL    HW248444   9.594   7.495   1.451 -0.8810 -0.7446  1.5310
15472SOL     OW48445   9.998   2.666   6.222 -0.1168  0.1782  0.0895
15472SOL    HW148446   9.996   2.577   6.176 -0.5646  0.5796 -0.6620
15472SOL    HW248447   9.905   2.697   6.238  0.0370  0.3033  0.7752
15473SOL     OW48448   0.892   9.012   2.455  0.0376 -0.5260  0.4920
15473SOL    HW148449   0.906   8.918   2.424  0.4459 -0.2015 -0.3258
15473SOL    HW248450   0.977   9.064   2.440  0.4336 -0.5096  2.6772
15474SOL     OW48451   7.433   4.561   0.479  0.3346  0.5633 -0.4085
15474SOL    HW148452   7.407   4.577   0.574 -1.8640 -0.0838 -0.8761
15474SOL    HW248453   7.533   4.562   0.471  0.5182  1.3325  1.7690
15475SOL     OW48454   9.107   6.169   5.811 -0.4593 -0.1318 -0.3278
15475SOL    HW148455   9.184   6.113   5.842 -1.4727 -1.2937  0.1076
15475SOL    HW248456   9.036   6.110   5.773 -0.9077  0.9773 -1.2564
15476SOL     OW48457   0.373   0.785   6.966  0.6540 -0.4574 -0.6924
15476SOL    HW148458   0.308   0.758   6.895 -0.0714 -1.2001  0.2349
15476SOL    HW248459   0.455   0.729   6.960  0.4249 -0.7949 -0.6964
15477SOL     OW48460   4.290   0.958   5.237  0.1957 -0.4496 -0.3182
15477SOL    HW148461   4.207   0.907   5.210 -0.0598  0.5331 -1.4624
15477SOL    HW248462   4.371   0.904   5.213 -0.0966 -0.8610 -0.3902
15478SOL     OW48463   7.154   1.509   4.259 -0.0586  0.4421  0.2643
15478SOL    HW148464   7.141   1.608   4.258  2.4208  0.7945  0.6102
15478SOL    HW248465   7.067   1.464   4.240 -1.4404  2.6604  1.1611
15479SOL     OW48466   5.482   2.935   4.880  0.4843 -0.2432  0.6506
15479SOL    HW148467   5.555   2.913   4.945  0.8465 -1.9128 -0.2714
15479SOL    HW248468   5.425   2.854   4.867  0.3877  0.0818 -1.0588
15480SOL     OW48469   9.697   2.695   6.251 -0.1600  0.2912  0.0984
15480SOL    HW148470   9.686   2.596   6.259 -2.1988  0.4281 -0.6311
15480SOL    HW248471   9.700   2.736   6.342 -2.4449 -0.1587  0.4170
15481SOL     OW48472   3.417   7.535   2.879  0.0350 -0.4925  0.0535
15481SOL    HW148473   3.502   7.500   2.839 -0.8455 -2.7369  0.0567
15481SOL    HW248474   3.342   7.523   2.814 -0.5269  0.2211  0.5658
15482SOL     OW48475   8.880   1.432   2.014 -0.0845 -0.4418 -0.3127
15482SOL    HW148476   8.906   1.338   1.990 -0.4673 -0.2834 -1.3705
15482SOL    HW248477   8.831   1.431   2.101 -0.3804 -1.2724 -0.4761
15483SOL     OW48478   4.847   1.731   0.469  0.1231 -0.3725  0.1199
15483SOL    HW148479   4.928   1.771   0.512  0.8860 -1.3868 -0.3438
15483SOL    HW248480   4.862   1.726   0.370 -0.8963  0.3059 -0.0800
15484SOL     OW48481   4.837   9.080   5.213 -0.3748 -0.0290  0.4588
15484SOL    HW148482   4.832   9.037   5.303 -0.2154  0.4909  0.7188
15484SOL    HW248483   4.798   9.019   5.145 -0.1098 -0.5991  0.8189
15485SOL     OW48484   7.880   4.337   4.290  0.0817 -0.7692 -0.4735
15485SOL    HW148485   7.903   4.433   4.277 -0.0686 -0.6159  0.3951
15485SOL    HW248486   7.787   4.320   4.256 -0.4784 -0.2714  0.7824
15486SOL     OW48487   3.276   7.962   1.065  0.8459  0.4220 -0.1283
15486SOL    HW148488   3.185   7.948   1.104  0.2918 -0.8430 -1.8460
15486SOL    HW248489   3.345   7.928   1.129  0.1274  1.0631  1.0267
15487SOL     OW48490   2.294   2.540   7.135  0.1519  0.2537 -0.0982
15487SOL    HW148491   2.201   2.542   7.101  0.7484 -0.0848 -1.7625
15487SOL    HW248492   2.305   2.610   7.206 -1.1469  0.8116 -0.4438
15489SOL     OW48493   4.714   5.078   2.167 -0.4586 -0.7791 -0.4065
15489SOL    HW148494   4.686   5.070   2.262 -2.4887  2.1553 -0.6967
15489SOL    HW248495   4.672   5.004   2.114 -1.1350 -1.0968  0.5630
15490SOL     OW48496   8.177   0.056   3.103  0.3670  0.3682  0.4628
15490SOL    HW148497   8.098   0.052   3.041  2.0569  0.5269 -1.7874
15490SOL    HW248498   8.185   0.149   3.140  1.1748  1.1872 -1.6565
15492SOL     OW48499   2.992   7.152   5.529  0.1971 -0.7624 -0.1942
15492SOL    HW148500   2.976   7.193   5.439 -0.9967  1.0284  0.7939
15492SOL    HW248501   3.081   7.108   5.530  0.7133  0.1720 -1.9122
15493SOL     OW48502   7.943   4.368   2.507 -0.0815  0.5914 -0.7246
15493SOL    HW148503   7.864   4.313   2.535  0.9129 -0.3148  0.3136
15493SOL    HW248504   8.011   4.309   2.464  0.9942  0.9907  0.4038
15494SOL     OW48505   4.677   2.864   0.039  0.4429 -0.2146 -0.1329
15494SOL    HW148506   4.603   2.802   0.068 -0.0030  0.0786 -0.6482
15494SOL    HW248507   4.728   2.821  -0.036 -0.8129  0.6793 -1.5279
15495SOL     OW48508   9.724   5.735   7.653  0.3718 -0.2727 -0.2437
15495SOL    HW148509   9.788   5.809   7.669 -0.2441  0.0632  0.7667
15495SOL    HW248510   9.774   5.651   7.634  1.0642  0.5883 -2.3161
15497SOL     OW48511   4.792   7.218   0.526 -0.7840 -0.6814 -0.0734
15497SOL    HW148512   4.792   7.213   0.626 -0.4771  1.6914  0.0570
15497SOL    HW248513   4.731   7.147   0.490 -1.4487 -1.1068  1.8101
15498SOL     OW48514   0.222   4.362   4.874  0.9782  0.1960  0.1499
15498SOL    HW148515   0.197   4.447   4.828  2.4911  1.0071  0.7650
15498SOL    HW248516   0.252   4.382   4.968 -3.3176 -1.5596  2.0531
15499SOL     OW48517   4.859   8.677   3.668 -0.0240  0.4170  0.2415
15499SOL    HW148518   4.863   8.767   3.712  0.4746  1.4023 -1.7609
15499SOL    HW248519   4.949   8.634   3.671  0.3383  1.0501 -0.8965
15500SOL     OW48520   1.048   5.432   5.484  0.1020 -0.1986  0.0566
15500SOL    HW148521   0.986   5.509   5.466  0.6163  0.2674  0.2682
15500SOL    HW248522   1.104   5.414   5.403  0.1339 -0.2096  0.0809
15501SOL     OW48523   1.173   4.674   4.003 -0.2413  0.1677 -0.1341
15501SOL    HW148524   1.211   4.766   4.018  1.7121 -0.7525  0.7214
15501SOL    HW248525   1.096   4.659   4.065 -0.2482  1.0386  0.0711
15502SOL     OW48526   4.959   0.649   5.075 -0.3902 -0.3475 -0.1655
15502SOL    HW148527   5.045   0.612   5.039 -0.3491 -1.0707  0.6478
15502SOL    HW248528   4.927   0.723   5.017  0.0435 -1.0265 -1.2761
15503SOL     OW48529   0.535   8.508   3.094  0.6251  0.4452 -0.6571
15503SOL    HW148530   0.455   8.461   3.131 -0.2188  1.7186 -0.8292
15503SOL    HW248531   0.507   8.596   3.056  2.1341  0.9709 -0.5798
15504SOL     OW48532   6.898   0.925   4.933  0.1789 -0.4258  0.5778
15504SOL    HW148533   6.909   0.875   5.019 -1.4634 -2.1626 -0.2047
15504SOL    HW248534   6.843   0.871   4.870  0.6839  1.1990 -1.2822
15505SOL     OW48535   9.079   7.951   2.199 -0.5206 -0.5833  0.0928
15505SOL    HW148536   9.101   7.854   2.210 -0.7933 -0.5431  0.9981
15505SOL    HW248537   9.162   8.001   2.173 -0.2009 -0.9214  0.4631
15506SOL     OW48538   6.366   1.775   3.014  0.0288 -0.4463  0.0999
15506SOL    HW148539   6.372   1.759   3.112 -0.8193  0.9530  0.3824
15506SOL    HW248540   6.454   1.753   2.972  0.8088  0.2241  1.3585
15507SOL     OW48541   6.538   9.080   2.830  0.3009  0.4194 -0.6154
15507SOL    HW148542   6.545   9.094   2.928  0.9181  0.4866 -0.6729
15507SOL    HW248543   6.567   9.163   2.781 -0.2581  0.4828 -0.8499
15508SOL     OW48544   0.048   7.999   1.676  0.7913 -0.1000 -0.0457
15508SOL    HW148545   0.103   8.057   1.616 -0.0356  0.9320  0.1901
15508SOL    HW248546   0.053   7.905   1.644  2.7197 -0.0397 -0.0242
15509SOL     OW48547   1.399   9.686   6.108  0.6507 -0.1440  0.5990
15509SOL    HW148548   1.384   9.695   6.207 -2.8877 -0.3071  0.1553
15509SOL    HW248549   1.367   9.596   6.078 -1.1831  1.0523 -1.1293
15510SOL     OW48550   0.444   8.167   0.007 -0.3608  0.0314 -0.3587
15510SOL    HW148551   0.362   8.221   0.029 -0.3682 -0.1790  0.1525
15510SOL    HW248552   0.433   8.074   0.043  0.0918 -0.0059 -0.3123
15511SOL     OW48553   7.333   0.843   0.536 -0.3210 -0.2890  0.9285
15511SOL    HW148554   7.402   0.843   0.609 -0.7717 -0.0762  1.3607
15511SOL    HW248555   7.248   0.883   0.571 -0.9463 -1.3822  0.6648
15513SOL     OW48556   2.510   4.937   4.318 -0.3126  0.4335 -0.1043
15513SOL    HW148557   2.486   4.861   4.257 -2.0948 -0.1924  1.3640
15513SOL    HW248558   2.500   5.023   4.269  0.9617 -0.2011 -1.5390
15514SOL     OW48559   6.537   9.979   7.123 -0.1836 -0.9365 -0.0480
15514SOL    HW148560   6.482  10.017   7.198 -0.6710  0.4064 -1.0680
15514SOL    HW248561   6.545   9.880   7.135 -0.4624 -0.7754  1.6397
15515SOL     OW48562   1.968   9.491   4.057  0.0158  0.1245  0.1418
15515SOL    HW148563   1.932   9.450   4.142 -2.0485 -0.2025 -0.8680
15515SOL    HW248564   2.030   9.426   4.013  0.4977 -0.0038  0.9826
15518SOL     OW48565   2.620   0.900   0.538 -0.2386 -0.1301 -0.1724
15518SOL    HW148566   2.695   0.894   0.473  1.1489  0.9181  1.2991
15518SOL    HW248567   2.576   0.990   0.530 -1.8922 -1.0255 -1.5872
15520SOL     OW48568   1.835   2.968   3.722 -0.3474 -0.2891 -0.4537
15520SOL    HW148569   1.779   3.046   3.695 -0.4394  0.6445  2.3485
15520SOL    HW248570   1.920   3.001   3.763 -0.4132 -1.6535  0.7966
15521SOL     OW48571   1.645   1.074   0.601 -0.5004  0.2656 -0.4950
15521SOL    HW148572   1.622   1.026   0.516 -0.1727 -0.0234 -0.4210
15521SOL    HW248573   1.739   1.055   0.625 -0.3996  0.8616 -0.4037
15522SOL     OW48574   9.955   6.842   2.543  0.0256  0.3042 -0.2873
15522SOL    HW148575  10.024   6.813   2.609 -1.1554 -0.8217  0.4501
15522SOL    HW248576   9.985   6.817   2.450  0.8124  0.2550 -0.0270
15523SOL     OW48577   7.940   5.375   6.084  0.3076  0.0611 -0.1203
15523SOL    HW148578   7.947   5.434   6.003  0.2362 -1.9595 -1.6463
15523SOL    HW248579   8.002   5.298   6.074  0.4222 -0.1287  1.8673
15524SOL     OW48580   1.669   4.443   3.625  0.1572  0.0834  0.4751
15524SOL    HW148581   1.752   4.485   3.587  0.5395  0.0624  1.2679
15524SOL    HW248582   1.676   4.441   3.725 -1.3941  1.3011  0.6173
15525SOL     OW48583   8.365   3.872   5.664  0.0032 -0.0943  0.3879
15525SOL    HW148584   8.321   3.953   5.703 -0.6960  0.1023 -0.8070
15525SOL    HW248585   8.355   3.795   5.727 -1.0515  0.2419  0.6374
15526SOL     OW48586   7.799   9.639   5.981  0.1963 -0.1234  0.6502
15526SOL    HW148587   7.721   9.578   5.967  0.2072 -0.4658  2.0791
15526SOL    HW248588   7.855   9.640   5.898 -1.3490  0.1635 -0.3989
15527SOL     OW48589   5.210   2.850   2.195  0.3594 -0.2222 -1.0422
15527SOL    HW148590   5.282   2.904   2.238  0.5542  0.9811 -2.8682
15527SOL    HW248591   5.121   2.882   2.226  0.5157  0.2524 -1.0849
15530SOL     OW48592   3.014   5.791   7.832  0.0608 -0.7899  0.2967
15530SOL    HW148593   3.050   5.881   7.808  1.8815 -1.6997 -0.5065
15530SOL    HW248594   2.926   5.802   7.878 -0.7749  1.2738 -1.7020
15531SOL     OW48595   1.261   1.340   1.106  0.4747  0.4424  0.3628
15531SOL    HW148596   1.262   1.413   1.038  0.9926  1.6433  1.6441
15531SOL    HW248597   1.263   1.380   1.198 -0.4409 -1.1505  1.0914
15532SOL     OW48598   4.104   4.948   5.052 -0.2377 -0.4181 -0.0570
15532SOL    HW148599   4.125   5.045   5.040  0.9737 -0.4649  1.4959
15532SOL    HW248600   4.116   4.923   5.149  1.1055 -2.4911 -0.7310
15533SOL     OW48601   9.955   9.415   0.820  0.3472  0.0811  0.2984
15533SOL    HW148602   9.992   9.487   0.761 -1.3011 -0.1417 -1.0650
15533SOL    HW248603   9.856   9.427   0.829  0.4381 -0.4740  2.2388
15535SOL     OW48604   5.148   9.305   7.586  0.4829 -0.4814 -0.6876
15535SOL    HW148605   5.056   9.303   7.625  0.9951 -1.5327  0.5259
15535SOL    HW248606   5.144   9.334   7.491 -1.3079 -2.3544 -1.2157
15536SOL     OW48607   9.257   5.111   7.392 -0.7732  0.1119  1.0188
15536SOL    HW148608   9.159   5.090   7.387 -0.7493  0.1299  0.3817
15536SOL    HW248609   9.302   5.079   7.308 -0.4466  1.2231  0.7642
15538SOL     OW48610   3.171   1.219   5.375 -0.4195  0.2029  0.1640
15538SOL    HW148611   3.182   1.318   5.363  0.2867  0.2776  1.3223
15538SOL    HW248612   3.260   1.175   5.363 -0.6648 -0.2485  0.0253
15539SOL     OW48613   1.667   0.361   7.837  0.4478  0.2536 -0.1831
15539SOL    HW148614   1.681   0.266   7.809  1.1753  0.1928  0.3675
15539SOL    HW248615   1.589   0.399   7.788 -0.9517 -1.1732  0.9188
15540SOL     OW48616   8.236   8.277   5.710  0.1279 -0.2056 -0.2932
15540SOL    HW148617   8.149   8.323   5.729  0.5803 -0.7786  3.5296
15540SOL    HW248618   8.309   8.345   5.702  0.0775  0.0397  1.1470
15541SOL     OW48619   3.427   4.280   3.958 -0.0059  0.0298  0.2672
15541SOL    HW148620   3.460   4.308   3.868 -0.4563  0.6499  0.2933
15541SOL    HW248621   3.381   4.191   3.950  1.5791 -0.8012  0.2174
15544SOL     OW48622   3.851   0.793   4.326  0.3080  0.1354 -0.1288
15544SOL    HW148623   3.854   0.720   4.395  0.1827 -0.1481 -0.4202
15544SOL    HW248624   3.761   0.837   4.329  0.5692  0.6308  0.4091
15545SOL     OW48625   9.099   5.163   2.645 -0.0474 -0.0180 -0.4550
15545SOL    HW148626   9.184   5.111   2.650 -0.3235 -0.4603 -0.3691
15545SOL    HW248627   9.021   5.102   2.659 -0.3298  0.6034  0.7496
15547SOL     OW48628   2.452   1.797   6.393 -0.3980 -0.0618  0.2113
15547SOL    HW148629   2.379   1.795   6.461  0.0660  0.7715  0.7445
15547SOL    HW248630   2.481   1.704   6.372 -0.3972 -0.3102  1.3180
15548SOL     OW48631   0.452   0.324   4.524 -0.1659  0.6594  0.3472
15548SOL    HW148632   0.356   0.319   4.552  0.0956  1.8023  1.5068
15548SOL    HW248633   0.468   0.409   4.473  0.2341  0.4915  0.1900
15549SOL     OW48634   7.018   3.587   1.336 -0.6140 -0.2086 -0.2107
15549SOL    HW148635   7.083   3.595   1.260  0.0942  4.3354  0.7619
15549SOL    HW248636   7.069   3.569   1.420 -0.6402  2.1705  0.3522
15551SOL     OW48637   8.062   4.770   2.066 -0.1836  0.2720  0.1357
15551SOL    HW148638   7.983   4.709   2.060 -0.0428  0.0867  0.1653
15551SOL    HW248639   8.042   4.855   2.018  0.3877 -0.6185 -1.7203
15552SOL     OW48640   9.010   4.567   0.887 -0.0899 -0.2312 -0.3450
15552SOL    HW148641   9.094   4.513   0.891 -0.5133 -0.9919 -1.4074
15552SOL    HW248642   9.025   4.648   0.830 -0.1477 -0.5077 -0.7561
15553SOL     OW48643   3.831   1.709   0.613  0.0630 -0.2003  0.4157
15553SOL    HW148644   3.767   1.702   0.536  1.9000  0.7533 -1.2324
15553SOL    HW248645   3.840   1.805   0.640  1.5379 -0.2073 -0.0182
15554SOL     OW48646   9.104   6.493   6.170  1.0079  0.1888  0.1727
15554SOL    HW148647   9.096   6.586   6.206  1.4878  0.4773 -0.4574
15554SOL    HW248648   9.141   6.433   6.241  2.0268  0.7692  0.1297
15555SOL     OW48649   3.012   6.652   6.297  0.5672  0.0403 -0.3549
15555SOL    HW148650   3.033   6.713   6.374  0.5686 -0.2526 -0.1245
15555SOL    HW248651   3.088   6.588   6.285  0.1962 -0.4511 -0.0769
15556SOL     OW48652   3.986   9.027   2.373 -0.3931 -0.0283  0.3809
15556SOL    HW148653   3.897   9.032   2.329 -1.6103  0.8747  2.8274
15556SOL    HW248654   3.982   9.074   2.461  1.9999 -1.5349  1.3559
15557SOL     OW48655   3.764   3.395   2.303 -0.3222 -0.0931  0.4481
15557SOL    HW148656   3.822   3.384   2.222 -0.1165  0.6122  0.4974
15557SOL    HW248657   3.754   3.493   2.323 -2.9544 -0.0914 -0.6095
15558SOL     OW48658   1.944   8.119   4.396  0.2972 -0.2547 -0.5624
15558SOL    HW148659   1.906   8.209   4.374 -1.8956 -0.9865  0.0972
15558SOL    HW248660   2.037   8.112   4.360 -0.1216  1.6509 -2.0887
15560SOL     OW48661   9.908   3.927   6.341  0.4264  0.6722  0.3864
15560SOL    HW148662   9.962   3.878   6.273 -1.7271 -0.5905 -0.4892
15560SOL    HW248663   9.922   4.025   6.331 -0.9336  0.6025 -2.8843
15561SOL     OW48664   4.898   3.946   1.976 -0.5729 -0.2140 -0.0076
15561SOL    HW148665   4.922   4.042   1.963  1.7685 -0.9027 -0.9344
15561SOL    HW248666   4.804   3.931   1.944 -1.1179  1.8372  0.5561
15562SOL     OW48667   6.958   4.477   3.372  0.3688  0.3466  0.5388
15562SOL    HW148668   6.928   4.536   3.297  1.2814 -0.4715 -0.4831
15562SOL    HW248669   6.992   4.391   3.335  0.4521 -0.2298  1.9275
15564SOL     OW48670   1.580   4.642   6.854  0.0619  0.1811 -0.5564
15564SOL    HW148671   1.619   4.592   6.777  0.4696  1.0176 -0.8961
15564SOL    HW248672   1.517   4.583   6.904  0.1357 -0.4992 -1.2703
15565SOL     OW48673   3.266   4.682   2.534 -0.5093 -0.1685  0.0120
15565SOL    HW148674   3.211   4.598   2.536  0.8363 -1.1778 -2.5945
15565SOL    HW248675   3.323   4.686   2.615 -0.0637 -2.1661 -0.1721
15566SOL     OW48676   6.958   0.826   0.989 -0.5733 -0.0568  0.4062
15566SOL    HW148677   6.917   0.765   0.921 -0.8527  0.9694 -0.3518
15566SOL    HW248678   7.058   0.823   0.981 -0.6421  1.7176 -1.5394
15567SOL     OW48679   4.953   4.262   1.236 -0.3372  0.2130  0.2327
15567SOL    HW148680   4.881   4.311   1.285  0.6215  3.1376 -1.1806
15567SOL    HW248681   5.019   4.328   1.200  1.5266 -2.2253 -0.9202
15568SOL     OW48682   9.040   0.591   7.497 -0.1267 -0.0078  0.1404
15568SOL    HW148683   9.050   0.666   7.432 -1.6113  0.7489  0.7814
15568SOL    HW248684   8.987   0.517   7.456  0.5687 -0.3341 -0.1750
15569SOL     OW48685   9.038   9.562   4.368 -0.0462  0.4907  0.0354
15569SOL    HW148686   8.951   9.575   4.415 -0.5459 -0.6480 -0.5565
15569SOL    HW248687   9.110   9.542   4.434  0.2380  3.5714  0.7492
15570SOL     OW48688   3.919   0.001   3.071 -0.2184 -0.5086  0.1499
15570SOL    HW148689   3.977   0.074   3.034 -1.3007  1.3035  1.8939
15570SOL    HW248690   3.974  -0.056   3.133  0.0139  0.4520  0.8473
15571SOL     OW48691   2.919   6.836   4.500  0.0855  0.1498  0.2431
15571SOL    HW148692   2.984   6.760   4.505 -0.7247 -0.5505  0.3690
15571SOL    HW248693   2.960   6.912   4.451  0.9413 -0.3430  0.1830
15572SOL     OW48694   1.171   1.113   6.188 -0.3769  0.9208 -0.0980
15572SOL    HW148695   1.099   1.046   6.172 -0.1564  0.7230 -0.2745
15572SOL    HW248696   1.155   1.160   6.275 -0.1371  0.1234  0.3841
15573SOL     OW48697   5.188   7.820   1.878 -0.2093  0.2364 -0.0737
15573SOL    HW148698   5.225   7.741   1.829 -0.2183  1.4099 -1.9896
15573SOL    HW248699   5.257   7.855   1.942  0.7574  0.3373 -1.1639
15574SOL     OW48700   1.729   5.270   4.258  0.2634 -0.0787 -0.1743
15574SOL    HW148701   1.799   5.249   4.190  0.7035  0.0686  0.2216
15574SOL    HW248702   1.760   5.348   4.313 -0.8760  0.9233 -0.9534
15575SOL     OW48703   4.060   9.230   3.802 -0.4622  0.8527 -0.3702
15575SOL    HW148704   3.963   9.216   3.782  0.1034 -1.6824 -1.4879
15575SOL    HW248705   4.082   9.189   3.890 -0.3078  1.1334 -0.2755
15576SOL     OW48706   0.979   5.815   4.439 -0.0817  0.0810 -0.2580
15576SOL    HW148707   1.046   5.863   4.495  0.3840 -2.5650  1.5286
15576SOL    HW248708   0.890   5.816   4.485 -0.3363  0.1252 -0.7396
15579SOL     OW48709   9.581   3.189   5.082  0.0837 -0.3820 -0.0458
15579SOL    HW148710   9.529   3.127   5.140  0.9691 -0.2706  0.8888
15579SOL    HW248711   9.530   3.207   4.997 -0.5914 -1.6348  0.0850
15580SOL     OW48712   4.899   0.650   6.984 -0.1978 -0.2070 -0.9790
15580SOL    HW148713   4.927   0.599   6.902 -1.3565 -0.7095 -1.0784
15580SOL    HW248714   4.877   0.744   6.958 -4.1845 -1.3253 -1.9652
15581SOL     OW48715   7.961   8.733   4.940 -0.3668  0.0789  0.2117
15581SOL    HW148716   7.922   8.825   4.937 -1.4486 -0.3960 -0.6005
15581SOL    HW248717   8.011   8.720   5.026  0.3392  1.6341  0.0493
15583SOL     OW48718   9.110   8.440   3.727 -0.1238 -0.4432 -0.1892
15583SOL    HW148719   9.031   8.382   3.747 -1.4759  1.1705 -0.7965
15583SOL    HW248720   9.164   8.397   3.654 -1.1884 -0.8750 -0.7385
15585SOL     OW48721   1.282   1.626   4.805 -0.1132  0.0849  0.0018
15585SOL    HW148722   1.360   1.624   4.868 -0.5755  0.2135  0.5845
15585SOL    HW248723   1.279   1.541   4.753 -0.0531 -0.2524  0.5508
15586SOL     OW48724   8.935   2.913   3.221 -0.3259  0.0597  0.3520
15586SOL    HW148725   8.998   2.879   3.152 -0.6200  0.7640 -0.2647
15586SOL    HW248726   8.848   2.864   3.213  0.0382 -0.7129  1.0201
15587SOL     OW48727   4.027   2.471   4.088  0.5529  0.0237 -0.3500
15587SOL    HW148728   4.077   2.433   4.010 -0.0034  0.3111 -0.8478
15587SOL    HW248729   3.960   2.537   4.055  1.9557  1.9336  0.5587
15588SOL     OW48730   1.895   8.862   5.040 -0.6069  0.4952 -0.0334
15588SOL    HW148731   1.881   8.821   4.950 -2.4227  2.1919 -0.5751
15588SOL    HW248732   1.814   8.915   5.065  0.5126  1.3551  1.9000
15590SOL     OW48733   0.323   5.329   1.972  0.3176 -0.1642  0.2800
15590SOL    HW148734   0.316   5.233   1.947 -1.5162 -0.2849  1.2089
15590SOL    HW248735   0.283   5.385   1.899  0.2436 -0.1805  0.3080
15591SOL     OW48736   5.710   5.526   1.701  0.3148 -0.6910 -0.2282
15591SOL    HW148737   5.692   5.574   1.616  1.5374  0.8203  0.3569
15591SOL    HW248738   5.798   5.478   1.696 -0.1408 -1.5461 -0.2207
15592SOL     OW48739   3.403   3.120   4.000  0.7635  0.1125 -0.5868
15592SOL    HW148740   3.437   3.029   3.975  3.5104  0.8921  0.1846
15592SOL    HW248741   3.353   3.114   4.086  1.4222 -0.5597 -0.2477
15593SOL     OW48742   9.393   6.390   6.615 -0.1538  0.0114 -0.5741
15593SOL    HW148743   9.459   6.352   6.681 -0.7926  2.0974  1.3197
15593SOL    HW248744   9.442   6.438   6.542  0.5635 -2.3447 -1.7064
15594SOL     OW48745   0.926   8.000   2.257 -0.0841  0.1265  0.1162
15594SOL    HW148746   0.945   8.024   2.161  1.0866  1.0827  0.5729
15594SOL    HW248747   0.829   8.013   2.276 -0.4203 -0.5409 -1.0728
15595SOL     OW48748   7.528   4.062   7.360 -0.0743  0.1862  0.7898
15595SOL    HW148749   7.570   4.025   7.277 -0.6161 -1.8620  1.3912
15595SOL    HW248750   7.434   4.090   7.341 -0.2584 -0.4548  0.7472
15597SOL     OW48751   2.340   5.752   1.969  0.2251  1.1797  0.0317
15597SOL    HW148752   2.241   5.763   1.963  0.1522  0.5426  0.0570
15597SOL    HW248753   2.385   5.827   1.919 -0.2629  1.5399  0.1307
15598SOL     OW48754   4.953   1.901   6.544 -0.2150 -0.1563 -0.0061
15598SOL    HW148755   4.983   1.818   6.497  0.6249 -0.4732  1.0861
15598SOL    HW248756   4.948   1.977   6.478  1.6764 -0.4121 -0.4806
15599SOL     OW48757   7.253   1.876   5.340  0.6265  0.2011  0.0840
15599SOL    HW148758   7.169   1.893   5.390 -1.0323 -2.0182 -1.8338
15599SOL    HW248759   7.330   1.871   5.404 -1.0682 -0.2447  2.1222
15600SOL     OW48760   7.065   3.037   5.058  0.5792  0.2933  0.3837
15600SOL    HW148761   7.110   2.947   5.060 -0.9692 -0.4801  0.6374
15600SOL    HW248762   7.084   3.081   4.970  0.1388 -0.9119 -0.3287
15602SOL     OW48763   5.287   0.869   6.977 -0.2688 -0.0373  0.8934
15602SOL    HW148764   5.386   0.875   6.965 -0.1368  1.5243  2.5635
15602SOL    HW248765   5.262   0.907   7.066 -2.6250  2.0131 -0.5759
15603SOL     OW48766   2.271   3.005   0.416 -0.0674  0.7243  0.7082
15603SOL    HW148767   2.311   3.068   0.349 -1.3563  0.9141  0.1095
15603SOL    HW248768   2.342   2.977   0.481  0.8545  1.6764  0.1353
15604SOL     OW48769   3.328   2.368   0.528 -0.1004 -0.1331  0.3571
15604SOL    HW148770   3.284   2.439   0.583 -2.3333 -0.0448 -1.4856
15604SOL    HW248771   3.270   2.346   0.449  1.8468 -2.0637 -0.5778
15605SOL     OW48772   0.675   7.617   5.801 -0.2465 -0.3593 -0.2578
15605SOL    HW148773   0.613   7.540   5.786  0.5165 -0.9757 -0.3005
15605SOL    HW248774   0.724   7.637   5.717  0.2070 -0.4086 -0.0075
15607SOL     OW48775   1.661   1.865   0.668 -0.1313  0.0424 -0.6988
15607SOL    HW148776   1.589   1.934   0.656 -0.8836 -0.7523 -0.8512
15607SOL    HW248777   1.681   1.856   0.766 -0.8007 -0.2795 -0.5840
15609SOL     OW48778   3.402   8.625   4.151 -0.0251  0.2520 -0.0676
15609SOL    HW148779   3.326   8.644   4.214  0.6075  0.3110  0.6773
15609SOL    HW248780   3.378   8.659   4.060 -1.1853 -0.3482 -0.0044
15610SOL     OW48781   3.004   1.596   7.467  0.0456  0.0703 -0.1407
15610SOL    HW148782   2.972   1.691   7.470 -2.3769 -0.7362  0.9554
15610SOL    HW248783   2.971   1.547   7.548  3.2611 -1.1239  0.5074
15611SOL     OW48784   4.164   9.285   4.737  0.2448 -0.0893 -0.2688
15611SOL    HW148785   4.191   9.312   4.645 -1.0973 -3.4708 -1.7031
15611SOL    HW248786   4.172   9.186   4.747 -1.1162  0.0498  2.7733
15612SOL     OW48787   2.088   4.552   1.339  0.2861  0.0249  0.3388
15612SOL    HW148788   2.046   4.598   1.261  1.0604  2.0852  1.1067
15612SOL    HW248789   2.032   4.567   1.421  0.1002 -1.1277  0.4357
15613SOL     OW48790   2.642   2.644   2.260  0.0862 -0.2273 -0.3113
15613SOL    HW148791   2.613   2.739   2.247 -1.4462 -0.7042 -0.4849
15613SOL    HW248792   2.677   2.632   2.352  2.3311  1.0138 -0.9790
15616SOL     OW48793   0.984   3.743   1.320  0.1606  0.1958  0.0727
15616SOL    HW148794   1.056   3.807   1.349  0.5267  0.3748 -1.2116
15616SOL    HW248795   0.992   3.727   1.222  0.3038 -2.1379  0.4544
15617SOL     OW48796   3.320   1.359   5.861  0.1314  0.3947  0.4120
15617SOL    HW148797   3.303   1.327   5.768  1.8972 -0.7145  0.4340
15617SOL    HW248798   3.367   1.447   5.858 -0.0291  0.4744  0.2575
15618SOL     OW48799   9.856   1.230   4.181 -0.4351 -0.4619 -0.0955
15618SOL    HW148800   9.815   1.321   4.177  0.4700 -0.1178 -2.2808
15618SOL    HW248801   9.842   1.183   4.094  0.5375 -1.7975  0.4494
15619SOL     OW48802   1.913   2.454   2.596  0.1420  0.1162  0.2988
15619SOL    HW148803   1.816   2.431   2.591 -0.1774  1.0653  2.0093
15619SOL    HW248804   1.936   2.487   2.687  1.8557  0.8950 -0.3794
15620SOL     OW48805   0.347   2.312   0.413  0.0444  0.7253  0.1774
15620SOL    HW148806   0.389   2.252   0.345  0.5669  1.7279 -0.3910
15620SOL    HW248807   0.319   2.397   0.369 -1.9161  0.3787  0.7021
15622SOL     OW48808   8.092   6.446   0.880 -0.5161  0.0914  0.1907
15622SOL    HW148809   8.160   6.475   0.947  0.1351 -1.2896  0.1477
15622SOL    HW248810   8.135   6.437   0.790 -0.6652 -1.0725  0.2215
15623SOL     OW48811   7.324   8.981   7.603  0.1512  0.2257  0.0011
15623SOL    HW148812   7.345   8.884   7.607  0.4736  0.2024 -1.7639
15623SOL    HW248813   7.229   8.993   7.576  0.2900  0.4061 -0.4070
15624SOL     OW48814   3.553   4.385   7.102 -0.4391  0.3396  0.3621
15624SOL    HW148815   3.645   4.423   7.094 -0.6024  0.6339 -0.1278
15624SOL    HW248816   3.552   4.293   7.063 -0.8652  1.1777 -1.6787
15625SOL     OW48817   9.730   9.070   2.204  0.4529 -0.6757  0.5173
15625SOL    HW148818   9.742   9.167   2.183 -1.5185 -0.2039  1.4306
15625SOL    HW248819   9.740   9.056   2.303 -1.2597 -1.0604  0.6524
15626SOL     OW48820   7.985   9.017   6.120  0.0591 -0.3648 -0.4261
15626SOL    HW148821   8.051   9.059   6.183 -0.7365 -0.8099  0.7277
15626SOL    HW248822   8.013   9.035   6.026  0.6442  1.3145  0.0466
15627SOL     OW48823   0.127   0.837   2.270  0.0646  0.4932  0.3063
15627SOL    HW148824   0.146   0.923   2.319  0.8679  0.3997  0.1769
15627SOL    HW248825   0.065   0.855   2.194  1.2571  1.2032 -0.5109
15628SOL     OW48826   5.980   1.692   4.946 -0.0419 -0.0298 -0.2997
15628SOL    HW148827   5.901   1.698   5.007  0.3110  1.9188 -0.0199
15628SOL    HW248828   5.947   1.674   4.853 -0.6593 -1.5733  0.1943
15630SOL     OW48829   8.523   4.039   1.669 -0.1308 -0.3994 -0.2077
15630SOL    HW148830   8.490   4.120   1.620 -1.9712 -1.4525 -0.7462
15630SOL    HW248831   8.622   4.033   1.659 -0.2791  0.2952 -2.4654
15631SOL     OW48832   1.157   8.069   7.205 -0.1831 -0.0864  0.5208
15631SOL    HW148833   1.058   8.067   7.198 -0.3244 -0.0962  2.2882
15631SOL    HW248834   1.189   7.992   7.261  0.7210  0.5959  0.9652
15632SOL     OW48835   4.083   2.568   5.154  0.4603  0.3602  0.5876
15632SOL    HW148836   4.027   2.628   5.096  0.1695  0.7868  1.2958
15632SOL    HW248837   4.177   2.601   5.154  0.3969  0.5486  0.5998
15633SOL     OW48838   0.199   5.552   1.093  0.5038  0.6166 -0.2149
15633SOL    HW148839   0.203   5.650   1.111  2.5445  0.2348  1.6238
15633SOL    HW248840   0.213   5.536   0.995  0.1527  2.1496 -0.5284
15634SOL     OW48841   2.107   8.219   2.388 -0.0862  0.3279  0.0010
15634SOL    HW148842   2.142   8.220   2.482  0.3653 -0.5281 -0.1518
15634SOL    HW248843   2.007   8.224   2.390 -0.1184 -0.3409  0.5611
15636SOL     OW48844   0.488   3.914   5.308 -0.3444 -0.1107  0.0764
15636SOL    HW148845   0.578   3.886   5.343 -0.2292  0.7852  0.5337
15636SOL    HW248846   0.443   3.836   5.265  0.7909 -0.4943 -0.4462
15637SOL     OW48847   8.180   7.321   7.805 -0.3775 -0.5716 -0.5318
15637SOL    HW148848   8.274   7.305   7.836 -0.3466  1.2869  0.3708
15637SOL    HW248849   8.164   7.419   7.795 -1.5005 -0.9539 -2.9975
15638SOL     OW48850   9.095   1.239   6.297 -0.4750 -0.5225  0.5199
15638SOL    HW148851   9.024   1.209   6.233  0.2834 -0.6220 -0.2723
15638SOL    HW248852   9.164   1.292   6.248  0.7169 -1.5790  1.0457
15639SOL     OW48853   2.375   6.279   2.755 -0.2076 -0.0375  0.0575
15639SOL    HW148854   2.348   6.346   2.824 -0.6815  2.1987 -2.2533
15639SOL    HW248855   2.475   6.274   2.751 -0.1766 -0.5464  1.2208
15640SOL     OW48856   1.999   6.348   2.096 -0.4180  0.0169  0.5774
15640SOL    HW148857   2.051   6.313   2.174  0.6908  1.8266  0.6953
15640SOL    HW248858   1.937   6.420   2.127  0.4669  1.1726 -0.2770
15642SOL     OW48859   9.796   4.914   4.368  0.2039 -0.0145  0.6806
15642SOL    HW148860   9.784   4.816   4.381  0.8675 -0.1330  0.4170
15642SOL    HW248861   9.744   4.964   4.437 -1.1632 -0.5252  0.0360
15643SOL     OW48862   5.405   4.047   1.066  0.4583 -0.3953  0.1265
15643SOL    HW148863   5.502   4.056   1.091 -0.0977  1.1415  1.8518
15643SOL    HW248864   5.372   3.958   1.095  0.9132 -0.2332  1.1765
15644SOL     OW48865   9.596   1.709   1.479  0.1389  0.2412  0.1653
15644SOL    HW148866   9.676   1.719   1.538  0.2419  3.9472 -0.5178
15644SOL    HW248867   9.531   1.646   1.523  1.3584  0.8389  2.9599
15648SOL     OW48868   4.076   2.570   5.989  0.0141 -0.0850 -0.3983
15648SOL    HW148869   4.174   2.569   6.006 -0.4525  0.4458  2.6255
15648SOL    HW248870   4.041   2.477   5.988  0.8143 -0.3982 -3.4486
15649SOL     OW48871   2.970   3.693   0.993  0.3832  0.1535 -0.3447
15649SOL    HW148872   2.903   3.621   1.013  0.7598 -0.8720 -2.6063
15649SOL    HW248873   2.925   3.769   0.948  0.2629  0.6697  0.6377
15650SOL     OW48874   4.918   4.704   1.086  0.3238 -0.4426 -0.1481
15650SOL    HW148875   4.971   4.788   1.079 -0.0016 -0.3201 -1.2488
15650SOL    HW248876   4.955   4.647   1.160  3.0996 -1.1439 -1.9812
15651SOL     OW48877   9.740   2.923   2.731 -0.5233  0.2170  0.2036
15651SOL    HW148878   9.794   2.841   2.709  0.9507  0.9001  1.1883
15651SOL    HW248879   9.671   2.899   2.799  0.6993  0.0320  1.4083
15652SOL     OW48880   7.516   6.388   0.552  0.2599  0.1804  0.2913
15652SOL    HW148881   7.466   6.346   0.628  2.3674 -3.1089 -0.0104
15652SOL    HW248882   7.588   6.446   0.588 -1.3220  1.9001  0.7467
15653SOL     OW48883   8.143   8.050   7.901  0.4043 -0.0065  0.2914
15653SOL    HW148884   8.109   7.996   7.978 -0.3117  1.2014  0.8365
15653SOL    HW248885   8.211   8.116   7.934  1.0917 -0.3853 -0.3332
15654SOL     OW48886   4.561   8.674   6.476  0.1213  0.3795  0.1575
15654SOL    HW148887   4.594   8.761   6.510 -0.9923  1.0487 -0.4472
15654SOL    HW248888   4.463   8.681   6.455 -0.1847 -1.2645  0.9568
15655SOL     OW48889   2.575   5.623   0.853 -0.0532  0.7647 -0.1018
15655SOL    HW148890   2.636   5.607   0.931 -0.2606 -1.6216 -0.3720
15655SOL    HW248891   2.543   5.535   0.818 -0.1445  1.7976 -2.7440
15656SOL     OW48892   7.102   1.362   1.815 -0.4559  0.1346 -0.1775
15656SOL    HW148893   7.108   1.402   1.906 -1.5824 -0.9822  0.4013
15656SOL    HW248894   7.027   1.405   1.764  1.3234  2.0473 -1.2597
15659SOL     OW48895   6.414   4.039   0.859 -0.9153  0.3172  0.1032
15659SOL    HW148896   6.416   4.003   0.953  1.6711  0.9017  0.3274
15659SOL    HW248897   6.482   4.113   0.851 -0.7002 -0.1152 -2.3802
15660SOL     OW48898   8.421   3.820   4.029 -0.1764 -0.0494  0.2692
15660SOL    HW148899   8.343   3.834   3.968  0.3310 -1.2729 -0.6595
15660SOL    HW248900   8.483   3.898   4.022 -0.3865  0.0626 -0.3880
15661SOL     OW48901   6.130   7.789   7.036 -0.3870 -0.2075  0.1802
15661SOL    HW148902   6.054   7.837   7.078  1.1560  2.0812  0.4582
15661SOL    HW248903   6.206   7.784   7.101  0.0433 -1.5891 -0.4216
15662SOL     OW48904   7.943   2.110   3.951 -0.0563  0.3157 -0.6288
15662SOL    HW148905   7.965   2.086   4.046  0.3585  1.4331 -0.4377
15662SOL    HW248906   8.026   2.143   3.905 -0.4661  0.7082 -1.0916
15663SOL     OW48907   1.233   1.729   6.639  0.0134  0.3222  0.3198
15663SOL    HW148908   1.258   1.814   6.591  0.7547 -0.1512 -0.1465
15663SOL    HW248909   1.237   1.745   6.738  0.3764  0.7758  0.2369
15664SOL     OW48910   7.343   5.991   1.853  0.8648 -0.1541  0.2758
15664SOL    HW148911   7.318   5.958   1.944 -0.6412  1.1397  0.3389
15664SOL    HW248912   7.434   5.956   1.829  1.5529 -0.0036  2.5315
15666SOL     OW48913   3.307   3.556   3.342  0.1660  0.2950 -0.1793
15666SOL    HW148914   3.314   3.464   3.303  4.3485  0.3966  0.1638
15666SOL    HW248915   3.247   3.554   3.422 -1.1938 -1.7482 -1.2145
15667SOL     OW48916   5.117   8.333   7.044  0.2523  0.5484  0.3715
15667SOL    HW148917   5.180   8.258   7.062 -1.3746 -0.8080  0.4486
15667SOL    HW248918   5.164   8.405   6.993  1.8955 -0.3756  0.5773
15669SOL     OW48919   0.307   5.839   0.878  0.2248 -0.0910 -0.2971
15669SOL    HW148920   0.212   5.858   0.852  0.2451  1.9438  0.9965
15669SOL    HW248921   0.338   5.756   0.833 -2.2817 -0.9541 -0.5029
15671SOL     OW48922   0.840   6.924   5.108 -0.4830 -0.1449 -0.3546
15671SOL    HW148923   0.742   6.903   5.119 -0.2537 -0.3045  1.5234
15671SOL    HW248924   0.892   6.839   5.113 -0.1547  0.0672 -0.1855
15672SOL     OW48925   6.490   5.264   0.841  0.8122 -0.1299  0.3278
15672SOL    HW148926   6.520   5.169   0.846 -0.3452 -0.6009 -1.4244
15672SOL    HW248927   6.397   5.269   0.805  1.2299  1.7138 -0.5887
15673SOL     OW48928   9.924   7.137   5.386 -0.2111 -0.1843 -0.5129
15673SOL    HW148929   9.895   7.164   5.478 -0.8567 -0.5405 -0.6085
15673SOL    HW248930  10.019   7.166   5.371 -1.0334  2.4334 -0.7883
15674SOL     OW48931   2.237   9.925   0.559 -0.0556  0.2567 -0.1153
15674SOL    HW148932   2.294   9.927   0.641 -2.3991  0.4725  1.5826
15674SOL    HW248933   2.277   9.864   0.492  0.6271 -1.9629  2.2231
15677SOL     OW48934   0.665   1.588   2.241  0.1126 -0.2582 -0.2174
15677SOL    HW148935   0.573   1.621   2.258  0.4719  0.1589  0.9999
15677SOL    HW248936   0.715   1.581   2.328  0.8721 -1.5307 -0.7300
15678SOL     OW48937   9.272   4.644   3.683  0.0423  0.3664 -0.7331
15678SOL    HW148938   9.175   4.626   3.665  0.1839  0.6711 -1.8747
15678SOL    HW248939   9.301   4.594   3.764 -1.6634  2.1309  1.0447
15679SOL     OW48940   6.255   8.308   4.553  0.0445 -0.2575 -0.1667
15679SOL    HW148941   6.277   8.315   4.650 -0.8363 -0.3937  0.0459
15679SOL    HW248942   6.335   8.335   4.498  0.2531  0.6658  0.5862
15680SOL     OW48943   7.953   7.732   0.698 -0.3578  0.0146 -0.2281
15680SOL    HW148944   7.939   7.633   0.705  0.1416 -0.0359  0.1461
15680SOL    HW248945   7.879   7.780   0.745 -1.2205 -0.1523 -1.4094
15681SOL     OW48946   9.622   2.906   3.540  0.4624  0.2461 -0.3676
15681SOL    HW148947   9.633   3.005   3.542 -0.3575  0.3124  0.8264
15681SOL    HW248948   9.654   2.867   3.626  1.6920 -0.6327 -1.1999
15682SOL     OW48949   1.400   2.082   6.862 -0.1703 -0.4149  0.1257
15682SOL    HW148950   1.329   2.152   6.865  1.6744  1.5079  0.2280
15682SOL    HW248951   1.416   2.054   6.768 -0.3882 -0.1112 -0.0032
15683SOL     OW48952   8.932   3.667   1.522 -0.2062  0.6356 -0.2385
15683SOL    HW148953   9.018   3.682   1.570  0.4490  1.0268 -1.5168
15683SOL    HW248954   8.877   3.600   1.573  1.1104 -0.1026  0.2536
15684SOL     OW48955   8.159   5.069   5.373  0.3297  0.2858  0.6015
15684SOL    HW148956   8.083   5.130   5.391  0.1290 -0.2604  1.6614
15684SOL    HW248957   8.199   5.039   5.460  1.2670 -0.0315  0.0725
15685SOL     OW48958   1.143   1.279   5.952  0.0949 -0.1939  0.1488
15685SOL    HW148959   1.160   1.233   6.039  0.0777 -1.3187 -0.4299
15685SOL    HW248960   1.046   1.269   5.927  0.1345 -0.0130 -0.0777
15687SOL     OW48961   7.473   2.345   2.182  0.0135 -0.3013 -0.1016
15687SOL    HW148962   7.470   2.362   2.280  3.1114  0.4627 -0.0834
15687SOL    HW248963   7.504   2.251   2.166 -0.6968 -0.4953 -0.3669
15688SOL     OW48964   2.809   2.347   5.199  0.0918  0.4485  0.0179
15688SOL    HW148965   2.720   2.370   5.238  0.6232  1.6810  0.5317
15688SOL    HW248966   2.851   2.273   5.251  1.2896  2.8080  2.5539
15689SOL     OW48967   2.114   0.741   6.314 -0.0125  0.2332 -0.2765
15689SOL    HW148968   2.122   0.837   6.338 -0.7615  0.0854  0.6060
15689SOL    HW248969   2.105   0.731   6.215  1.2066  0.9872 -0.4701
15692SOL     OW48970   2.765   7.754   5.769 -0.3445  0.4873  0.1314
15692SOL    HW148971   2.811   7.792   5.689 -1.7935  0.6971 -0.6245
15692SOL    HW248972   2.771   7.818   5.846 -0.6549  1.1639 -0.4064
15694SOL     OW48973   3.272   5.195   1.613 -0.6361  0.5894 -0.6104
15694SOL    HW148974   3.342   5.130   1.583  1.0485  2.2372 -0.2982
15694SOL    HW248975   3.185   5.147   1.623  0.1382 -1.2171 -2.2607
15695SOL     OW48976   6.206   7.970   3.909  0.0715 -0.3720 -0.9451
15695SOL    HW148977   6.229   7.905   3.981  0.3445  0.3992 -0.3310
15695SOL    HW248978   6.112   7.955   3.878 -0.0242 -0.7392 -0.4698
15696SOL     OW48979   1.405   3.800   5.911  0.1220  0.2670  0.0189
15696SOL    HW148980   1.480   3.866   5.912 -0.3530  0.8133 -0.4778
15696SOL    HW248981   1.379   3.778   6.005  1.0972 -0.1454  0.1990
15697SOL     OW48982   0.183   6.982   3.854  0.4974  1.0620  0.9727
15697SOL    HW148983   0.092   6.940   3.854  0.2443  1.5895  0.0643
15697SOL    HW248984   0.249   6.919   3.895  0.4265 -0.8906 -1.8024
15698SOL     OW48985   4.489   7.655   2.122  0.0704 -0.1067 -0.0588
15698SOL    HW148986   4.543   7.586   2.074  0.5016  0.2017 -0.0206
15698SOL    HW248987   4.508   7.746   2.084 -1.7819 -0.1988 -1.2553
15699SOL     OW48988   0.546   0.323   5.065  0.2477  0.5263 -0.2546
15699SOL    HW148989   0.518   0.264   4.990  1.8385  0.8461 -1.1148
15699SOL    HW248990   0.497   0.411   5.059  0.0660  0.3984 -0.6631
15700SOL     OW48991   6.952   7.942   5.344  0.3561 -0.1305 -0.0685
15700SOL    HW148992   7.039   7.902   5.374  0.6623 -0.0709 -0.8763
15700SOL    HW248993   6.967   7.998   5.263 -0.2639  0.7460  0.4181
15701SOL     OW48994   7.844   7.706   2.451 -0.0197  0.3174 -0.1617
15701SOL    HW148995   7.896   7.648   2.513 -0.9170 -1.2359 -0.8458
15701SOL    HW248996   7.830   7.659   2.364 -1.5658  1.1786 -0.4014
15702SOL     OW48997   7.275   2.406   0.434  0.1550 -0.2170 -0.1065
15702SOL    HW148998   7.255   2.418   0.532  1.4240 -0.0111  0.1345
15702SOL    HW248999   7.190   2.413   0.382 -0.7909 -2.1296  1.1381
15703SOL     OW49000   3.347   1.264   2.807  0.0919  0.1120  0.1772
15703SOL    HW149001   3.402   1.297   2.730  1.3870 -1.6984  0.2932
15703SOL    HW249002   3.398   1.279   2.892 -0.1223 -0.4859  0.4084
15704SOL     OW49003   9.007   6.264   5.240  0.0757  0.7371  0.1517
15704SOL    HW149004   9.061   6.180   5.249  1.5293  1.6048 -0.1705
15704SOL    HW249005   9.013   6.298   5.146  1.5341  2.5032  0.8524
15705SOL     OW49006   6.947   7.084   6.148 -0.3015  0.0214  0.1228
15705SOL    HW149007   7.022   7.053   6.089  0.4642  2.1039 -0.0299
15705SOL    HW249008   6.961   7.049   6.241  0.2216 -0.5699 -0.1729
15706SOL     OW49009   3.327   2.449   4.417 -0.1509  0.5694 -0.0939
15706SOL    HW149010   3.321   2.356   4.380 -1.3142 -0.3703  2.2775
15706SOL    HW249011   3.411   2.492   4.387  0.5810 -1.3926 -0.9558
15707SOL     OW49012   0.805   9.548   3.925  0.2670  0.4841  0.0007
15707SOL    HW149013   0.760   9.468   3.965 -0.5421  0.2331 -1.3832
15707SOL    HW249014   0.763   9.631   3.960  1.2517  0.3302  1.6143
15708SOL     OW49015   5.919   8.136   4.728 -0.0303  0.4092  0.1302
15708SOL    HW149016   5.958   8.141   4.636  1.8321 -0.6236  0.8246
15708SOL    HW249017   5.854   8.061   4.733  1.9018 -1.3170  0.3360
15709SOL     OW49018   9.050   0.011   5.481  0.0167 -0.1748 -0.0009
15709SOL    HW149019   9.071   0.097   5.527  0.2906  0.9031 -2.0635
15709SOL    HW249020   8.958  -0.020   5.507 -0.8006  1.6812 -0.6148
15711SOL     OW49021   2.460   0.261   7.281 -0.0804 -0.1751 -0.6323
15711SOL    HW149022   2.474   0.336   7.217  1.7264  0.6365  0.6768
15711SOL    HW249023   2.428   0.297   7.368 -0.5050 -1.0713 -0.4135
15712SOL     OW49024   4.480   2.415   0.967 -0.3522 -0.0145  0.7381
15712SOL    HW149025   4.525   2.326   0.962 -0.5327 -0.1082  0.7703
15712SOL    HW249026   4.460   2.437   1.062 -0.3295  0.0504  0.7279
15713SOL     OW49027   7.639   7.031   5.335  0.0862 -0.2130 -0.1166
15713SOL    HW149028   7.705   7.003   5.265  3.7812 -0.9715  3.4980
15713SOL    HW249029   7.587   6.951   5.365  0.7353 -0.5238  0.2077
15714SOL     OW49030   5.456   7.388   4.442 -0.2010  0.5838 -0.2018
15714SOL    HW149031   5.418   7.406   4.532 -0.6430 -0.2356 -0.2236
15714SOL    HW249032   5.534   7.326   4.450 -0.3626  0.3519 -0.3993
15715SOL     OW49033   3.286   6.236   2.173  0.3280 -0.2130  0.3835
15715SOL    HW149034   3.193   6.223   2.139  0.2485 -0.1816  0.5884
15715SOL    HW249035   3.316   6.330   2.153  0.0645 -0.0129  0.9182
15717SOL     OW49036   2.281   9.746   0.361 -0.9617  0.6985  0.0519
15717SOL    HW149037   2.209   9.688   0.400  0.1172 -1.2382 -0.7652
15717SOL    HW249038   2.257   9.770   0.267 -0.2276 -0.5199 -0.4521
15718SOL     OW49039   0.202   7.355   2.977 -0.4720 -0.6139  0.7092
15718SOL    HW149040   0.268   7.383   3.047 -0.9216 -1.2515  1.3947
15718SOL    HW249041   0.140   7.286   3.015 -1.4537 -0.1196  0.0352
15719SOL     OW49042   9.491   6.237   0.090  0.3568  0.1922 -0.2483
15719SOL    HW149043   9.423   6.294   0.136 -0.7195  0.2202 -1.8364
15719SOL    HW249044   9.496   6.148   0.134  1.4230  1.2053  1.7111
15720SOL     OW49045   1.375   9.840   0.543 -0.1349 -0.3892 -0.5570
15720SOL    HW149046   1.384   9.804   0.450  0.9997 -0.3657 -0.4682
15720SOL    HW249047   1.357   9.765   0.606  0.6417 -0.6114 -0.5912
15721SOL     OW49048   1.981   4.305   1.933  0.0177  0.3327  0.2220
15721SOL    HW149049   1.987   4.207   1.950 -0.5946  0.3693  0.6498
15721SOL    HW249050   1.885   4.334   1.936  0.4128  1.4810  3.0484
15722SOL     OW49051   4.197   6.336   2.529 -0.3363 -0.2160  0.0132
15722SOL    HW149052   4.221   6.431   2.506  1.9902 -0.1137  2.6268
15722SOL    HW249053   4.265   6.274   2.490  0.4580 -0.4604  1.7452
15723SOL     OW49054   7.207   5.135   3.152  0.3273  0.1741  0.5437
15723SOL    HW149055   7.149   5.105   3.227 -0.4420  1.2739  0.3969
15723SOL    HW249056   7.166   5.214   3.107 -0.9904 -2.4762 -3.1997
15724SOL     OW49057   5.482   9.127   1.505  0.5817 -0.1456 -0.1742
15724SOL    HW149058   5.399   9.126   1.448  0.5934 -1.8153 -0.1968
15724SOL    HW249059   5.460   9.090   1.595  1.4107 -1.1244 -0.3628
15725SOL     OW49060   0.485   9.778   4.240 -0.6715  0.1394  0.2476
15725SOL    HW149061   0.440   9.690   4.253 -1.9817  0.7205 -0.3061
15725SOL    HW249062   0.584   9.765   4.244 -0.8718 -1.0725  1.9428
15727SOL     OW49063   2.320   6.782   6.243 -0.1888 -0.3251 -0.4232
15727SOL    HW149064   2.268   6.708   6.201  0.0566 -1.0845  0.5924
15727SOL    HW249065   2.416   6.777   6.213 -0.0411 -0.7875  0.1324
15728SOL     OW49066   4.803   0.073   4.474  0.0602 -0.0070 -0.4073
15728SOL    HW149067   4.897   0.096   4.498 -0.8081  1.9244  1.3391
15728SOL    HW249068   4.787  -0.024   4.491  1.4195 -0.0982  0.4454
15729SOL     OW49069   2.840   5.396   3.161 -0.3752 -0.5501  0.2647
15729SOL    HW149070   2.868   5.456   3.086 -0.4295  2.2660  2.4143
15729SOL    HW249071   2.741   5.385   3.159 -0.2306 -1.7288 -0.9574
15731SOL     OW49072   3.649   7.550   3.587 -0.1755 -0.8759 -0.3970
15731SOL    HW149073   3.711   7.472   3.582 -2.9324 -3.0917 -1.4772
15731SOL    HW249074   3.616   7.560   3.681  2.2221  0.7237  0.3306
15732SOL     OW49075   5.252   5.165   0.332  0.3106  0.2922  0.1769
15732SOL    HW149076   5.243   5.070   0.303 -0.4499 -0.2875  2.2527
15732SOL    HW249077   5.348   5.188   0.342  0.4828 -0.4057  0.1557
15733SOL     OW49078   1.020   1.565   2.534  0.1899 -0.3270 -0.7548
15733SOL    HW149079   1.051   1.588   2.441 -0.8179 -1.9923 -1.5193
15733SOL    HW249080   1.015   1.648   2.589  0.0444  0.7887 -2.4204
15735SOL     OW49081   1.675   6.405   6.507  0.2999 -0.2359  0.1159
15735SOL    HW149082   1.632   6.318   6.530 -0.0152 -0.1592 -0.1849
15735SOL    HW249083   1.608   6.479   6.520  0.1191 -0.1904 -1.0612
15737SOL     OW49084   7.509   9.875   4.147 -0.2014  0.6071 -0.8336
15737SOL    HW149085   7.473   9.786   4.119 -1.0614  0.1847  1.4929
15737SOL    HW249086   7.566   9.863   4.228  0.4515  2.0649 -1.0643
15738SOL     OW49087   1.863   1.244   1.756  0.2306  0.6453 -0.2444
15738SOL    HW149088   1.806   1.326   1.755 -0.6273  0.0596 -0.0559
15738SOL    HW249089   1.917   1.241   1.840 -1.0720  0.1201  0.5894
15739SOL     OW49090   1.217   5.466   0.757 -0.1409  0.1899  0.1847
15739SOL    HW149091   1.126   5.463   0.715 -0.4748  0.4659  0.8896
15739SOL    HW249092   1.259   5.375   0.751  0.7588  0.7443 -2.8103
15740SOL     OW49093   0.710   0.817   7.032  0.6972  0.0564  0.3235
15740SOL    HW149094   0.796   0.860   7.056  0.8795 -1.2337  2.1058
15740SOL    HW249095   0.679   0.758   7.107 -1.9334  0.7852 -0.1207
15741SOL     OW49096   4.428   8.712   2.232 -0.1249  0.2602  0.3917
15741SOL    HW149097   4.385   8.693   2.320  0.4634 -1.8199  0.2570
15741SOL    HW249098   4.518   8.754   2.247 -0.0910  0.0513  0.7822
15742SOL     OW49099   9.157   0.813   4.400 -0.4825 -0.3525  0.1177
15742SOL    HW149100   9.115   0.828   4.311  3.9443  2.5582 -1.6978
15742SOL    HW249101   9.205   0.725   4.400  1.8421  0.8433 -1.5038
15743SOL     OW49102   4.767   9.335   6.630 -0.1952  0.0208 -0.2039
15743SOL    HW149103   4.690   9.365   6.574 -0.0853  0.0432 -0.3433
15743SOL    HW249104   4.845   9.314   6.571 -0.5156 -1.2788 -0.1864
15744SOL     OW49105   3.280   1.416   0.213  0.1484  0.0575  0.2379
15744SOL    HW149106   3.286   1.381   0.120 -3.0496  1.8717 -0.7517
15744SOL    HW249107   3.244   1.510   0.211 -0.8180 -0.1853  3.3378
15746SOL     OW49108   9.153   7.735   6.310 -0.4673 -0.0726 -0.5068
15746SOL    HW149109   9.192   7.826   6.323 -0.8420 -0.0003  0.1024
15746SOL    HW249110   9.141   7.718   6.212 -2.0914  1.2437 -0.5580
15747SOL     OW49111   9.160   9.048   0.341  0.0406  0.1917  0.1360
15747SOL    HW149112   9.194   8.955   0.352 -0.2950  0.0451 -0.0596
15747SOL    HW249113   9.145   9.067   0.244 -1.0976  0.0150  0.2765
15749SOL     OW49114   9.434   5.745   4.421 -0.6512 -0.2872  0.9650
15749SOL    HW149115   9.498   5.818   4.398 -0.8691 -0.6273 -0.7960
15749SOL    HW249116   9.484   5.668   4.461  0.2036 -0.9817 -1.3856
15750SOL     OW49117   2.991   8.917   3.057  0.4137  0.0960 -0.3398
15750SOL    HW149118   3.076   8.870   3.079  1.6994  1.1993 -2.7663
15750SOL    HW249119   3.008   8.985   2.986 -2.0559  1.9404  0.7495
15751SOL     OW49120   0.295   0.273   2.141 -0.1869  0.1031 -0.1556
15751SOL    HW149121   0.308   0.200   2.209  0.3239  1.5667  1.3460
15751SOL    HW249122   0.362   0.346   2.158 -0.8033  0.9945 -1.5445
15752SOL     OW49123   6.920   0.888   5.611  0.2580 -0.2208  0.0511
15752SOL    HW149124   6.832   0.843   5.604  0.0993 -0.1907  1.6835
15752SOL    HW249125   6.909   0.987   5.599 -0.0136 -0.1617  0.7549
15753SOL     OW49126   9.990   2.739   4.471  0.5592 -0.4594 -0.5390
15753SOL    HW149127   9.966   2.687   4.553  0.3576  1.4154  0.6195
15753SOL    HW249128   9.952   2.694   4.390  0.1434 -1.9307  0.4599
15754SOL     OW49129   7.919   6.846   0.393 -0.5412  0.8738 -0.1465
15754SOL    HW149130   8.010   6.829   0.430  0.7877  0.3132 -3.5012
15754SOL    HW249131   7.901   6.945   0.392  0.1473  1.0040  0.2787
15756SOL     OW49132   9.215   3.650   3.237 -0.0614  0.2410  0.0687
15756SOL    HW149133   9.220   3.740   3.195 -1.3430  1.0449  1.5803
15756SOL    HW249134   9.182   3.583   3.170  1.9471  0.6463 -1.3790
15757SOL     OW49135   1.655   4.711   0.793 -0.1871  0.3383 -0.1167
15757SOL    HW149136   1.670   4.804   0.758  0.5169 -0.2117 -1.3174
15757SOL    HW249137   1.651   4.647   0.716  0.9679 -0.8426  0.7820
15758SOL     OW49138   4.512   9.008   7.052  0.4614  0.2408  0.5828
15758SOL    HW149139   4.473   8.982   7.141  1.0306  1.2962  1.1473
15758SOL    HW249140   4.516   8.927   6.993  0.0818 -0.4735  1.5153
15760SOL     OW49141   6.626   8.052   2.946 -0.0261 -0.0376 -0.3940
15760SOL    HW149142   6.708   8.047   2.890  0.1254  0.4397 -0.2172
15760SOL    HW249143   6.651   8.042   3.043 -0.4179 -2.1367 -0.4741
15761SOL     OW49144   4.052   4.836   1.701  0.6320 -0.4073  0.7234
15761SOL    HW149145   4.008   4.906   1.644  2.5860 -0.4384 -0.8857
15761SOL    HW249146   3.983   4.789   1.755 -1.2124  0.0513 -1.1664
15762SOL     OW49147   3.609   6.101   7.199  0.2939 -0.4807  0.0929
15762SOL    HW149148   3.521   6.096   7.151  1.0001 -0.2370 -1.2441
15762SOL    HW249149   3.648   6.010   7.207  1.4144 -0.2410 -2.1717
15763SOL     OW49150   1.695   0.192   2.442 -0.1890  0.2497 -0.4629
15763SOL    HW149151   1.642   0.239   2.512 -0.4217 -2.0151  0.9328
15763SOL    HW249152   1.792   0.194   2.467 -0.1396  0.4031 -0.6628
15764SOL     OW49153   0.066   4.104   2.636  0.1957 -0.1747 -0.0610
15764SOL    HW149154  -0.000   4.162   2.589  0.0590 -0.7329 -0.5716
15764SOL    HW249155   0.022   4.019   2.665  0.7106 -0.6080 -0.5244
15765SOL     OW49156   8.210   4.537   6.941  0.2448 -0.2218  0.5019
15765SOL    HW149157   8.117   4.562   6.968  0.5015  0.9423  0.3584
15765SOL    HW249158   8.238   4.455   6.991  0.1977  1.0758  2.7423
15766SOL     OW49159   9.081   9.889   2.899  0.4270  0.1116 -0.1810
15766SOL    HW149160   9.024   9.949   2.843  0.2240 -0.2495 -0.3673
15766SOL    HW249161   9.109   9.810   2.844  1.2128  0.3494 -0.1291
15767SOL     OW49162   2.977   1.964   5.172  0.6002 -0.2447 -0.5889
15767SOL    HW149163   2.882   1.995   5.169  0.5960  0.1249  2.0625
15767SOL    HW249164   3.031   2.014   5.104 -0.6742  1.0454 -0.6698
15768SOL     OW49165   2.420   3.403   1.190  0.1187 -0.6109  0.1055
15768SOL    HW149166   2.390   3.443   1.103  2.4110  0.7974 -0.0885
15768SOL    HW249167   2.436   3.305   1.178  0.4340 -0.4228 -1.0810
15769SOL     OW49168   0.073   2.295   2.780 -0.1009  0.0764  0.3368
15769SOL    HW149169   0.024   2.321   2.863 -1.6040  0.2831 -0.5906
15769SOL    HW249170   0.136   2.367   2.754  0.4592 -0.0422  1.3692
15770SOL     OW49171   7.221   3.563   3.252  0.6230  0.4527  0.1093
15770SOL    HW149172   7.272   3.553   3.167  1.2911  1.3458  0.3907
15770SOL    HW249173   7.274   3.522   3.327 -0.0228 -0.4555  0.0846
15771SOL     OW49174   9.678   1.431   2.829  0.2143  0.2592 -0.0024
15771SOL    HW149175   9.596   1.374   2.818  1.4805 -1.4502 -0.8212
15771SOL    HW249176   9.718   1.414   2.918 -0.0320  0.7182  0.1969
15772SOL     OW49177   1.789   0.839   5.343  0.0900 -0.1327  0.2093
15772SOL    HW149178   1.875   0.869   5.302 -0.7768 -0.6978 -2.0542
15772SOL    HW249179   1.736   0.919   5.371  0.6814  0.2483  0.2464
15773SOL     OW49180   7.393   3.110   1.121  0.5253  0.3237 -0.4135
15773SOL    HW149181   7.333   3.165   1.179 -0.1839 -0.1857 -0.6522
15773SOL    HW249182   7.358   3.110   1.028  0.4605 -0.6292 -0.3889
15774SOL     OW49183   4.474   0.066   4.803 -0.1702 -0.0602  0.1839
15774SOL    HW149184   4.462   0.115   4.890  2.0068 -1.7504  1.4801
15774SOL    HW249185   4.485   0.133   4.729 -0.8728  1.4042  1.3642
15777SOL     OW49186   7.713   1.006   2.964  0.1379  0.3349 -0.4440
15777SOL    HW149187   7.670   1.067   3.031 -0.3995 -1.8368  1.2343
15777SOL    HW249188   7.768   1.060   2.900  1.7234  2.3536  2.5279
15778SOL     OW49189   6.476   1.329   6.738 -0.1100  0.0704  0.1216
15778SOL    HW149190   6.501   1.412   6.688  0.8343  0.7780  1.7469
15778SOL    HW249191   6.546   1.308   6.806 -1.3791 -0.8805  1.1670
15779SOL     OW49192   7.367   3.057   5.199  0.1058 -0.8116  0.9298
15779SOL    HW149193   7.343   2.961   5.181  1.3579 -0.8793 -0.4559
15779SOL    HW249194   7.289   3.115   5.175  0.0897 -1.3181 -0.3068
15780SOL     OW49195   6.229   5.456   0.549  0.7577 -0.0352  0.3593
15780SOL    HW149196   6.234   5.556   0.550  1.1038 -0.0371 -0.7689
15780SOL    HW249197   6.143   5.428   0.506  0.6987 -0.2321  0.6034
15781SOL     OW49198   4.066   6.599   3.482  0.6948  0.4363 -0.5825
15781SOL    HW149199   4.076   6.501   3.496 -0.8322  0.4552  0.8669
15781SOL    HW249200   3.969   6.622   3.475  0.8746  2.1278  1.6471
15782SOL     OW49201   6.193   0.228   2.350  0.2316  0.0461  0.5521
15782SOL    HW149202   6.281   0.197   2.313  0.4968 -0.1597  1.3456
15782SOL    HW249203   6.120   0.205   2.286  0.9255  1.5832 -0.8481
15783SOL     OW49204   8.814   0.573   2.625 -0.2191 -0.2740 -0.0849
15783SOL    HW149205   8.755   0.587   2.704 -0.1992 -0.0397 -0.1121
15783SOL    HW249206   8.905   0.610   2.644 -0.2541 -0.0865 -0.2698
15785SOL     OW49207   8.656   4.933   3.575 -0.0422 -0.1485  0.1937
15785SOL    HW149208   8.746   4.893   3.563 -0.2814 -0.6806  0.1334
15785SOL    HW249209   8.588   4.860   3.586 -0.4901  0.2391  0.0545
15787SOL     OW49210   3.969   7.520   1.747 -0.1951  0.3506  0.3051
15787SOL    HW149211   3.978   7.446   1.814  0.7515  1.3750  1.3344
15787SOL    HW249212   3.875   7.524   1.714 -0.3896 -0.9516  0.6457
15788SOL     OW49213   9.560   6.951   0.889 -0.4099  0.0053 -0.5799
15788SOL    HW149214   9.511   7.037   0.870 -1.0692  0.0666  1.3071
15788SOL    HW249215   9.516   6.904   0.965  2.3456 -0.0436  1.0559
15789SOL     OW49216   7.297   7.652   4.347 -0.4067 -0.5369 -0.7772
15789SOL    HW149217   7.383   7.695   4.319  1.2347 -1.9885  1.8678
15789SOL    HW249218   7.282   7.569   4.294  0.1211 -0.6026 -0.8220
15790SOL     OW49219   0.443   4.518   1.886 -0.3121  0.3577  0.1712
15790SOL    HW149220   0.521   4.536   1.946 -0.8080  0.5963  0.7496
15790SOL    HW249221   0.461   4.557   1.795 -0.1476  1.2343  0.5757
15791SOL     OW49222   1.413   7.154   4.634 -0.5867 -0.1927  0.1827
15791SOL    HW149223   1.413   7.210   4.551  1.0933 -0.5092 -0.0529
15791SOL    HW249224   1.375   7.064   4.613  0.8506 -0.6498 -0.5314
15793SOL     OW49225   4.915   7.807   2.598 -0.3076 -0.4891  0.1784
15793SOL    HW149226   4.915   7.830   2.695 -1.2263  1.7818 -0.3271
15793SOL    HW249227   4.822   7.813   2.562 -0.0145 -1.5456 -0.7848
15795SOL     OW49228   0.359   7.478   0.469 -0.4912 -0.5522 -0.0943
15795SOL    HW149229   0.299   7.552   0.500  1.6621  1.4863 -0.6695
15795SOL    HW249230   0.384   7.494   0.374 -2.1956 -3.5328 -1.1051
15796SOL     OW49231   2.784   4.822   0.803 -0.1793 -0.3658 -0.3299
15796SOL    HW149232   2.794   4.922   0.804 -2.3543 -0.1144 -1.1190
15796SOL    HW249233   2.788   4.789   0.709  0.1928 -0.9859 -0.0970
15797SOL     OW49234   1.045   7.617   1.124 -0.6710 -0.2685  0.0627
15797SOL    HW149235   1.117   7.589   1.188 -0.6260 -2.1538 -0.7550
15797SOL    HW249236   1.080   7.690   1.065 -0.7423  1.5354  2.1870
15799SOL     OW49237   4.272   6.326   3.531 -0.4869  0.2446  0.0935
15799SOL    HW149238   4.196   6.333   3.596  0.3542  1.9553  0.9126
15799SOL    HW249239   4.334   6.403   3.544  1.6216 -1.3556 -0.2803
15800SOL     OW49240   1.959   5.004   0.689 -0.1016  0.2305  0.0490
15800SOL    HW149241   1.914   4.987   0.602 -0.0387  0.0653  0.0485
15800SOL    HW249242   1.975   4.917   0.736  0.7051  0.2467 -0.1918
15801SOL     OW49243   9.669   2.401   6.239  0.3391 -0.4634  0.2033
15801SOL    HW149244   9.570   2.390   6.250  0.2717  0.0711  0.1527
15801SOL    HW249245   9.703   2.334   6.173 -0.1877  0.1440 -0.7084
15803SOL     OW49246   2.915   2.759   7.932  0.5309 -0.0602 -0.1654
15803SOL    HW149247   2.818   2.749   7.910  0.1950 -1.6352  1.8386
15803SOL    HW249248   2.950   2.672   7.968  2.2717  0.9585  0.7025
15804SOL     OW49249   3.690   1.027   5.943  0.5761  0.1058  0.0478
15804SOL    HW149250   3.676   1.060   5.849  0.5392 -2.2316 -0.7964
15804SOL    HW249251   3.787   1.005   5.956  0.8731  1.8945  1.0873
15806SOL     OW49252   1.942   7.462   6.206 -0.2568  0.0814  0.6550
15806SOL    HW149253   1.903   7.554   6.208  2.0944  1.1920 -1.6523
15806SOL    HW249254   2.003   7.450   6.285 -0.9991  0.2648  1.2666
15807SOL     OW49255   3.806   8.793   0.910 -0.1156 -0.2020 -0.1122
15807SOL    HW149256   3.773   8.887   0.911  0.2680 -0.0764  0.9979
15807SOL    HW249257   3.902   8.790   0.938 -0.2829 -0.9791  0.4072
15808SOL     OW49258   1.273   9.913   2.187  0.0140  0.5952 -0.1509
15808SOL    HW149259   1.323   9.925   2.101  0.1848 -2.7901 -0.5857
15808SOL    HW249260   1.175   9.925   2.170  0.1908  1.7196 -0.4262
15809SOL     OW49261   7.126   9.652   5.431 -0.5365 -0.2669  0.1399
15809SOL    HW149262   7.041   9.606   5.407 -0.6113 -0.7067  1.2474
15809SOL    HW249263   7.113   9.751   5.425 -1.0689 -0.3372  0.1436
15810SOL     OW49264   0.747   8.091   6.427 -0.1038  0.1418 -0.0221
15810SOL    HW149265   0.800   8.010   6.453 -0.7123  0.2385  1.5791
15810SOL    HW249266   0.788   8.172   6.468 -0.4315  0.4517 -0.3049
15811SOL     OW49267   3.355   5.666   1.286  0.0674 -0.5517 -0.3336
15811SOL    HW149268   3.353   5.690   1.383  0.1325  1.1423 -0.7312
15811SOL    HW249269   3.442   5.624   1.264  0.4711  0.0309  0.1280
15812SOL     OW49270   9.540   9.406   7.910  0.2246 -0.4799 -0.2635
15812SOL    HW149271   9.448   9.442   7.900  0.1997 -0.5562 -0.3127
15812SOL    HW249272   9.605   9.468   7.866  0.2494 -0.1749  0.2044
15813SOL     OW49273   0.485   4.075   6.711 -0.3541 -0.4199  0.7311
15813SOL    HW149274   0.417   4.103   6.779  1.2976 -0.5808  2.5068
15813SOL    HW249275   0.571   4.124   6.728 -0.2935  0.5597 -2.1138
15814SOL     OW49276   7.777   7.765   4.962  0.5741 -0.6498  1.0202
15814SOL    HW149277   7.819   7.734   5.047  0.6120  0.6684  1.4927
15814SOL    HW249278   7.701   7.827   4.983  0.0728 -0.9456  0.1081
15815SOL     OW49279   4.378   2.454   4.900 -0.6598  0.5777 -0.8334
15815SOL    HW149280   4.363   2.363   4.938  0.6556  0.7674  0.1811
15815SOL    HW249281   4.301   2.479   4.842 -0.8475 -1.3334 -1.4280
15816SOL     OW49282   6.597   9.131   3.108  0.2041  0.4032  1.2105
15816SOL    HW149283   6.512   9.182   3.093 -1.0474 -0.7717  3.9093
15816SOL    HW249284   6.653   9.180   3.174  1.6501  1.1541 -0.5382
15817SOL     OW49285   8.597   8.493   4.038  0.5244  0.2964 -0.2331
15817SOL    HW149286   8.570   8.414   3.984  2.4591 -0.8579  0.4326
15817SOL    HW249287   8.665   8.547   3.989  1.9939 -0.5389  0.8297
15818SOL     OW49288   6.429   0.315   3.145  0.2814  0.0182  0.0865
15818SOL    HW149289   6.423   0.286   3.240 -0.2325 -0.4811 -0.0863
15818SOL    HW249290   6.365   0.260   3.090  0.5606  0.3112 -0.5381
15820SOL     OW49291   8.323   7.532   3.834 -0.1704 -0.2129 -0.1096
15820SOL    HW149292   8.394   7.511   3.766 -0.4628  1.4453 -0.9390
15820SOL    HW249293   8.242   7.569   3.788 -0.2539  1.2383  1.1660
15821SOL     OW49294   8.535   9.063   5.218  0.2569  0.4466  0.3001
15821SOL    HW149295   8.608   9.042   5.282  0.4823  0.4792  0.0541
15821SOL    HW249296   8.519   8.983   5.159 -0.4947  0.1294  0.9196
15822SOL     OW49297   7.857   0.253   0.222 -0.3437 -0.2120  0.5746
15822SOL    HW149298   7.767   0.292   0.206 -0.4716  0.5156  2.9391
15822SOL    HW249299   7.927   0.325   0.216 -0.0479 -0.5378  0.0389
15823SOL     OW49300   3.311   2.821   2.226  0.4763 -0.1184 -0.1344
15823SOL    HW149301   3.286   2.877   2.147 -0.7573 -0.4128  0.0433
15823SOL    HW249302   3.339   2.730   2.195 -0.9963 -0.5633 -0.1561
15824SOL     OW49303   2.885   0.579   5.515  0.8552 -0.0076  0.0128
15824SOL    HW149304   2.874   0.638   5.596 -0.9091 -0.0252 -0.1945
15824SOL    HW249305   2.865   0.485   5.541  0.3550 -0.0223 -0.4318
15825SOL     OW49306   9.361   5.400   2.681  0.5019 -0.5997  0.7211
15825SOL    HW149307   9.374   5.311   2.638 -1.5499 -0.2850 -0.6277
15825SOL    HW249308   9.385   5.395   2.778 -0.1686 -2.7719  0.7975
15826SOL     OW49309   5.436   3.096   0.588  0.6224 -0.9238  0.4054
15826SOL    HW149310   5.466   3.159   0.659 -0.4507  0.1880 -0.1229
15826SOL    HW249311   5.361   3.040   0.623 -0.8626  0.6042 -0.3039
15827SOL     OW49312   4.325   5.494   4.036  0.0575  0.1071 -0.3746
15827SOL    HW149313   4.241   5.484   4.090  0.6136 -3.6563 -0.0624
15827SOL    HW249314   4.403   5.508   4.096  0.1178  0.0350 -0.4341
15828SOL     OW49315   8.551   4.697   2.035  0.8072  0.4262 -0.9551
15828SOL    HW149316   8.452   4.704   2.052  0.8084 -2.1010  0.4447
15828SOL    HW249317   8.570   4.720   1.940 -1.3671 -0.5447 -1.6710
15829SOL     OW49318   6.641   9.442   1.829 -0.0423 -0.1280  0.1180
15829SOL    HW149319   6.739   9.438   1.811 -0.0844  1.6708 -0.6145
15829SOL    HW249320   6.605   9.530   1.799 -2.1198 -1.2339 -0.7764
15832SOL     OW49321   9.587   7.130   1.280 -0.2772 -0.7151 -0.2217
15832SOL    HW149322   9.511   7.067   1.297 -1.3803  1.2361  2.3219
15832SOL    HW249323   9.673   7.078   1.275 -1.3426 -2.5734  0.3606
15833SOL     OW49324   0.233   3.239   6.628 -0.3771 -0.6323  0.4066
15833SOL    HW149325   0.156   3.303   6.630 -1.5166 -1.9647  0.2124
15833SOL    HW249326   0.250   3.204   6.720 -0.8582 -1.3269  0.2342
15835SOL     OW49327   8.797   5.043   5.469 -0.1759 -0.3867 -0.0968
15835SOL    HW149328   8.716   5.070   5.521  0.3710  1.9354 -0.3874
15835SOL    HW249329   8.843   5.125   5.434  2.1107 -1.6822 -0.2293
15836SOL     OW49330   8.809   7.034   0.421 -0.1484 -0.2358 -0.2129
15836SOL    HW149331   8.780   7.056   0.515  0.4142  0.4199 -0.1968
15836SOL    HW249332   8.731   6.994   0.372 -1.0452  1.2969 -0.0922
15837SOL     OW49333   2.137   3.631   6.440 -0.2200 -0.1013  0.1574
15837SOL    HW149334   2.140   3.708   6.377 -0.3717 -2.3623 -2.7168
15837SOL    HW249335   2.042   3.610   6.463 -0.3449 -0.9877 -1.0998
15838SOL     OW49336   9.111   1.411   2.270 -0.0149 -0.0942  0.1378
15838SOL    HW149337   9.149   1.480   2.208 -1.7720  0.8465  0.0577
15838SOL    HW249338   9.047   1.352   2.220 -0.0784 -0.4674  0.6551
15839SOL     OW49339   0.312   7.613   1.473 -0.4702  0.6362  0.0520
15839SOL    HW149340   0.343   7.519   1.491 -5.1659 -1.0841 -0.1583
15839SOL    HW249341   0.349   7.644   1.385  0.4535 -1.3635 -0.2909
15840SOL     OW49342   8.183   7.575   0.909  1.2958  0.1286  0.4421
15840SOL    HW149343   8.149   7.670   0.910  0.2992 -0.2339  1.6824
15840SOL    HW249344   8.185   7.542   0.814 -1.0399  0.4587  0.2454
15842SOL     OW49345   1.504   2.112   0.211  0.5652 -0.4403  0.0394
15842SOL    HW149346   1.594   2.153   0.197  0.7625 -0.5815  0.8542
15842SOL    HW249347   1.499   2.073   0.303 -0.9814  1.2261  0.6866
15843SOL     OW49348   0.593   6.151   1.465  0.0463  0.2958 -0.0871
15843SOL    HW149349   0.563   6.062   1.431  0.9216 -0.2594  0.5646
15843SOL    HW249350   0.669   6.184   1.408 -0.3414  0.6741 -0.3878
15844SOL     OW49351   3.147   1.256   4.960  0.3154 -0.8559  0.1405
15844SOL    HW149352   3.055   1.241   4.995  0.4628 -1.7416  0.1592
15844SOL    HW249353   3.204   1.177   4.983  0.8499 -0.6960 -0.6446
15845SOL     OW49354   7.191   0.461   5.166 -0.0937  0.0890 -0.7547
15845SOL    HW149355   7.091   0.469   5.165 -0.1009  1.2070  2.2699
15845SOL    HW249356   7.232   0.548   5.142  0.1405 -0.0677 -0.9258
15846SOL     OW49357   5.760   9.191   2.802 -0.4330  0.0243  0.3167
15846SOL    HW149358   5.695   9.229   2.737 -2.1792 -1.5232  1.1262
15846SOL    HW249359   5.750   9.092   2.805  1.7670 -0.2140  0.6903
15847SOL     OW49360   4.334   0.830   2.274  0.3242 -0.1245 -0.6679
15847SOL    HW149361   4.407   0.778   2.229  1.4209  1.5307 -0.8281
15847SOL    HW249362   4.311   0.910   2.218  0.1182  0.7051  0.5987
15849SOL     OW49363   0.944   9.282   4.907  0.6273  0.0461  0.9070
15849SOL    HW149364   0.941   9.197   4.960 -0.1471  0.2519  1.1977
15849SOL    HW249365   0.854   9.326   4.910  1.7727  2.3076  3.0793
15850SOL     OW49366   3.317   0.938   5.701 -0.1583 -0.1121  0.1473
15850SOL    HW149367   3.273   0.853   5.729  0.3565 -0.4299 -0.0009
15850SOL    HW249368   3.341   0.992   5.782 -0.8151  0.0603  0.2282
15851SOL     OW49369   1.435   8.479   7.071  0.0727 -0.2457 -0.1000
15851SOL    HW149370   1.418   8.577   7.082  0.6680 -0.0698 -0.7864
15851SOL    HW249371   1.402   8.431   7.153 -0.0926  0.5365  0.2994
15852SOL     OW49372   8.154   5.499   6.852 -0.0153 -0.4180 -0.2058
15852SOL    HW149373   8.112   5.508   6.761 -0.4946 -0.5656  0.0007
15852SOL    HW249374   8.177   5.590   6.887 -0.3320 -0.3209 -0.2428
15853SOL     OW49375   5.115   2.485   1.506 -0.0574  0.0638  0.2946
15853SOL    HW149376   5.169   2.435   1.573 -0.1918 -0.7109 -0.1765
15853SOL    HW249377   5.143   2.581   1.506  1.0624 -0.2543  0.3260
15854SOL     OW49378   7.632   3.020   3.309 -0.0393 -0.1523  0.9435
15854SOL    HW149379   7.681   3.094   3.355 -0.4960 -0.7357  2.4173
15854SOL    HW249380   7.595   2.957   3.378  0.6907 -1.9827 -0.2956
15855SOL     OW49381   9.790   1.558   2.114  0.4311  0.0545  0.3964
15855SOL    HW149382   9.847   1.479   2.135  2.2478  1.6341  1.6102
15855SOL    HW249383   9.804   1.585   2.019  1.1264 -0.0722  0.4548
15856SOL     OW49384   4.240   5.845   4.183  0.1607 -0.3072 -0.9336
15856SOL    HW149385   4.256   5.790   4.265 -1.7607 -0.7711 -0.8289
15856SOL    HW249386   4.316   5.832   4.119  1.4291 -0.3277  0.5512
15859SOL     OW49387   8.051   7.822   3.048  0.1610  0.4616 -0.2568
15859SOL    HW149388   8.084   7.730   3.067 -0.4322 -0.3033 -2.7584
15859SOL    HW249389   8.129   7.884   3.039  0.5238  0.5087  2.6478
15860SOL     OW49390   9.384   9.929   7.045  0.0099 -0.3238  0.3095
15860SOL    HW149391   9.367   9.870   7.124  0.7519 -0.9435  0.0062
15860SOL    HW249392   9.479   9.961   7.046  0.3509 -1.2596 -0.9422
15861SOL     OW49393   8.266   4.607   1.972  0.1337 -0.5360  0.5903
15861SOL    HW149394   8.204   4.665   2.024 -0.6282 -1.5021  0.7841
15861SOL    HW249395   8.305   4.659   1.896  0.0203  0.4234  1.1842
15862SOL     OW49396   4.049   7.417   2.128 -0.8110  0.1425  0.4289
15862SOL    HW149397   4.092   7.504   2.153  0.6510 -0.5775  0.4633
15862SOL    HW249398   4.070   7.349   2.198 -2.0882 -0.1965  0.4783
15863SOL     OW49399   2.797   6.820   4.768  0.8875 -0.0037  0.6633
15863SOL    HW149400   2.709   6.775   4.759 -0.8228  2.9242  2.1118
15863SOL    HW249401   2.844   6.821   4.680  0.3939 -3.2988  0.3086
15864SOL     OW49402   3.854   3.760   6.167 -0.1953 -0.0498  0.2383
15864SOL    HW149403   3.923   3.832   6.168 -0.5206  0.2598  0.7920
15864SOL    HW249404   3.899   3.671   6.179  0.1126  0.1469  0.5490
15865SOL     OW49405   0.590   8.423   1.695  0.2932 -0.0539 -0.0746
15865SOL    HW149406   0.587   8.337   1.644  0.0477 -0.2512  0.2680
15865SOL    HW249407   0.530   8.490   1.651  1.8078  0.5057 -1.3409
15866SOL     OW49408   4.588   1.872   7.653 -0.3469  0.1819 -0.3500
15866SOL    HW149409   4.509   1.813   7.667  0.6999 -0.9195  1.0520
15866SOL    HW249410   4.601   1.888   7.555 -2.2507  0.3193 -0.5923
15868SOL     OW49411   3.918   7.613   3.227  0.3814  0.3150 -0.2381
15868SOL    HW149412   3.996   7.668   3.197  0.0285  0.4282 -0.9379
15868SOL    HW249413   3.873   7.573   3.148 -1.0916  1.3356  0.0757
15869SOL     OW49414   4.084   9.708   7.231  0.0114  0.1959  0.1803
15869SOL    HW149415   4.135   9.700   7.317  0.3263 -1.3152 -0.1389
15869SOL    HW249416   4.122   9.783   7.177  1.4997 -0.5113  0.2232
15870SOL     OW49417   7.235   5.162   7.065 -0.6950 -0.3473  0.6449
15870SOL    HW149418   7.294   5.218   7.124  3.0318 -1.7747 -1.6117
15870SOL    HW249419   7.221   5.073   7.108  0.5993 -0.7823  0.1654
15873SOL     OW49420   6.185   7.540   3.384 -0.1212  0.1127 -0.0370
15873SOL    HW149421   6.094   7.568   3.414 -0.6786 -0.8387 -0.7898
15873SOL    HW249422   6.199   7.570   3.289  0.2439  0.0424 -0.0047
15875SOL     OW49423   1.447   0.007   4.540 -0.3260  0.0026 -0.7179
15875SOL    HW149424   1.469   0.022   4.636 -0.6353  1.5623 -0.8787
15875SOL    HW249425   1.532   0.002   4.487 -0.1079 -1.9182 -0.2453
15876SOL     OW49426   8.361   4.933   2.302  0.7672  0.6067  0.2782
15876SOL    HW149427   8.338   5.009   2.364  0.9557  0.0806  0.9943
15876SOL    HW249428   8.457   4.938   2.277  0.9724  0.1603  0.9531
15877SOL     OW49429   7.317   6.225   6.103  0.0545  0.4484  0.4549
15877SOL    HW149430   7.388   6.278   6.150 -0.0889 -0.1872  1.4038
15877SOL    HW249431   7.233   6.278   6.098  0.6978  1.3660 -1.0312
15879SOL     OW49432   8.878   0.141   2.449 -0.2199 -0.4906 -0.3704
15879SOL    HW149433   8.920   0.123   2.360  0.7870 -0.6727  0.1330
15879SOL    HW249434   8.868   0.240   2.462 -2.2803 -0.5197 -1.5458
15880SOL     OW49435   7.979   6.681   2.199 -0.4673 -0.3147  0.0619
15880SOL    HW149436   8.057   6.625   2.226  0.7731  0.5375 -1.6404
15880SOL    HW249437   7.935   6.642   2.119 -0.6583  0.2202 -0.0988
15881SOL     OW49438   7.890   1.721   0.246 -0.4852  0.2922 -0.3005
15881SOL    HW149439   7.822   1.732   0.319 -1.5053  0.9376 -1.3224
15881SOL    HW249440   7.884   1.799   0.184  1.4486  0.5249 -0.2095
15882SOL     OW49441   7.916   1.350   0.170  0.1907  0.1581 -0.0079
15882SOL    HW149442   7.964   1.367   0.084  1.7259 -2.9635  0.1349
15882SOL    HW249443   7.982   1.325   0.241 -1.4814 -4.2850  0.1956
15884SOL     OW49444   9.910   2.367   0.563 -0.1802 -0.1457 -0.3185
15884SOL    HW149445   9.927   2.286   0.505 -0.5975  0.1235 -0.8203
15884SOL    HW249446   9.819   2.360   0.604 -0.2150  0.0612 -0.3585
15885SOL     OW49447   1.901   5.731   6.948 -0.0738  0.5144  0.6203
15885SOL    HW149448   1.858   5.640   6.949 -1.1213  0.9125 -2.1995
15885SOL    HW249449   1.986   5.728   7.001  0.2682 -2.3240  0.0368
15887SOL     OW49450   0.551   0.879   3.793  0.2459 -0.3475 -0.0204
15887SOL    HW149451   0.571   0.868   3.695 -3.1997 -1.9182 -0.6030
15887SOL    HW249452   0.493   0.804   3.824 -1.8854  2.1675  2.3333
15888SOL     OW49453   1.466   9.471   1.003  0.0230  0.2986  0.0886
15888SOL    HW149454   1.510   9.421   1.078 -1.3310 -0.2893  0.5091
15888SOL    HW249455   1.375   9.501   1.032  0.4414  2.2003 -0.4907
15889SOL     OW49456   9.221   3.929   7.181  0.0919  0.6774  0.0828
15889SOL    HW149457   9.290   3.861   7.206  0.1949  1.0244  0.7715
15889SOL    HW249458   9.158   3.890   7.114 -0.1696 -0.2699  0.8704
15890SOL     OW49459   4.721   9.457   0.990 -0.6103  0.0166 -0.5973
15890SOL    HW149460   4.631   9.418   0.970 -0.1826 -2.0308  1.2722
15890SOL    HW249461   4.723   9.491   1.084  0.7748 -0.5665 -0.4005
15891SOL     OW49462   1.685   1.262   4.203  0.1719 -0.2976  0.1500
15891SOL    HW149463   1.683   1.356   4.238  1.2849 -0.3060  0.2507
15891SOL    HW249464   1.616   1.207   4.251  0.7844  0.0216  1.4166
15894SOL     OW49465   8.149   9.747   3.916  0.4162 -0.0200 -0.5649
15894SOL    HW149466   8.199   9.826   3.951 -1.4400  1.8279 -2.0226
15894SOL    HW249467   8.185   9.722   3.826  0.4942 -0.3685 -0.4378
15895SOL     OW49468   1.967   4.378   4.073  0.3274  0.1150 -0.2149
15895SOL    HW149469   1.997   4.361   4.167 -0.7175 -0.3142  0.0504
15895SOL    HW249470   2.013   4.314   4.011  0.5090 -0.0534  0.0923
15896SOL     OW49471   8.473   2.323   0.137  0.0516  0.4973 -0.5396
15896SOL    HW149472   8.440   2.239   0.180 -1.7163  1.2369 -0.4297
15896SOL    HW249473   8.566   2.342   0.169 -0.3646 -0.2289  1.1527
15898SOL     OW49474   2.777   1.433   5.186  0.0608  0.0637 -0.3756
15898SOL    HW149475   2.699   1.493   5.166 -0.3814 -0.6958 -0.9635
15898SOL    HW249476   2.775   1.406   5.282  1.1215  2.2169  0.2663
15901SOL     OW49477   2.533   5.851   1.778 -0.0496  0.0521  0.1812
15901SOL    HW149478   2.574   5.936   1.746 -1.1373  0.1576 -0.9594
15901SOL    HW249479   2.605   5.788   1.806  0.8733  0.4241 -1.3170
15903SOL     OW49480   3.374   6.363   0.329  0.1399  0.0729 -0.6070
15903SOL    HW149481   3.330   6.446   0.294 -1.1081  0.0283  0.7810
15903SOL    HW249482   3.319   6.325   0.404  0.9656 -1.7325 -0.8865
15904SOL     OW49483   4.779   3.874   5.535  0.3450 -0.1760 -0.1229
15904SOL    HW149484   4.696   3.912   5.497 -0.5285 -0.7642  1.1526
15904SOL    HW249485   4.859   3.920   5.496 -0.5344 -0.3117 -2.1029
15905SOL     OW49486   1.658   2.123   3.928  0.4078 -0.4686  0.2297
15905SOL    HW149487   1.700   2.082   3.846 -1.5874 -0.6817 -0.7150
15905SOL    HW249488   1.647   2.053   3.998 -0.8785 -1.0555 -0.5381
15907SOL     OW49489   1.851   9.353   4.929  0.6018 -0.5884  0.0630
15907SOL    HW149490   1.845   9.343   5.029  0.5984  0.0908  0.1330
15907SOL    HW249491   1.877   9.266   4.889  0.4666 -0.9059  0.6491
15909SOL     OW49492   0.156   2.012   3.191  0.2965 -0.3654  0.1867
15909SOL    HW149493   0.239   1.991   3.138  1.4935  0.2459  1.7758
15909SOL    HW249494   0.077   1.971   3.145  1.7089 -2.6732 -0.3266
15910SOL     OW49495   2.655   1.860   0.638 -0.2196  0.1121  0.3557
15910SOL    HW149496   2.721   1.913   0.691 -0.7190 -0.6916  1.8116
15910SOL    HW249497   2.680   1.763   0.642  0.2512  0.1299 -1.6481
15911SOL     OW49498   2.528   7.508   5.520  0.1042 -0.3691  0.2561
15911SOL    HW149499   2.444   7.497   5.468  0.3473  0.9808 -0.4553
15911SOL    HW249500   2.568   7.419   5.539 -0.5623 -0.9268 -0.9205
15912SOL     OW49501   3.827   0.427   1.252 -0.1707  0.4025 -0.3210
15912SOL    HW149502   3.868   0.340   1.276  0.3640  0.9509  0.7845
15912SOL    HW249503   3.815   0.433   1.153  0.7646 -0.4860 -0.4836
15913SOL     OW49504   1.347   9.300   6.454  0.2729  0.0120 -0.4702
15913SOL    HW149505   1.255   9.266   6.473  0.2525  0.6409  0.5858
15913SOL    HW249506   1.414   9.233   6.484  0.2091  0.4980  0.7759
15914SOL     OW49507   0.959   8.923   0.691 -0.3324  0.5919 -0.0470
15914SOL    HW149508   0.903   8.982   0.749 -0.9005 -0.4413  0.4615
15914SOL    HW249509   0.911   8.905   0.605 -0.9709 -0.6504  0.5701
15915SOL     OW49510   4.364   8.212   0.763  0.0433  0.0490  0.4573
15915SOL    HW149511   4.367   8.211   0.663 -0.7439 -0.2034  0.4341
15915SOL    HW249512   4.401   8.126   0.799 -1.6519 -0.7392  0.3270
15916SOL     OW49513   5.411   3.502   0.565  1.2525 -0.0825 -0.6556
15916SOL    HW149514   5.423   3.425   0.503 -1.8422 -1.5053  0.4526
15916SOL    HW249515   5.350   3.570   0.523 -1.4489 -1.3856  1.0228
15917SOL     OW49516   9.312   9.219   6.840 -0.0830  0.6485  0.2737
15917SOL    HW149517   9.309   9.141   6.776 -0.5619  0.6130  0.3329
15917SOL    HW249518   9.354   9.297   6.795  0.4465  0.3401  0.2268
15918SOL     OW49519   7.989   3.573   3.125 -0.3530  0.3413 -0.2696
15918SOL    HW149520   7.931   3.539   3.051  0.6548  0.5625 -1.1660
15918SOL    HW249521   8.008   3.670   3.110  0.9689  0.0604 -0.4497
15919SOL     OW49522   6.235   1.037   3.832  0.2378 -0.2804 -0.0727
15919SOL    HW149523   6.219   0.956   3.888 -0.1295 -1.6012 -2.0338
15919SOL    HW249524   6.150   1.089   3.824  1.0045  1.5952  3.0817
15921SOL     OW49525   9.250   0.460   3.452 -0.1840 -0.2566 -0.1879
15921SOL    HW149526   9.232   0.385   3.389 -1.0040  1.6869 -2.3303
15921SOL    HW249527   9.343   0.451   3.488 -0.8170 -3.1680  0.8660
15922SOL     OW49528   3.149   8.097   0.529  0.0458 -0.2902  0.0295
15922SOL    HW149529   3.097   8.019   0.495  0.8717 -0.5782 -0.5929
15922SOL    HW249530   3.224   8.064   0.586 -0.0616  0.0923  0.3943
15924SOL     OW49531   0.858   3.046   4.512  0.0875  0.0479 -0.3083
15924SOL    HW149532   0.759   3.051   4.525 -0.1219 -1.0037 -1.4150
15924SOL    HW249533   0.882   3.089   4.425  0.6047  0.3204 -0.0302
15925SOL     OW49534   2.375   4.766   4.522 -0.3501 -0.6549 -0.0729
15925SOL    HW149535   2.375   4.809   4.432  0.9402 -0.4971 -0.0089
15925SOL    HW249536   2.340   4.830   4.590  1.4665  0.2959  0.0083
15926SOL     OW49537   9.893   3.555   7.311 -0.2246  0.1715  0.3869
15926SOL    HW149538   9.933   3.591   7.396 -0.6350 -0.7538  0.9794
15926SOL    HW249539   9.964   3.546   7.242  0.3725 -0.3682  1.0694
15927SOL     OW49540   2.473   7.207   5.339 -0.0588  0.0810  0.1451
15927SOL    HW149541   2.479   7.121   5.287 -0.7262  0.2378 -0.2039
15927SOL    HW249542   2.526   7.199   5.423  1.7890  0.1425 -0.9918
15928SOL     OW49543   6.550   0.762   1.793  0.6843  0.9275  0.5076
15928SOL    HW149544   6.490   0.788   1.718  1.5726  1.0530 -0.1703
15928SOL    HW249545   6.527   0.815   1.875 -0.8188  0.2001  0.5580
15932SOL     OW49546   3.364   2.047   2.240 -0.0040  0.9208  0.4011
15932SOL    HW149547   3.353   1.971   2.304  0.1853  0.3395 -0.2407
15932SOL    HW249548   3.458   2.048   2.206 -0.1748  1.0568 -0.0737
15933SOL     OW49549   1.272   4.120   6.744 -0.3581 -0.2321 -0.0527
15933SOL    HW149550   1.239   4.175   6.821  0.7000  0.0046  0.2278
15933SOL    HW249551   1.274   4.177   6.662 -0.8471 -0.3055 -0.1193
15934SOL     OW49552   4.450   7.662   0.437  0.4291 -0.0272 -0.4885
15934SOL    HW149553   4.365   7.610   0.449 -0.1159  0.9470 -0.0476
15934SOL    HW249554   4.527   7.607   0.470 -0.2935 -0.0516  1.2254
15935SOL     OW49555   8.549   1.266   1.274 -0.7349 -0.0530  0.0044
15935SOL    HW149556   8.585   1.274   1.367 -0.1328  0.3682 -0.2628
15935SOL    HW249557   8.449   1.257   1.278 -0.6930 -0.2356  0.7007
15936SOL     OW49558   1.565   2.772   3.076  0.0923 -0.4366  0.3799
15936SOL    HW149559   1.503   2.702   3.110  1.4414 -1.7590  0.1251
15936SOL    HW249560   1.612   2.815   3.153 -0.0531 -0.4308  0.4661
15937SOL     OW49561   8.407   1.139   3.987 -0.1830  0.2365  0.3790
15937SOL    HW149562   8.327   1.200   3.985  0.2961  0.8348 -1.3904
15937SOL    HW249563   8.449   1.143   4.077 -0.2871  2.3939  0.3643
15939SOL     OW49564   1.492   3.914   1.462 -0.0645  0.9673 -0.2481
15939SOL    HW149565   1.396   3.943   1.471  0.1281  1.3801  0.5183
15939SOL    HW249566   1.526   3.885   1.552  0.4199  0.4602 -0.5919
15940SOL     OW49567   5.054   2.484   7.139  0.2258 -0.4847  0.0435
15940SOL    HW149568   5.127   2.536   7.182 -0.2311 -0.0632  0.3151
15940SOL    HW249569   5.000   2.438   7.209  0.5433 -1.2161 -0.1872
15941SOL     OW49570   3.780   4.937   0.734 -0.0782  0.3193  0.0645
15941SOL    HW149571   3.689   4.899   0.751  0.2619 -0.6036 -0.1034
15941SOL    HW249572   3.800   4.933   0.636  0.7516 -0.9479  0.2659
15943SOL     OW49573   0.203   4.028   4.985 -0.5028 -0.7260  0.1298
15943SOL    HW149574   0.191   4.099   4.916  1.9472  0.2032  0.6020
15943SOL    HW249575   0.235   4.070   5.070 -2.0861 -2.0225  1.3994
15944SOL     OW49576   7.060   2.329   0.251  0.2036 -0.0276 -0.4241
15944SOL    HW149577   7.037   2.237   0.282  1.2798 -0.4636 -0.8857
15944SOL    HW249578   7.081   2.327   0.154 -1.0559  0.9513 -0.7383
15945SOL     OW49579   8.611   5.750   5.954 -0.3731 -0.5613  0.3313
15945SOL    HW149580   8.674   5.808   6.005 -2.3388  0.6449  1.4788
15945SOL    HW249581   8.539   5.808   5.914 -0.8163 -1.9097 -0.8349
15946SOL     OW49582   4.055   2.254   1.928  0.1224  0.1471  0.0089
15946SOL    HW149583   4.060   2.327   1.996 -2.1455  0.1550  0.2125
15946SOL    HW249584   3.975   2.197   1.946  0.3148 -0.7343 -1.7853
15947SOL     OW49585   1.541   9.689   1.552 -0.3120 -1.3477 -0.3231
15947SOL    HW149586   1.549   9.659   1.457 -0.9294 -2.2117 -0.1071
15947SOL    HW249587   1.457   9.651   1.591 -0.9874  0.4568  0.0218
15949SOL     OW49588   1.118   4.678   1.847  0.5541 -0.0294  0.1197
15949SOL    HW149589   1.148   4.773   1.847  0.0032  0.1478  0.6306
15949SOL    HW249590   1.065   4.660   1.765  1.7791 -0.2591 -0.6329
15950SOL     OW49591   4.684   0.618   7.367 -0.0804 -0.5730  0.1682
15950SOL    HW149592   4.604   0.662   7.325 -0.0401  1.3506  2.0229
15950SOL    HW249593   4.739   0.576   7.296 -0.6051  1.6482 -1.6260
15952SOL     OW49594   7.243   2.756   1.979  0.1333 -0.3325 -0.3454
15952SOL    HW149595   7.297   2.684   2.023  1.7993  0.8062 -0.4850
15952SOL    HW249596   7.223   2.729   1.885  0.1275 -0.9436 -0.1685
15953SOL     OW49597   9.916   2.474   6.673 -0.3398  0.3639  0.2678
15953SOL    HW149598   9.970   2.505   6.751  0.4488 -2.9590  1.0966
15953SOL    HW249599   9.820   2.465   6.699 -0.4280  1.1639  0.2543
15954SOL     OW49600   8.633   8.809   0.706  0.1506  0.3680 -0.4872
15954SOL    HW149601   8.541   8.820   0.668 -0.3886  1.2992  1.0348
15954SOL    HW249602   8.699   8.801   0.632 -0.9493  1.4860 -1.6109
15955SOL     OW49603   1.648   2.054   5.583 -0.2400  0.3269  0.6355
15955SOL    HW149604   1.559   2.019   5.614 -1.1360  1.8178 -0.1884
15955SOL    HW249605   1.696   2.097   5.659 -0.7709  0.6071  0.8145
15956SOL     OW49606   8.402   1.623   4.162 -0.0990 -0.7271 -0.0149
15956SOL    HW149607   8.392   1.601   4.065  1.0351 -0.0136 -0.3005
15956SOL    HW249608   8.465   1.700   4.173 -2.0687  0.7758  1.1470
15957SOL     OW49609   7.394   5.784   2.684 -0.0674  0.5693 -0.2214
15957SOL    HW149610   7.344   5.808   2.600 -0.2962  1.5512  0.1886
15957SOL    HW249611   7.482   5.832   2.685 -0.2973  0.9841  0.3534
15959SOL     OW49612   4.002   3.901   7.397 -0.5009  0.1694  0.0074
15959SOL    HW149613   4.100   3.890   7.383 -0.5328  0.1191 -0.1778
15959SOL    HW249614   3.954   3.891   7.310 -0.4982  2.2045 -0.2596
15960SOL     OW49615   1.284   0.267   1.229  0.0588  0.1475 -0.0640
15960SOL    HW149616   1.329   0.295   1.314 -0.8884  1.9435 -0.1328
15960SOL    HW249617   1.343   0.287   1.151  1.4998 -2.7277  0.2195
15961SOL     OW49618   9.595   4.349   3.768  0.2421  0.2703 -0.6875
15961SOL    HW149619   9.627   4.312   3.855 -1.2729  1.0841  0.2488
15961SOL    HW249620   9.652   4.426   3.741  1.2239 -0.5009 -0.8425
15962SOL     OW49621   9.543   5.074   4.051  0.6384  0.3490  0.2286
15962SOL    HW149622   9.486   5.121   4.119 -0.7389  1.1471 -1.4498
15962SOL    HW249623   9.627   5.127   4.037 -0.2960  1.6110 -0.6584
15963SOL     OW49624   7.920   5.115   1.597 -0.8055  0.4516  0.0354
15963SOL    HW149625   7.872   5.106   1.510 -1.3030  0.1673  0.3362
15963SOL    HW249626   7.981   5.036   1.610  0.9556  1.5937 -1.0800
15964SOL     OW49627   0.137   1.604   0.050  0.0252 -0.3950  0.3972
15964SOL    HW149628   0.099   1.692   0.079 -1.3647 -0.2428 -1.7232
15964SOL    HW249629   0.144   1.543   0.128 -2.1690  0.4926  1.3298
15965SOL     OW49630   0.859   4.190   1.298  0.6330 -0.2505  0.5117
15965SOL    HW149631   0.813   4.135   1.228 -0.6984 -0.8343  1.8322
15965SOL    HW249632   0.923   4.253   1.254 -1.3014  0.4711 -1.3456
15966SOL     OW49633   0.632   6.945   0.893 -0.4781  0.0649  0.0947
15966SOL    HW149634   0.666   6.945   0.800 -0.1746 -0.7660  0.2003
15966SOL    HW249635   0.590   6.856   0.913  0.5042 -0.1809  1.1203
15968SOL     OW49636   7.650   2.031   4.407 -0.5008 -0.4570  0.2930
15968SOL    HW149637   7.736   2.078   4.427  0.2586 -1.5695 -0.2830
15968SOL    HW249638   7.585   2.095   4.367  0.7941 -0.0675 -1.2467
15969SOL     OW49639   2.834   8.105   5.274 -0.0950  0.1332 -0.5529
15969SOL    HW149640   2.872   8.117   5.366 -0.2847 -2.8721 -0.0256
15969SOL    HW249641   2.735   8.119   5.276 -0.4700 -2.4123  0.2648
15970SOL     OW49642   0.229   3.803   1.688  0.1334  0.6840  0.0849
15970SOL    HW149643   0.246   3.868   1.762 -1.4093  1.3350 -0.1095
15970SOL    HW249644   0.231   3.850   1.600 -3.8230  1.1166  0.1259
15971SOL     OW49645   0.402   9.072   2.287  0.3486  0.4959  0.0563
15971SOL    HW149646   0.482   9.071   2.346 -0.9147 -0.0531  1.7898
15971SOL    HW249647   0.414   9.142   2.216  1.8029  1.2761  1.0519
15973SOL     OW49648   3.504   2.681   4.856 -0.4707 -0.4006  0.0503
15973SOL    HW149649   3.422   2.650   4.808  0.5843 -1.4013 -1.1462
15973SOL    HW249650   3.555   2.602   4.890 -0.3557  0.2392  1.3999
15974SOL     OW49651   5.693   0.366   5.968  0.1931  0.0888  0.0512
15974SOL    HW149652   5.767   0.322   6.019  0.5587  0.6556  0.0171
15974SOL    HW249653   5.614   0.305   5.965  0.4814 -0.3161  0.5232
15975SOL     OW49654   6.687   7.649   4.903  0.5166 -0.3044 -0.2604
15975SOL    HW149655   6.719   7.733   4.858 -0.5222 -0.6440 -1.6848
15975SOL    HW249656   6.641   7.672   4.989  0.4640  0.5704 -0.5216
15976SOL     OW49657   8.114   5.961   0.990 -0.1572 -0.3899  0.0177
15976SOL    HW149658   8.038   5.896   0.987  0.1179 -0.6742 -1.0395
15976SOL    HW249659   8.091   6.042   0.936 -0.9591  0.9206  2.2609
15977SOL     OW49660   5.558   6.180   0.126  0.2516 -0.0006 -0.0882
15977SOL    HW149661   5.651   6.186   0.163 -0.3131  1.0429  1.2020
15977SOL    HW249662   5.503   6.121   0.186  0.3153 -1.3619 -1.3503
15978SOL     OW49663   0.451   8.474   4.518 -0.2822 -0.0042  0.1500
15978SOL    HW149664   0.375   8.417   4.485 -0.0597 -0.5834  0.6169
15978SOL    HW249665   0.414   8.559   4.555 -0.6838 -0.1383  0.0694
15979SOL     OW49666   1.476   5.154   2.515  0.2121 -0.2486 -0.9076
15979SOL    HW149667   1.388   5.119   2.482 -0.2076  1.0150 -1.1839
15979SOL    HW249668   1.469   5.254   2.525  1.1745 -0.3228  0.4510
15980SOL     OW49669   0.074   6.473   4.638  0.1567  0.6314 -0.5379
15980SOL    HW149670   0.081   6.560   4.687 -0.0775  0.6843 -0.5984
15980SOL    HW249671   0.006   6.415   4.683  1.6606 -0.2683  0.6405
15981SOL     OW49672   1.002   4.351   0.158 -0.2871  0.5100 -0.3210
15981SOL    HW149673   1.029   4.364   0.253 -3.9365  0.2997  0.8132
15981SOL    HW249674   1.042   4.423   0.102  2.0507  0.5437  1.2944
15982SOL     OW49675   5.467   2.168   1.892  0.0496  0.5912 -0.0191
15982SOL    HW149676   5.540   2.115   1.935  0.5973  1.0866 -0.3228
15982SOL    HW249677   5.508   2.238   1.833 -0.6512 -1.0033 -2.4977
15984SOL     OW49678   5.496   0.349   3.253 -0.2874 -0.3899  0.1530
15984SOL    HW149679   5.531   0.298   3.332  0.1141  0.9658  0.8817
15984SOL    HW249680   5.448   0.431   3.285  1.3822  1.1147 -1.0108
15985SOL     OW49681   1.055   5.264   6.686  0.6729 -0.2253  0.1322
15985SOL    HW149682   1.014   5.353   6.703 -1.4223 -0.9459 -0.9373
15985SOL    HW249683   1.049   5.242   6.589  0.2465 -1.9660  0.5335
15986SOL     OW49684   6.921   1.711   2.545  0.1529 -0.3540 -0.6676
15986SOL    HW149685   6.987   1.649   2.503  1.5344  1.7058 -1.6255
15986SOL    HW249686   6.894   1.781   2.478 -2.4871 -0.7370 -0.0776
15987SOL     OW49687   3.216   5.557   0.905 -0.1586  0.0661 -0.3992
15987SOL    HW149688   3.306   5.599   0.914  0.0277 -0.5694  0.7552
15987SOL    HW249689   3.205   5.521   0.812  0.2520  1.3201 -0.9489
15991SOL     OW49690   8.776   5.724   7.692 -1.0413 -0.1873 -0.0278
15991SOL    HW149691   8.823   5.636   7.692 -1.0162 -0.1800  0.8229
15991SOL    HW249692   8.727   5.736   7.605 -0.9861 -1.0006 -0.1759
15993SOL     OW49693   9.341   5.923   2.885  0.0845  0.3287  0.1394
15993SOL    HW149694   9.353   5.898   2.981 -2.1036 -2.1406 -0.1787
15993SOL    HW249695   9.412   5.878   2.830 -0.0297 -0.0968  0.3369
15994SOL     OW49696   2.521   5.670   5.778 -0.3383  0.2265  0.2248
15994SOL    HW149697   2.609   5.712   5.800  0.4388 -1.4385  0.4103
15994SOL    HW249698   2.473   5.726   5.711  1.7086  0.2338 -1.2971
15995SOL     OW49699   9.965   0.057   3.230 -0.7939 -0.1665  0.2634
15995SOL    HW149700  10.064   0.041   3.232 -0.7718 -0.6310 -2.1558
15995SOL    HW249701   9.948   0.155   3.238 -0.1570 -0.1039  0.9517
15997SOL     OW49702   1.660   6.860   5.906 -0.2686 -0.4561 -0.1511
15997SOL    HW149703   1.700   6.769   5.889  0.3414 -0.1595 -0.3067
15997SOL    HW249704   1.673   6.884   6.002  0.0032 -0.3242 -0.2202
15998SOL     OW49705   2.363   8.256   6.950 -0.1257 -0.4708  0.3767
15998SOL    HW149706   2.440   8.201   6.919  0.9654  1.7637 -1.0631
15998SOL    HW249707   2.277   8.206   6.936  0.8145 -1.7207 -0.9855
15999SOL     OW49708   1.643   7.998   0.155 -0.2720  0.4290  0.3297
15999SOL    HW149709   1.652   8.094   0.128  0.3722  0.7467  1.6418
15999SOL    HW249710   1.662   7.939   0.077 -0.1241  1.3572 -0.3427
16000SOL     OW49711   3.456   2.342   1.383 -0.3068 -0.3296 -0.0392
16000SOL    HW149712   3.401   2.357   1.301 -0.6077 -1.9990 -0.1605
16000SOL    HW249713   3.545   2.303   1.357  0.1644  0.4727  0.3279
16001SOL     OW49714   9.237   0.220   3.734  1.1321  0.3392 -0.3201
16001SOL    HW149715   9.311   0.214   3.801  0.8250  1.7745  0.1728
16001SOL    HW249716   9.163   0.276   3.771 -0.1548 -0.9842 -0.8648
16002SOL     OW49717   0.933   7.891   7.516 -0.2639 -0.2636 -0.4677
16002SOL    HW149718   0.944   7.865   7.420  2.5239 -1.7663  0.2236
16002SOL    HW249719   0.914   7.810   7.571  2.7248 -0.1347  0.8733
16003SOL     OW49720   8.849   9.763   1.427  0.6177 -0.0577  0.0037
16003SOL    HW149721   8.815   9.857   1.434  1.1386  0.1101  0.3155
16003SOL    HW249722   8.919   9.758   1.355  0.4620 -0.2469 -0.1367
16004SOL     OW49723   0.508   3.704   2.237  0.1639  0.0971 -0.3210
16004SOL    HW149724   0.607   3.694   2.241  0.2355  0.3663 -1.1464
16004SOL    HW249725   0.484   3.767   2.162 -0.5864  0.6389  0.3643
16005SOL     OW49726   7.598   3.533   4.663  0.1956 -0.0621 -0.1210
16005SOL    HW149727   7.610   3.449   4.717  0.9974  0.2901  0.2555
16005SOL    HW249728   7.530   3.592   4.708  0.9806  0.3039  0.6099
16006SOL     OW49729   0.555   9.006   2.714 -0.0143 -0.3122  0.7812
16006SOL    HW149730   0.512   8.934   2.660 -0.8638 -0.2309  1.3526
16006SOL    HW249731   0.485   9.060   2.760  0.7102 -0.4680  2.0986
16007SOL     OW49732   0.263   8.355   5.505  0.0047  0.3612  0.2553
16007SOL    HW149733   0.266   8.292   5.583 -0.7653  0.9549  0.7727
16007SOL    HW249734   0.207   8.315   5.432 -1.7228  1.0562  1.1575
16008SOL     OW49735   2.528   1.513   4.398 -0.0466 -0.1160  0.5156
16008SOL    HW149736   2.619   1.536   4.363  0.0736 -2.0133 -0.5252
16008SOL    HW249737   2.458   1.544   4.333 -0.2036  1.8991  1.6137
16009SOL     OW49738   6.578   6.197   0.274  0.2973  0.0950 -0.3343
16009SOL    HW149739   6.655   6.133   0.279  0.7798  0.6201 -0.8973
16009SOL    HW249740   6.532   6.186   0.186 -0.9906 -1.0250  0.4679
16010SOL     OW49741   4.417   9.305   7.742 -0.5203  0.3441  0.5204
16010SOL    HW149742   4.430   9.210   7.771  0.0826 -0.9406 -3.6514
16010SOL    HW249743   4.322   9.318   7.713 -0.6433  1.0604  1.2481
16012SOL     OW49744   4.791   9.582   5.459  0.4704  0.0590 -0.1781
16012SOL    HW149745   4.830   9.502   5.413  0.9728 -0.1133  0.5258
16012SOL    HW249746   4.778   9.561   5.556 -0.4446  0.4609 -0.2160
16013SOL     OW49747   0.247   0.921   3.350  0.3778  0.1681 -0.2483
16013SOL    HW149748   0.297   1.003   3.377 -0.2620  0.0922  1.1771
16013SOL    HW249749   0.306   0.864   3.292  0.7015  1.7922 -1.5687
16015SOL     OW49750   0.736   4.412   2.348  0.0716 -0.1116 -0.2114
16015SOL    HW149751   0.734   4.318   2.313  3.9007 -0.6326  0.7789
16015SOL    HW249752   0.682   4.417   2.432 -0.5565 -1.2776 -0.5194
16016SOL     OW49753   2.964   1.303   1.823 -0.1820  0.2302  0.0367
16016SOL    HW149754   3.036   1.255   1.774 -1.5575 -1.4528 -0.3723
16016SOL    HW249755   2.994   1.322   1.916  1.9281  2.2422 -1.0023
16017SOL     OW49756   2.954   6.609   4.253 -0.0651  0.5177  0.2421
16017SOL    HW149757   2.895   6.686   4.229 -0.2201  0.1708 -0.4963
16017SOL    HW249758   2.935   6.532   4.192  3.2754  1.3869 -2.0223
16018SOL     OW49759   5.264   1.185   6.423 -0.1770  0.2574  0.2589
16018SOL    HW149760   5.217   1.174   6.335  1.7898 -0.0178 -0.7765
16018SOL    HW249761   5.297   1.096   6.455 -0.6402  0.4013  1.1394
16019SOL     OW49762   9.729   6.186   7.260  0.5761  0.5157 -0.2118
16019SOL    HW149763   9.645   6.158   7.307  1.0119  1.0371  0.9056
16019SOL    HW249764   9.765   6.110   7.208 -0.0951  0.0099  0.0597
16021SOL     OW49765   7.114   6.512   3.759 -0.1321 -0.1157 -0.2201
16021SOL    HW149766   7.196   6.550   3.801  0.1603  1.1932 -1.9141
16021SOL    HW249767   7.113   6.413   3.772  2.7068 -0.4113 -1.8139
16023SOL     OW49768   8.888   9.550   7.858  0.3304 -0.1139 -0.1241
16023SOL    HW149769   8.902   9.639   7.814  1.3543 -0.6467 -0.8945
16023SOL    HW249770   8.805   9.507   7.821 -0.1257  0.4871  0.1965
16025SOL     OW49771   2.622   3.606   2.274  0.6300 -0.4842  0.1916
16025SOL    HW149772   2.699   3.656   2.314  0.2364 -0.7585  1.3102
16025SOL    HW249773   2.553   3.671   2.241  1.0382 -0.2518 -0.2013
16026SOL     OW49774   4.632   4.699   1.133  0.1046  0.1860  0.3761
16026SOL    HW149775   4.602   4.603   1.133  0.5943  0.0300 -0.4993
16026SOL    HW249776   4.724   4.705   1.095 -0.1661  1.0771 -0.1338
16028SOL     OW49777   2.113   7.968   6.226  0.2793  0.2987  0.1534
16028SOL    HW149778   2.185   8.037   6.238  1.2482 -0.8803  1.2788
16028SOL    HW249779   2.151   7.877   6.243 -0.5483 -0.6939 -2.9806
16029SOL     OW49780   4.621   1.435   5.434 -0.1031 -0.0022 -0.0065
16029SOL    HW149781   4.591   1.446   5.339  2.7248 -0.3531 -0.9739
16029SOL    HW249782   4.658   1.343   5.447  1.9230  0.9055  0.7439
16030SOL     OW49783   5.462   8.911   5.115  0.6961 -0.8294 -0.2343
16030SOL    HW149784   5.453   8.872   5.207 -0.3537  2.0137  0.9337
16030SOL    HW249785   5.559   8.911   5.088  0.9812 -1.9441  0.7447
16031SOL     OW49786   9.972   1.262   6.884 -0.5840  0.5017  0.0107
16031SOL    HW149787   9.924   1.271   6.971  0.3013  0.8907  0.4642
16031SOL    HW249788   9.919   1.202   6.823 -1.3591  0.4761  0.6970
16032SOL     OW49789   0.209   5.713   4.444 -0.0912  0.3474  0.9505
16032SOL    HW149790   0.266   5.702   4.362 -0.3760 -0.8794  0.9040
16032SOL    HW249791   0.144   5.637   4.449 -1.5205  1.5538  1.1694
16033SOL     OW49792   7.595   3.291   4.837  0.0356 -0.3430  0.4365
16033SOL    HW149793   7.584   3.228   4.914  1.2188 -1.0453  0.0512
16033SOL    HW249794   7.619   3.239   4.755 -0.0702  0.5113 -0.1353
16034SOL     OW49795   7.312   2.934   2.234  0.1914 -0.0126 -0.0754
16034SOL    HW149796   7.278   2.847   2.199 -2.6876  1.7443 -1.8271
16034SOL    HW249797   7.363   2.918   2.318  1.8087 -3.6359 -1.6388
16035SOL     OW49798   0.165   1.332   3.806  0.3447  0.3277 -0.2938
16035SOL    HW149799   0.223   1.254   3.779 -0.6749 -0.3108 -0.6558
16035SOL    HW249800   0.102   1.303   3.877  0.8055  1.1602  0.4619
16036SOL     OW49801   1.955   9.912   6.654 -0.1316  0.0893 -0.5781
16036SOL    HW149802   2.017   9.848   6.609 -0.2383 -0.7962  0.4927
16036SOL    HW249803   1.926   9.873   6.742  0.6412  2.0857  0.5936
16037SOL     OW49804   4.466   8.348   1.170 -0.3515 -0.9317  0.7691
16037SOL    HW149805   4.393   8.389   1.225 -0.5574 -0.8688  0.4563
16037SOL    HW249806   4.434   8.338   1.076 -0.5477 -2.4113  0.9794
16038SOL     OW49807   8.420   2.375   2.317 -0.5590 -0.0196  0.0264
16038SOL    HW149808   8.324   2.369   2.291 -0.3049 -1.0352 -0.7156
16038SOL    HW249809   8.474   2.315   2.258  0.5435  0.6241  0.3738
16040SOL     OW49810   4.064   0.386   0.017 -0.3923 -0.7630  0.0187
16040SOL    HW149811   4.069   0.432   0.106 -0.6445  0.1531 -0.4309
16040SOL    HW249812   4.101   0.294   0.025 -2.2867 -1.4315  1.5642
16041SOL     OW49813   4.272   4.535   3.309  0.2769  0.1877  0.1893
16041SOL    HW149814   4.250   4.620   3.262  3.0705  1.1243  0.4679
16041SOL    HW249815   4.269   4.550   3.408  0.4589 -0.1446  0.2465
16042SOL     OW49816   6.669   9.470   3.410 -0.1306  0.0548 -0.1650
16042SOL    HW149817   6.609   9.525   3.351 -0.9540  0.6541  1.2230
16042SOL    HW249818   6.714   9.529   3.477 -0.3745 -0.8471  0.7987
16044SOL     OW49819   6.030   3.696   1.004  0.0949 -0.4492 -0.2688
16044SOL    HW149820   5.992   3.642   1.078  0.9733 -0.2426  0.3356
16044SOL    HW249821   6.130   3.695   1.009  0.1655 -0.4409 -1.4475
16045SOL     OW49822   2.708   8.321   1.518 -0.0321 -0.1301  0.5595
16045SOL    HW149823   2.663   8.274   1.442  2.0793 -0.3943 -0.5527
16045SOL    HW249824   2.697   8.419   1.507 -1.3604 -0.2185  0.9605
16046SOL     OW49825   4.771   1.756   5.163  0.1693  0.5638 -0.3967
16046SOL    HW149826   4.845   1.779   5.101  0.0757  0.8005 -0.4224
16046SOL    HW249827   4.762   1.827   5.233  1.6592 -0.7640  1.1716
16047SOL     OW49828   8.440   6.846   5.434  0.1470  0.1864  0.3524
16047SOL    HW149829   8.386   6.892   5.505  1.1022  0.7668  0.7169
16047SOL    HW249830   8.421   6.748   5.437 -0.9514  0.3887  0.4126
16049SOL     OW49831   9.247   4.017   1.319  0.3263  0.0775  0.0500
16049SOL    HW149832   9.178   3.954   1.284  1.2224 -0.5281 -0.6524
16049SOL    HW249833   9.288   3.980   1.403 -0.3957  0.5756  0.6317
16050SOL     OW49834   7.273   4.998   0.601  0.7379 -0.2033  0.2266
16050SOL    HW149835   7.202   4.932   0.578  0.2832  0.2907  0.2061
16050SOL    HW249836   7.259   5.083   0.550  2.3205 -0.6790 -1.0619
16053SOL     OW49837   9.956   6.148   6.669  0.1108  0.0767  0.0497
16053SOL    HW149838   9.907   6.190   6.745  2.0940  4.3076 -0.8802
16053SOL    HW249839  10.054   6.166   6.679  0.8470 -2.9172 -1.3571
16054SOL     OW49840   5.025   2.434   6.599 -0.1362  0.1388  0.4823
16054SOL    HW149841   5.024   2.531   6.625 -0.6162  0.4045 -0.4775
16054SOL    HW249842   4.943   2.413   6.546  1.5793  0.0498 -2.2589
16055SOL     OW49843   6.184   8.167   5.502 -0.1089 -0.3564 -0.2519
16055SOL    HW149844   6.179   8.267   5.508 -1.5138 -0.4619  0.3128
16055SOL    HW249845   6.278   8.138   5.518 -0.2730  0.6450  2.8022
16057SOL     OW49846   8.985   7.230   5.481 -0.6232  0.3657 -0.4549
16057SOL    HW149847   9.080   7.209   5.505 -1.7135 -1.3789  2.5945
16057SOL    HW249848   8.959   7.181   5.398  1.4511  1.7383 -1.9498
16058SOL     OW49849   1.682   4.083   1.359 -0.0168  0.3014 -0.0188
16058SOL    HW149850   1.689   4.126   1.448  1.7003 -0.8800  0.4481
16058SOL    HW249851   1.610   4.013   1.361 -0.0591  0.3584  0.4029
16059SOL     OW49852   4.426   4.204   6.455 -0.3402  0.1295  0.4198
16059SOL    HW149853   4.333   4.241   6.450 -0.6512 -0.7143 -0.0344
16059SOL    HW249854   4.443   4.170   6.548 -0.9195 -0.8474  0.1707
16060SOL     OW49855   1.061   6.281   6.156 -0.4812 -0.3819 -0.3635
16060SOL    HW149856   1.159   6.295   6.139 -0.6933  0.3202 -1.0833
16060SOL    HW249857   1.041   6.292   6.253  0.0972 -0.1730 -0.2691
16061SOL     OW49858   0.581   0.850   4.869  0.6744  0.2874  0.1250
16061SOL    HW149859   0.491   0.849   4.826  0.6364 -1.1809  0.2032
16061SOL    HW249860   0.572   0.871   4.966  0.4020 -0.0217  0.1660
16062SOL     OW49861   6.949   4.398   7.131 -0.5293  0.1396  0.0817
16062SOL    HW149862   6.860   4.372   7.092 -1.4761  1.8707  1.0177
16062SOL    HW249863   6.975   4.488   7.095  1.5774 -1.0186 -1.3474
16063SOL     OW49864   2.520   4.271   5.038  0.1057  0.5848  0.4358
16063SOL    HW149865   2.600   4.236   5.086 -1.6090 -0.9094  2.3060
16063SOL    HW249866   2.493   4.360   5.077 -0.7916 -0.2378  1.7291
16064SOL     OW49867   8.711   5.497   5.980 -0.0350 -0.2524  0.2456
16064SOL    HW149868   8.678   5.590   5.966  0.3735 -0.1844 -0.2586
16064SOL    HW249869   8.751   5.490   6.071  0.0235  0.0881  0.2474
16065SOL     OW49870   8.439   0.990   7.208 -0.1265  0.4613  0.2989
16065SOL    HW149871   8.469   0.939   7.127  0.6246  2.8613 -1.0120
16065SOL    HW249872   8.469   0.943   7.291 -0.4309 -1.7674 -0.8292
16066SOL     OW49873   1.323   0.973   0.450  0.6855  0.0471  0.1217
16066SOL    HW149874   1.400   0.983   0.387  2.0255  2.6788  2.1234
16066SOL    HW249875   1.351   0.918   0.529 -0.4084 -1.5306 -0.5531
16067SOL     OW49876   3.633   6.543   4.033  0.6310 -0.0186  0.0074
16067SOL    HW149877   3.681   6.595   4.103 -0.0426 -0.0837  0.5166
16067SOL    HW249878   3.540   6.576   4.024  0.5475 -0.3723 -0.4792
16068SOL     OW49879   9.548   5.735   0.892 -0.0220 -0.3197  0.1474
16068SOL    HW149880   9.589   5.735   0.983 -1.7844 -1.1794  0.9536
16068SOL    HW249881   9.449   5.751   0.899  0.0078  0.9279 -1.7125
16069SOL     OW49882   6.359   6.932   4.096 -0.8724 -0.0388 -0.2268
16069SOL    HW149883   6.410   6.885   4.025 -2.7603 -1.2452 -0.8183
16069SOL    HW249884   6.410   6.929   4.183 -0.2892 -1.8169 -0.6291
16071SOL     OW49885   9.000   2.069   2.897 -0.3024 -0.2453  0.0645
16071SOL    HW149886   8.971   2.125   2.819  0.1765 -1.0761 -0.7266
16071SOL    HW249887   9.098   2.082   2.913 -0.6396  0.8409  1.3038
16072SOL     OW49888   2.856   9.855   3.901  0.1526  0.2057  0.0811
16072SOL    HW149889   2.899   9.874   3.990  0.3212 -1.8700  0.4549
16072SOL    HW249890   2.760   9.833   3.915  0.2260 -0.3080 -0.2368
16073SOL     OW49891   8.622   7.636   1.444 -0.0908 -0.4205 -0.1222
16073SOL    HW149892   8.534   7.640   1.399 -1.1758  1.0664  2.0121
16073SOL    HW249893   8.694   7.662   1.380 -1.4177  0.2319 -1.3728
16074SOL     OW49894   9.262   2.158   4.471  0.5254 -0.5131  0.0011
16074SOL    HW149895   9.272   2.183   4.568  0.5945 -2.4807  0.5425
16074SOL    HW249896   9.340   2.193   4.419 -0.1854  1.7156  0.3979
16075SOL     OW49897   2.899   3.281   1.441 -0.5542 -0.0026 -0.3398
16075SOL    HW149898   2.816   3.257   1.391  0.8287 -0.8095 -2.3087
16075SOL    HW249899   2.883   3.364   1.495 -3.3299 -1.4425  1.1561
16076SOL     OW49900   9.828   7.946   4.559  0.2256 -0.3599 -0.2950
16076SOL    HW149901   9.823   7.944   4.659 -1.7121 -2.1166 -0.3929
16076SOL    HW249902   9.884   7.870   4.527  2.2628  1.2082 -0.4920
16077SOL     OW49903   2.458   2.958   1.671  0.4984 -0.3580 -0.1024
16077SOL    HW149904   2.457   2.917   1.579  0.1824 -0.3499 -0.1028
16077SOL    HW249905   2.492   3.052   1.665 -1.0145  0.1757 -0.4344
16078SOL     OW49906   5.373   8.825   4.192 -0.0806 -0.5439 -0.2524
16078SOL    HW149907   5.402   8.780   4.277 -0.1984 -0.4167 -0.1431
16078SOL    HW249908   5.273   8.830   4.191 -0.0338  0.9660  0.3922
16079SOL     OW49909   3.764   5.093   2.352 -0.0380 -0.0380  0.1025
16079SOL    HW149910   3.775   5.044   2.266 -2.0762  0.1077 -0.2624
16079SOL    HW249911   3.841   5.072   2.412  0.5451 -1.4661 -1.1071
16080SOL     OW49912   1.032   2.300   3.098 -0.5929  0.4405  0.2734
16080SOL    HW149913   1.019   2.391   3.057 -0.8672  0.4254  0.3257
16080SOL    HW249914   0.954   2.242   3.074 -0.5960  0.3320  0.5480
16081SOL     OW49915   1.295   5.979   7.868  0.7344  0.0292 -0.0986
16081SOL    HW149916   1.243   6.037   7.930  0.5957  0.1755 -0.3499
16081SOL    HW249917   1.309   5.889   7.909 -0.9448 -0.4917 -0.6149
16082SOL     OW49918   5.151   4.849   7.069 -0.2476  0.9507 -0.0415
16082SOL    HW149919   5.063   4.817   7.103  0.3497 -0.2996  0.3616
16082SOL    HW249920   5.184   4.923   7.128 -0.4368  0.5593  0.5641
16083SOL     OW49921   3.281   7.528   1.567 -0.0835  0.1511  0.2780
16083SOL    HW149922   3.252   7.563   1.655 -0.1187  1.9676 -0.4420
16083SOL    HW249923   3.202   7.491   1.518 -0.7262  2.4461 -0.4737
16085SOL     OW49924   7.852   5.603   6.299 -0.5207  0.3230 -0.2422
16085SOL    HW149925   7.880   5.515   6.260 -0.0084 -0.2933  1.4941
16085SOL    HW249926   7.926   5.640   6.355 -0.6096  2.0252 -1.1799
16086SOL     OW49927   0.615   9.932   2.136  0.1547 -0.3031  0.0741
16086SOL    HW149928   0.648   9.955   2.227 -0.3019 -1.2855  0.4886
16086SOL    HW249929   0.653   9.997   2.069  0.2320  0.6186  0.9978
16087SOL     OW49930   4.979   3.491   0.879  0.1572 -0.3055  0.1326
16087SOL    HW149931   4.945   3.473   0.787  0.3487 -0.4648  0.0931
16087SOL    HW249932   5.077   3.474   0.882  0.1010 -0.5673  0.4410
16088SOL     OW49933   9.831   5.869   6.665  0.3366  0.1329 -0.1171
16088SOL    HW149934   9.734   5.870   6.690  0.3555  0.7313 -0.0486
16088SOL    HW249935   9.867   5.963   6.669  0.8387 -0.0461 -0.4448
16090SOL     OW49936   4.637   7.750   3.351  0.8105  0.3579  0.0888
16090SOL    HW149937   4.604   7.656   3.342 -1.4948  1.2407 -1.2430
16090SOL    HW249938   4.604   7.804   3.274  0.0155  2.8575  2.1176
16091SOL     OW49939   7.282   2.339   4.189  0.9496  0.2069  0.0703
16091SOL    HW149940   7.218   2.315   4.116  2.6192 -0.5172 -1.1874
16091SOL    HW249941   7.232   2.380   4.265 -0.7889  1.2625 -1.6028
16093SOL     OW49942   8.434   5.489   1.095 -0.3792  0.0971 -0.2904
16093SOL    HW149943   8.408   5.584   1.081  0.7237  0.3707 -0.4980
16093SOL    HW249944   8.377   5.450   1.168  0.4597  1.4863  1.1549
16094SOL     OW49945   6.112   3.696   1.981  0.2221  0.1298 -0.3974
16094SOL    HW149946   6.126   3.793   1.963 -1.6286  1.1315  3.0890
16094SOL    HW249947   6.197   3.656   2.014  0.0547  1.5181  1.8374
16095SOL     OW49948   7.128   7.231   3.578  0.4538  0.4774 -0.2103
16095SOL    HW149949   7.156   7.316   3.534  2.0111  0.8190  1.3496
16095SOL    HW249950   7.199   7.161   3.564  0.0400 -0.0073  0.0722
16096SOL     OW49951   8.086   4.317   3.899 -0.2656 -0.5574 -0.0463
16096SOL    HW149952   8.103   4.412   3.871  1.2978 -0.8634 -0.2067
16096SOL    HW249953   8.112   4.306   3.995  1.5488 -1.2970 -0.5938
16098SOL     OW49954   7.413   9.932   5.148  0.4515  0.1421 -0.1414
16098SOL    HW149955   7.393   9.975   5.236 -2.4306  2.0896 -1.6585
16098SOL    HW249956   7.383   9.836   5.150 -0.3718  0.4060  0.7494
16099SOL     OW49957   5.409   8.307   2.641 -0.0187 -0.3377 -0.3985
16099SOL    HW149958   5.441   8.261   2.724  1.7146  0.7304 -0.4546
16099SOL    HW249959   5.309   8.305   2.639 -0.1229  0.1272  2.0370
16100SOL     OW49960   1.922   9.042   1.508  0.4213 -0.9357  0.4453
16100SOL    HW149961   1.860   8.964   1.504  0.9015 -1.2440 -1.4183
16100SOL    HW249962   1.872   9.126   1.487  0.7350 -1.2684 -1.7643
16102SOL     OW49963   4.104   9.508   5.207  0.4534  0.7690 -0.2382
16102SOL    HW149964   4.102   9.412   5.233  1.2610  0.8614  0.1760
16102SOL    HW249965   4.067   9.564   5.281  1.0596  0.8778 -0.0186
16103SOL     OW49966   5.533   8.831   3.771  0.2456  1.2010  0.0681
16103SOL    HW149967   5.555   8.908   3.831 -0.6619  0.4382  1.3992
16103SOL    HW249968   5.442   8.846   3.731 -1.4102 -0.6918  2.9120
16104SOL     OW49969   3.485   1.705   4.167 -0.5744 -0.5954 -0.1996
16104SOL    HW149970   3.437   1.669   4.247 -2.2377 -1.0580 -1.3745
16104SOL    HW249971   3.464   1.647   4.087 -1.3132  1.5252 -1.5894
16105SOL     OW49972   4.492   8.018   1.561 -0.4038 -0.2849  0.0304
16105SOL    HW149973   4.423   7.961   1.605  1.8985 -1.1286  2.6765
16105SOL    HW249974   4.483   8.112   1.592 -0.1842 -0.4528  0.6026
16106SOL     OW49975   1.531   9.342   1.417  0.3227  0.2367 -0.1138
16106SOL    HW149976   1.435   9.332   1.394  0.2408 -0.4229  0.4965
16106SOL    HW249977   1.582   9.372   1.336 -0.9662  4.2419  0.4664
16107SOL     OW49978   3.678   0.112   2.364  0.0498  0.2585  0.2211
16107SOL    HW149979   3.702   0.071   2.276  1.3073 -0.9827  1.1152
16107SOL    HW249980   3.618   0.049   2.415 -1.7574  1.5373 -0.2684
16108SOL     OW49981   2.162   4.895   6.862 -0.3291 -0.4266 -0.0562
16108SOL    HW149982   2.127   4.846   6.942  1.8992 -0.0368  1.1975
16108SOL    HW249983   2.258   4.919   6.877 -0.2805  0.8980 -2.2790
16111SOL     OW49984   7.824   6.590   1.981 -0.4765 -0.3750 -0.2963
16111SOL    HW149985   7.870   6.517   1.930  1.9981  1.2149 -0.3888
16111SOL    HW249986   7.792   6.660   1.917 -1.3677 -0.5418 -0.0463
16112SOL     OW49987   8.623   9.234   6.166  0.1091  0.1240 -0.1611
16112SOL    HW149988   8.532   9.224   6.126  0.4918 -1.1290 -0.7594
16112SOL    HW249989   8.616   9.279   6.255 -1.0916  0.0259 -0.1948
16114SOL     OW49990   1.515   3.301   0.312  0.0850 -0.4077 -0.2370
16114SOL    HW149991   1.555   3.211   0.326 -0.4275 -0.4973  0.7355
16114SOL    HW249992   1.538   3.335   0.221 -1.7865 -2.5845 -1.5774
16115SOL     OW49993   4.532   9.239   0.688  0.5550 -0.0894 -0.4821
16115SOL    HW149994   4.445   9.209   0.727 -0.2823 -0.0878 -2.2554
16115SOL    HW249995   4.575   9.163   0.639  2.4428 -0.5785  1.8399
16116SOL     OW49996   1.169   7.936   5.572  0.1198  0.4263 -0.3036
16116SOL    HW149997   1.190   7.939   5.670 -0.6508 -0.3521 -0.1200
16116SOL    HW249998   1.241   7.985   5.522  1.7624 -1.1522  0.4427
16117SOL     OW49999   4.461   3.423   2.867 -0.6856 -0.1331  0.1323
16117SOL    HW150000   4.463   3.460   2.960 -2.9660  1.9142 -0.5468
16117SOL    HW250001   4.495   3.492   2.804 -0.1983 -1.0963 -0.6627
16118SOL     OW50002   1.561   4.978   6.045 -0.6201 -0.2207 -0.1252
16118SOL    HW150003   1.552   4.972   5.945 -1.2488 -0.9402 -0.0317
16118SOL    HW250004   1.537   5.070   6.075 -1.2015 -0.2243 -0.5627
16119SOL     OW50005   0.369   7.591   1.125 -0.3399 -0.3324  0.1401
16119SOL    HW150006   0.375   7.689   1.109 -1.6534 -0.0207  1.4695
16119SOL    HW250007   0.461   7.554   1.140  0.1062  0.7956  0.2499
16120SOL     OW50008   5.892   3.424   0.838  0.0531 -0.5833 -0.2028
16120SOL    HW150009   5.838   3.390   0.761 -0.0218 -0.0887 -0.3736
16120SOL    HW250010   5.832   3.468   0.905  0.2033 -0.3140 -0.2412
16122SOL     OW50011   8.856   4.301   6.899 -0.0367 -0.6261 -0.0462
16122SOL    HW150012   8.853   4.347   6.810 -0.6163 -1.1480 -0.2968
16122SOL    HW250013   8.777   4.329   6.954  1.3929  1.2900  1.1063
16125SOL     OW50014   4.600   8.888   3.396  0.0100 -0.6678  0.2460
16125SOL    HW150015   4.614   8.800   3.442  0.9730 -0.5845  0.1202
16125SOL    HW250016   4.634   8.882   3.303 -1.0135 -0.5217 -0.1400
16127SOL     OW50017   4.040   2.744   5.736  0.2029  0.3601 -0.0640
16127SOL    HW150018   4.117   2.702   5.785 -0.1413  0.4594  0.5723
16127SOL    HW250019   3.999   2.677   5.674 -0.2472 -0.2050  0.8297
16128SOL     OW50020   6.918   1.557   5.943 -0.0201  0.0632  0.5173
16128SOL    HW150021   6.934   1.563   5.844  0.7998  1.0806  0.7083
16128SOL    HW250022   6.975   1.623   5.990  1.7504 -2.4138  1.9342
16131SOL     OW50023   8.812   7.134   4.190 -0.5901  0.1984  0.1853
16131SOL    HW150024   8.893   7.113   4.135 -2.5736 -0.4165 -2.5670
16131SOL    HW250025   8.795   7.232   4.188 -0.6578  0.1783 -0.3136
16132SOL     OW50026   2.148   5.112   4.371 -0.4625 -0.6112  0.3269
16132SOL    HW150027   2.071   5.162   4.411 -0.3345  0.2007 -0.4226
16132SOL    HW250028   2.174   5.155   4.284 -0.1516 -1.8002 -0.1844
16133SOL     OW50029   9.927   0.952   4.935  0.1669 -0.1791 -0.7809
16133SOL    HW150030   9.857   0.938   5.005  1.4063 -0.2509  0.4502
16133SOL    HW250031   9.902   0.901   4.853 -1.8336  0.7341 -0.7782
16135SOL     OW50032   2.477   0.328   5.435 -0.2709  0.0788 -0.5536
16135SOL    HW150033   2.472   0.277   5.521  0.4844  0.2353 -0.4097
16135SOL    HW250034   2.421   0.283   5.366 -0.9021 -0.0346  0.0271
16136SOL     OW50035   2.841   8.790   6.789 -0.6568  0.2746  0.7399
16136SOL    HW150036   2.803   8.724   6.724 -1.3038  1.6116 -0.2659
16136SOL    HW250037   2.927   8.755   6.826  0.3545  0.0216 -1.7468
16137SOL     OW50038   4.012   7.035   6.342 -0.0380  0.1875  0.5064
16137SOL    HW150039   4.059   7.037   6.430 -0.1478 -0.7038  0.5905
16137SOL    HW250040   3.918   7.002   6.355 -1.3580  3.7659  0.6415
16138SOL     OW50041   9.244   4.904   2.738  0.6462  0.2250 -0.1222
16138SOL    HW150042   9.271   4.854   2.656  0.9964 -2.0253  1.3299
16138SOL    HW250043   9.318   4.901   2.806  0.5978  2.5570  0.1017
16139SOL     OW50044   9.300   8.677   1.802 -0.0186 -0.6127  0.2387
16139SOL    HW150045   9.295   8.577   1.812  2.0790 -0.8660 -0.8237
16139SOL    HW250046   9.280   8.702   1.708  1.3971 -0.2388  0.0172
16140SOL     OW50047   7.349   0.246   5.147 -0.4820 -0.0343  0.6608
16140SOL    HW150048   7.310   0.332   5.177  2.1671  1.1640  0.8596
16140SOL    HW250049   7.389   0.198   5.225  0.9488  0.1600  0.0784
16141SOL     OW50050   1.436   0.963   2.621 -0.1149  0.1877  0.2290
16141SOL    HW150051   1.450   0.908   2.539 -0.2671  0.7828 -0.2007
16141SOL    HW250052   1.429   1.060   2.596 -0.6817  0.3241  0.8885
16143SOL     OW50053   3.132   5.912   2.983 -0.3794 -0.0035 -0.4267
16143SOL    HW150054   3.036   5.892   2.964 -0.2233 -1.3260  0.0963
16143SOL    HW250055   3.189   5.843   2.937  0.3106  0.6137 -0.5086
16144SOL     OW50056   5.603   9.116   6.659 -0.0830  0.1800  0.2253
16144SOL    HW150057   5.649   9.084   6.576  0.6253  0.8531  0.3480
16144SOL    HW250058   5.626   9.056   6.735  0.9838  0.7746  0.3863
16145SOL     OW50059   0.852   5.127   5.234 -0.2682  0.0412  0.0762
16145SOL    HW150060   0.756   5.103   5.247  0.0477 -1.1876  0.1465
16145SOL    HW250061   0.903   5.047   5.202  0.8445  0.5493  0.5557
16146SOL     OW50062   9.443   5.233   4.249  0.1715 -0.0755 -0.1867
16146SOL    HW150063   9.357   5.190   4.277  0.4651 -1.3174 -1.1201
16146SOL    HW250064   9.456   5.318   4.298 -1.1908 -0.3043  0.5800
16148SOL     OW50065   9.772   3.014   4.943 -0.4341 -0.2227 -0.4942
16148SOL    HW150066   9.820   2.943   4.995  2.3644  2.8449  1.2940
16148SOL    HW250067   9.725   3.076   5.006 -1.3682  0.5522 -1.9172
16149SOL     OW50068   7.142   4.465   3.570 -0.5641  0.9754 -0.2353
16149SOL    HW150069   7.069   4.448   3.504  1.9668 -0.8919 -2.7224
16149SOL    HW250070   7.207   4.531   3.531  0.4136  0.6796  0.8453
16150SOL     OW50071   6.546   4.254   2.577  0.1796 -0.5372  0.0222
16150SOL    HW150072   6.522   4.158   2.593  1.6099 -0.8205  0.4718
16150SOL    HW250073   6.631   4.259   2.525 -0.3176  0.4858 -0.7081
16151SOL     OW50074   2.277   6.492   0.474 -0.4665 -0.2549 -0.2927
16151SOL    HW150075   2.240   6.438   0.398  0.0470 -1.1140  0.0542
16151SOL    HW250076   2.366   6.530   0.448 -1.0521  0.8199 -0.7070
16153SOL     OW50077   9.842   2.275   5.527 -0.0278 -0.9056  0.1191
16153SOL    HW150078   9.849   2.363   5.573 -1.0087 -0.3720 -0.7442
16153SOL    HW250079   9.934   2.236   5.517  0.7207  1.2131 -1.8061
16155SOL     OW50080   4.077   8.218   1.766 -0.2682  0.1123  0.0500
16155SOL    HW150081   4.030   8.256   1.846 -0.7231  1.0990 -0.6746
16155SOL    HW250082   4.101   8.122   1.784  0.1872  0.5052  1.5919
16156SOL     OW50083   8.860   6.858   7.039  0.1604  0.3161 -0.1259
16156SOL    HW150084   8.912   6.925   7.091 -0.7720  1.4253 -0.5956
16156SOL    HW250085   8.811   6.797   7.101 -1.2155  1.8448  0.3233
16157SOL     OW50086   9.829   7.460   0.740 -0.4467 -0.4942 -0.9849
16157SOL    HW150087   9.758   7.421   0.799  0.0365 -0.3005 -0.2560
16157SOL    HW250088   9.804   7.449   0.644 -1.5202 -0.3030 -0.7224
16158SOL     OW50089   8.240   3.060   7.905 -0.3098  0.1281 -0.3109
16158SOL    HW150090   8.214   3.027   7.996 -2.2239  2.0200 -0.1541
16158SOL    HW250091   8.307   3.134   7.914 -0.5144  0.3290 -0.4531
16159SOL     OW50092   7.039   1.508   5.242  0.0026  0.0532  0.4542
16159SOL    HW150093   6.983   1.590   5.250  1.0204  1.0473 -1.9526
16159SOL    HW250094   6.982   1.427   5.256 -1.8223  1.0652 -0.8289
16160SOL     OW50095   4.726   1.530   1.044 -0.3781 -0.1060  0.0543
16160SOL    HW150096   4.736   1.596   1.119 -3.3134  1.4489 -0.8233
16160SOL    HW250097   4.806   1.534   0.985  0.4850  1.0666  1.2880
16161SOL     OW50098   9.871   1.918   5.454 -0.0304 -0.2884  0.0479
16161SOL    HW150099   9.828   1.904   5.543 -0.1967 -0.3746 -0.0476
16161SOL    HW250100   9.802   1.940   5.386  0.0018 -1.0964 -0.2461
16162SOL     OW50101   4.096   8.463   0.244  0.4638  0.2079  0.5088
16162SOL    HW150102   4.099   8.560   0.221 -0.6040  0.3768  1.0658
16162SOL    HW250103   4.026   8.417   0.190 -0.7037  0.2275  1.9654
16163SOL     OW50104   6.604   2.287   3.180  0.0767  0.1963 -0.1283
16163SOL    HW150105   6.605   2.299   3.279 -0.1278 -1.1152  0.0487
16163SOL    HW250106   6.518   2.321   3.142 -0.7532 -1.2233  0.4262
16164SOL     OW50107   1.618   9.479   3.729  0.1050  0.7060 -0.0428
16164SOL    HW150108   1.563   9.518   3.803 -1.6606 -2.0355  0.1289
16164SOL    HW250109   1.666   9.553   3.682 -0.3170  2.7150  2.5297
16165SOL     OW50110   6.874   8.121   3.162  0.1913  0.3701  0.5196
16165SOL    HW150111   6.780   8.096   3.183 -0.2693  0.6527 -1.0691
16165SOL    HW250112   6.926   8.040   3.138 -0.3454  0.4735 -1.0948
16167SOL     OW50113   3.287   5.109   4.382  0.4256  0.0305 -0.2190
16167SOL    HW150114   3.357   5.170   4.418 -1.2326  1.9815 -0.2070
16167SOL    HW250115   3.225   5.083   4.456 -1.6812  2.2520 -1.1325
16168SOL     OW50116   2.379   5.200   2.441 -0.2879  0.4855  0.3818
16168SOL    HW150117   2.389   5.106   2.472  0.0396  0.0664 -0.9442
16168SOL    HW250118   2.379   5.202   2.341  1.9915  2.1237  0.3914
16169SOL     OW50119   9.664   8.159   4.484  0.1879 -0.0992  0.1779
16169SOL    HW150120   9.713   8.075   4.510 -2.2026 -1.6935 -0.3389
16169SOL    HW250121   9.685   8.181   4.389  1.1874  0.1536  0.4529
16171SOL     OW50122   7.233   5.637   1.205  0.2929 -0.2825  0.2920
16171SOL    HW150123   7.236   5.540   1.184  1.1811 -0.1956 -0.0126
16171SOL    HW250124   7.326   5.671   1.222 -0.0094  0.5042  0.4218
16172SOL     OW50125   0.228   1.082   4.549  0.8818  0.3810 -0.1933
16172SOL    HW150126   0.279   1.168   4.547  1.0744  0.3258  1.3443
16172SOL    HW250127   0.135   1.097   4.514  0.4744  1.5323  1.3288
16174SOL     OW50128   3.947   3.327   2.879  0.1828 -1.0936  0.1426
16174SOL    HW150129   3.887   3.250   2.860 -2.2501  0.5639  0.9016
16174SOL    HW250130   4.021   3.298   2.940 -1.0329 -2.6875  0.8708
16176SOL     OW50131   2.459   3.672   3.555 -0.4816 -0.3151 -0.0687
16176SOL    HW150132   2.553   3.654   3.583 -0.5646 -0.7427 -0.0715
16176SOL    HW250133   2.410   3.716   3.631 -0.0760  0.5889 -0.3173
16177SOL     OW50134   9.818   9.365   2.204  0.1739 -0.5092 -0.0862
16177SOL    HW150135   9.733   9.386   2.156  0.1573 -0.8448 -0.2011
16177SOL    HW250136   9.816   9.407   2.295 -0.9334 -2.1093  0.6616
16178SOL     OW50137   2.506   9.852   6.067 -0.4723  0.3442  0.2576
16178SOL    HW150138   2.433   9.884   6.007 -0.7694 -0.2935  0.2702
16178SOL    HW250139   2.590   9.840   6.014 -0.8879 -0.7916 -0.1667
16179SOL     OW50140   0.535   6.762   2.949  0.3351 -0.1113  0.0979
16179SOL    HW150141   0.520   6.829   3.022  2.2800  1.8846 -1.2714
16179SOL    HW250142   0.537   6.670   2.988  0.4209  0.8444  2.4258
16180SOL     OW50143   3.006   7.028   7.950 -0.1220  0.3508  0.5755
16180SOL    HW150144   3.060   7.051   7.869  1.0579  2.6399  1.9783
16180SOL    HW250145   2.951   6.946   7.931  1.3965 -0.1326 -1.9569
16182SOL     OW50146   0.381   8.457   5.073  0.0067  0.2526 -0.4320
16182SOL    HW150147   0.418   8.516   5.001 -0.0542  2.8128  1.5698
16182SOL    HW250148   0.455   8.404   5.114  0.6628  1.4943  0.0306
16183SOL     OW50149   3.798   3.295   5.919  0.0882 -0.3533 -0.0751
16183SOL    HW150150   3.857   3.228   5.873 -0.5324 -1.8548  1.2576
16183SOL    HW250151   3.831   3.309   6.013 -0.1000  0.8264 -0.1838
16184SOL     OW50152   3.419   4.558   1.619  0.9410  0.2087  0.5684
16184SOL    HW150153   3.412   4.620   1.541 -1.0423  0.1451  0.6788
16184SOL    HW250154   3.376   4.471   1.596  0.3856  0.1694  1.7008
16185SOL     OW50155   4.056   4.647   5.281 -0.2020  0.2663 -0.1477
16185SOL    HW150156   3.964   4.650   5.321 -0.9552  2.6904 -1.9500
16185SOL    HW250157   4.050   4.633   5.183  1.4878 -1.8782  0.0213
16186SOL     OW50158   7.861   5.237   1.151 -0.4998  0.1841  0.5891
16186SOL    HW150159   7.897   5.148   1.125 -0.2758  0.2002  0.8324
16186SOL    HW250160   7.782   5.225   1.211 -0.3241  0.1467  0.8162
16187SOL     OW50161   5.595   2.294   0.870  0.1245  0.9920  0.0031
16187SOL    HW150162   5.695   2.295   0.871  0.1347  0.0376 -0.2075
16187SOL    HW250163   5.563   2.295   0.775 -0.0546  0.2702  0.0528
16189SOL     OW50164   3.861   7.111   5.352  0.3335  0.2263 -0.4073
16189SOL    HW150165   3.882   7.207   5.367 -0.1973  0.4939 -1.3185
16189SOL    HW250166   3.923   7.073   5.283 -0.4224  0.3153 -1.1431
16190SOL     OW50167   1.411   4.251   2.871 -0.4827 -0.4328 -0.1923
16190SOL    HW150168   1.382   4.180   2.806  0.2076  0.0531 -1.0444
16190SOL    HW250169   1.364   4.237   2.958 -0.5032 -1.8220 -0.4084
16191SOL     OW50170   1.448   1.221   6.601 -0.2186 -0.4386  0.3008
16191SOL    HW150171   1.433   1.319   6.593 -1.3025 -0.6615 -0.3832
16191SOL    HW250172   1.534   1.197   6.555  0.1092  0.1994  0.5724
16193SOL     OW50173   7.958   7.939   4.881 -0.0025 -0.6152  0.0479
16193SOL    HW150174   7.911   7.979   4.802  0.5269 -3.4345 -1.7801
16193SOL    HW250175   7.895   7.879   4.931  0.5518 -1.3773 -0.1539
16194SOL     OW50176   7.564   9.895   2.281  0.1546  0.0522 -0.2236
16194SOL    HW150177   7.645   9.913   2.336  0.0989  1.3264 -0.5471
16194SOL    HW250178   7.591   9.861   2.191  0.3216  0.1542 -0.2122
16195SOL     OW50179   3.972   3.264   1.742  0.0655  0.2138  0.4541
16195SOL    HW150180   4.003   3.319   1.664 -0.2106 -0.5815 -0.2200
16195SOL    HW250181   3.954   3.171   1.712  2.4721 -0.8017  1.9955
16196SOL     OW50182   7.060   2.537   5.237  0.0577 -0.1186  0.3625
16196SOL    HW150183   6.961   2.540   5.253 -0.0807 -2.4034  0.0150
16196SOL    HW250184   7.107   2.568   5.320 -0.9316  1.8465  0.2375
16197SOL     OW50185   1.362   9.039   3.251  0.3176 -0.1933 -0.2623
16197SOL    HW150186   1.345   9.137   3.265  3.6199  0.1548  1.8198
16197SOL    HW250187   1.287   8.986   3.290 -0.2408  1.4417  0.9480
16198SOL     OW50188   3.360   6.644   1.716 -0.0714 -0.0002  0.4321
16198SOL    HW150189   3.372   6.739   1.688  1.1559 -0.5266 -0.8405
16198SOL    HW250190   3.262   6.625   1.727 -0.3086  1.5108  1.1120
16199SOL     OW50191   9.918   5.662   4.142  0.2860 -0.7875  0.4696
16199SOL    HW150192   9.904   5.724   4.065  2.6291  0.4542  1.0170
16199SOL    HW250193   9.933   5.569   4.107  1.8809 -0.1342 -0.6119
16200SOL     OW50194   9.913   5.444   7.941  0.0242 -0.3118  0.3802
16200SOL    HW150195   9.848   5.519   7.927  0.5556 -0.0174 -0.5631
16200SOL    HW250196  10.002   5.469   7.902 -0.1644 -1.9697 -1.1637
16203SOL     OW50197   5.720   3.070   2.431  0.6753 -0.7906 -0.0555
16203SOL    HW150198   5.789   3.102   2.367 -0.2336 -0.7132 -0.9975
16203SOL    HW250199   5.733   3.116   2.519  0.3991  0.9611 -0.9075
16204SOL     OW50200   9.615   9.325   1.404  0.2101 -0.4687 -0.4298
16204SOL    HW150201   9.678   9.295   1.334  1.3993 -2.2429  1.3327
16204SOL    HW250202   9.658   9.317   1.494 -1.8079  0.2192  0.6449
16205SOL     OW50203   9.850   5.493   5.931 -0.8868 -0.4067 -0.1434
16205SOL    HW150204   9.844   5.523   5.836 -0.7102  0.8790  0.2425
16205SOL    HW250205   9.851   5.573   5.991  2.5476 -1.0755  0.7772
16206SOL     OW50206   2.175   9.410   2.424 -0.1432  0.4596 -0.0392
16206SOL    HW150207   2.168   9.347   2.346 -1.1814 -0.6949  0.9457
16206SOL    HW250208   2.090   9.405   2.477  0.0052  2.2831  0.3813
16207SOL     OW50209   3.060   1.079   4.672 -0.2300  0.2106  0.0888
16207SOL    HW150210   3.101   1.082   4.763  1.3285 -0.2575 -0.5898
16207SOL    HW250211   3.088   0.996   4.625 -2.3894 -0.3956 -0.2123
16210SOL     OW50212   8.226   2.962   0.109 -0.3608 -0.3847 -0.4835
16210SOL    HW150213   8.135   2.988   0.141 -1.0098 -1.2460 -1.5870
16210SOL    HW250214   8.287   3.041   0.117 -1.3026  0.3227 -0.1154
16211SOL     OW50215   6.812   9.701   3.486 -0.0468  0.3525 -0.0974
16211SOL    HW150216   6.750   9.727   3.560 -0.3218  0.1352 -0.2531
16211SOL    HW250217   6.835   9.781   3.432  0.3661  0.5630  0.3869
16213SOL     OW50218   4.059   0.882   7.457 -0.1591  0.1386  0.3369
16213SOL    HW150219   3.966   0.895   7.423  0.8941 -0.8772 -3.1855
16213SOL    HW250220   4.120   0.947   7.412  1.1426 -0.5692  1.0645
16214SOL     OW50221   1.066   5.626   2.561 -0.9750  0.3525 -0.7453
16214SOL    HW150222   1.028   5.573   2.637 -1.2928  1.3824 -0.1761
16214SOL    HW250223   1.016   5.604   2.477  1.2149 -2.9681 -1.3202
16215SOL     OW50224   8.823   7.209   5.751 -0.3100  0.5647 -0.3101
16215SOL    HW150225   8.741   7.246   5.709  0.2344 -0.5333 -2.4093
16215SOL    HW250226   8.882   7.169   5.681  1.7110  0.7208  1.2265
16216SOL     OW50227   3.297   1.633   7.239  0.0012 -0.2661 -0.2630
16216SOL    HW150228   3.363   1.576   7.288  0.0590 -0.0622 -0.1016
16216SOL    HW250229   3.233   1.575   7.190 -2.1992 -0.5532  2.8344
16218SOL     OW50230   5.900   0.556   2.372  0.1580 -0.0982  0.5235
16218SOL    HW150231   5.886   0.457   2.374  3.1752 -0.6163 -0.9670
16218SOL    HW250232   5.852   0.595   2.293  0.3344 -0.6063  0.1687
16219SOL     OW50233   1.953   8.964   6.508  0.3215  0.7834 -0.0185
16219SOL    HW150234   1.992   9.001   6.592  0.6567  0.5253 -0.0610
16219SOL    HW250235   1.985   9.018   6.430  1.1593  0.1393 -0.1255
16220SOL     OW50236   9.229   1.082   1.980 -0.2589 -0.0128 -0.3705
16220SOL    HW150237   9.279   1.009   1.935 -0.8280  0.7435 -2.2695
16220SOL    HW250238   9.224   1.161   1.919 -0.2552  1.3650  1.3815
16221SOL     OW50239   9.805   2.073   3.960  0.1772 -0.1666  0.2084
16221SOL    HW150240   9.807   2.166   3.921  1.8943  0.5867  2.0190
16221SOL    HW250241   9.746   2.072   4.040  1.3316 -0.2645  1.0674
16222SOL     OW50242   1.337   3.397   0.726  0.0683  0.5165  1.2020
16222SOL    HW150243   1.409   3.335   0.697 -1.1695 -0.1058 -0.6193
16222SOL    HW250244   1.282   3.353   0.797  0.2192  0.1714  1.1068
16223SOL     OW50245   1.687   7.870   1.630 -0.5583 -0.0827  0.0943
16223SOL    HW150246   1.670   7.845   1.534 -0.7261 -0.8676  0.3289
16223SOL    HW250247   1.785   7.883   1.644 -0.5362  0.0792 -0.1941
16224SOL     OW50248   1.864   3.028   6.888  0.0216 -0.3039  0.2112
16224SOL    HW150249   1.920   2.947   6.907  1.4701  0.5665 -0.2636
16224SOL    HW250250   1.883   3.098   6.957  0.5337  0.4854 -0.7074
16225SOL     OW50251   1.114   7.793   0.648 -0.1001 -0.1323  0.3098
16225SOL    HW150252   1.047   7.867   0.640  0.5310  0.4565  0.4724
16225SOL    HW250253   1.137   7.759   0.556  0.1208  0.3317  0.1937
16226SOL     OW50254   2.721   1.770   2.231 -0.1585 -0.2723  0.0816
16226SOL    HW150255   2.761   1.856   2.199 -0.4973 -0.5186 -1.0318
16226SOL    HW250256   2.626   1.786   2.260 -0.3311 -0.3225 -0.4396
16227SOL     OW50257   8.597   9.993   1.236 -0.1281  0.0296 -0.0521
16227SOL    HW150258   8.638   9.902   1.239  0.2263  0.0425 -2.7880
16227SOL    HW250259   8.503   9.986   1.202  0.4062  0.8099 -1.7394
16228SOL     OW50260   7.250   6.277   1.210  0.3207  0.4742  0.1927
16228SOL    HW150261   7.204   6.189   1.206 -0.0082  0.6832 -0.6325
16228SOL    HW250262   7.343   6.264   1.244  0.4891 -0.2703 -0.5515
16229SOL     OW50263   4.539   0.842   3.908 -0.6889 -0.4560  0.0349
16229SOL    HW150264   4.451   0.833   3.955 -0.1399  0.2321  1.1971
16229SOL    HW250265   4.612   0.803   3.965  0.1315  1.3696  0.2600
16230SOL     OW50266   9.664   6.621   6.177  0.0826 -0.1675 -0.4097
16230SOL    HW150267   9.681   6.601   6.080  2.3536  0.3185 -0.1204
16230SOL    HW250268   9.591   6.688   6.184 -0.9763 -1.1288 -1.7318
16231SOL     OW50269   3.717   5.951   0.642  0.1929 -0.1188 -0.2609
16231SOL    HW150270   3.641   5.895   0.672  0.9173 -1.0205 -0.0751
16231SOL    HW250271   3.803   5.913   0.676  0.6127  1.8359  0.9662
16232SOL     OW50272   5.058   0.392   7.636 -0.4383  0.0731 -0.1005
16232SOL    HW150273   4.958   0.396   7.636 -0.3903  2.7225 -1.8676
16232SOL    HW250274   5.091   0.365   7.546  0.4794  2.1689 -0.4185
16233SOL     OW50275   3.699   1.239   4.289 -0.2418 -0.3109  0.1145
16233SOL    HW150276   3.681   1.264   4.194 -0.9786 -0.3461  0.2472
16233SOL    HW250277   3.666   1.311   4.350  1.0628  0.1465  0.3051
16234SOL     OW50278   3.268   3.483   5.859 -0.2114 -0.7107 -0.2583
16234SOL    HW150279   3.352   3.503   5.810 -0.2493 -0.5046 -0.2390
16234SOL    HW250280   3.266   3.386   5.884 -0.8225 -1.1216 -1.8640
16235SOL     OW50281   7.710   2.771   0.641 -0.1800 -0.6205 -0.0158
16235SOL    HW150282   7.623   2.725   0.656 -0.7232  0.3718 -0.0688
16235SOL    HW250283   7.693   2.864   0.609  0.8941 -0.2329  0.5273
16236SOL     OW50284   7.055   4.884   6.961  0.3398  0.3208 -0.2004
16236SOL    HW150285   6.966   4.892   6.915  1.4046  1.4236 -2.1779
16236SOL    HW250286   7.045   4.909   7.057 -1.2391  1.8328 -0.7174
16237SOL     OW50287   1.851   3.237   2.711  0.1766  0.0519 -0.2563
16237SOL    HW150288   1.797   3.153   2.717  0.2082  0.0099 -0.6017
16237SOL    HW250289   1.798   3.313   2.749 -0.1525  0.0241 -0.6602
16238SOL     OW50290   1.884   6.943   5.084  0.1697 -0.5506 -0.3804
16238SOL    HW150291   1.870   6.848   5.056 -1.4167 -0.7974  1.1492
16238SOL    HW250292   1.882   6.948   5.184  0.7720  1.0282 -0.4405
16239SOL     OW50293   7.784   0.113   6.909 -0.0650  0.1308  0.0403
16239SOL    HW150294   7.786   0.084   6.813  3.4368  0.9122 -0.1919
16239SOL    HW250295   7.792   0.033   6.968  1.0959 -0.1100 -0.4244
16240SOL     OW50296   4.693   2.619   4.635  0.1186  0.8821  0.2502
16240SOL    HW150297   4.667   2.567   4.716  0.2993  0.5209  0.0789
16240SOL    HW250298   4.666   2.714   4.646 -0.3500  0.7190  0.5004
16241SOL     OW50299   6.180   8.563   1.871 -0.6089  0.6616 -1.0908
16241SOL    HW150300   6.232   8.477   1.872  1.2466  1.7630  1.2779
16241SOL    HW250301   6.117   8.563   1.793  0.3514 -2.2485 -1.9243
16242SOL     OW50302   6.626   3.278   2.728 -0.3937 -0.3880  0.3844
16242SOL    HW150303   6.659   3.257   2.820 -0.3725 -0.4972  0.3523
16242SOL    HW250304   6.638   3.197   2.669 -1.2835 -0.6310  0.5318
16243SOL     OW50305   9.020   5.413   6.905 -0.0880  0.6880 -0.6180
16243SOL    HW150306   9.114   5.433   6.878 -0.0953  0.8412 -0.5228
16243SOL    HW250307   8.957   5.456   6.840 -0.1111  1.2583 -0.2184
16245SOL     OW50308   8.435   2.445   3.045  0.3162 -0.1126  0.0471
16245SOL    HW150309   8.400   2.360   3.006  0.7446  0.6785 -2.1343
16245SOL    HW250310   8.508   2.423   3.110 -0.7759 -1.4845  0.8615
16246SOL     OW50311   6.706   2.318   0.993  0.6215  0.3371 -0.4054
16246SOL    HW150312   6.779   2.385   1.009  0.0648  1.4308 -2.3722
16246SOL    HW250313   6.625   2.346   1.045  0.6040  0.8223 -0.6866
16247SOL     OW50314   1.088   8.540   6.587 -0.3957  0.0778  0.3256
16247SOL    HW150315   1.017   8.609   6.602 -1.0434 -0.1264 -1.6436
16247SOL    HW250316   1.163   8.556   6.651 -0.6714  2.4100  0.1271
16248SOL     OW50317   0.075   1.661   6.633  0.7638 -0.7644 -0.2360
16248SOL    HW150318   0.020   1.578   6.620 -1.4325  0.8004 -1.1452
16248SOL    HW250319   0.037   1.735   6.578  1.5275  1.3906  2.0520
16249SOL     OW50320   8.329   3.882   1.462 -0.2849 -0.0785  0.5663
16249SOL    HW150321   8.390   3.892   1.540  1.4042  2.4102 -0.9783
16249SOL    HW250322   8.278   3.968   1.449  0.1581 -0.1241 -1.5967
16250SOL     OW50323   0.514   5.689   4.827 -0.0713  0.0995  0.4420
16250SOL    HW150324   0.481   5.595   4.822  1.5091 -0.5026  1.0131
16250SOL    HW250325   0.612   5.689   4.848  0.4273  1.8046 -1.6371
16251SOL     OW50326   0.536   3.402   3.592 -0.3427 -0.1854 -0.2386
16251SOL    HW150327   0.561   3.474   3.527  0.2616 -0.8267 -0.7149
16251SOL    HW250328   0.579   3.423   3.681 -2.2405  1.3866  0.3498
16253SOL     OW50329   9.160   3.825   2.150  0.4641  0.4736 -0.4885
16253SOL    HW150330   9.226   3.815   2.225  0.0105  1.9558  0.1235
16253SOL    HW250331   9.196   3.779   2.069  2.2832  1.2686 -0.1697
16258SOL     OW50332   9.606   0.830   7.123  0.4301 -0.0319  0.4608
16258SOL    HW150333   9.564   0.748   7.086  0.9681  0.2744 -0.8845
16258SOL    HW250334   9.597   0.831   7.223  0.2579 -1.6156  0.4684
16259SOL     OW50335   4.074   0.805   5.127 -0.1577 -0.6651  0.5027
16259SOL    HW150336   3.983   0.813   5.085 -0.9193 -0.2371  2.1678
16259SOL    HW250337   4.080   0.718   5.175 -0.3471  0.0172  1.8216
16262SOL     OW50338   3.271   8.537   4.915  0.3454  0.3547 -0.2754
16262SOL    HW150339   3.184   8.580   4.889  0.4580  1.1046  0.5563
16262SOL    HW250340   3.343   8.571   4.856 -0.0017 -0.6538 -1.3020
16263SOL     OW50341   8.248   9.232   1.996 -0.1085  0.1415  0.4499
16263SOL    HW150342   8.290   9.314   2.036  0.8965  0.0660 -0.4250
16263SOL    HW250343   8.197   9.183   2.066  0.2685  0.8874  1.2568
16264SOL     OW50344   7.564   8.924   7.722  0.5990  0.0630 -0.1186
16264SOL    HW150345   7.624   8.997   7.755  1.1092 -0.3207 -0.1892
16264SOL    HW250346   7.484   8.964   7.678 -0.6113  0.6089  2.4488
16265SOL     OW50347   3.025   3.406   2.541  0.6109 -0.1351 -0.3534
16265SOL    HW150348   2.997   3.346   2.466  0.6063 -0.1614 -0.3307
16265SOL    HW250349   2.943   3.448   2.582  0.7047  0.9578 -1.2616
16266SOL     OW50350   1.438   5.462   3.166  0.4212  0.4916 -0.5003
16266SOL    HW150351   1.411   5.551   3.130  0.1169  0.5824 -0.0572
16266SOL    HW250352   1.511   5.473   3.232  1.9079  0.1968 -2.0556
16268SOL     OW50353   4.320   0.639   7.790 -0.1914  0.0061 -0.2338
16268SOL    HW150354   4.250   0.676   7.729  1.2325  1.1547 -1.2112
16268SOL    HW250355   4.378   0.576   7.740 -0.0020 -0.2892  0.3554
16269SOL     OW50356   7.567   0.670   3.223 -0.3997  0.4200  0.2766
16269SOL    HW150357   7.551   0.644   3.128  0.2695  0.6284  0.1026
16269SOL    HW250358   7.640   0.613   3.262 -0.5944  0.4108  0.6306
16270SOL     OW50359   7.799   1.692   2.823  0.0645 -0.2843 -0.5032
16270SOL    HW150360   7.843   1.654   2.742  0.6869 -0.6446 -0.0003
16270SOL    HW250361   7.794   1.621   2.894 -1.5280 -0.3225 -0.6392
16272SOL     OW50362   1.005   9.867   2.109 -0.0513 -0.2890  0.0891
16272SOL    HW150363   0.987   9.776   2.073 -1.7166  0.1527 -0.2353
16272SOL    HW250364   0.987   9.935   2.038 -0.0297  0.3746  0.7120
16273SOL     OW50365   4.444   9.931   0.336 -0.5001  0.0567 -0.4753
16273SOL    HW150366   4.537   9.919   0.302 -0.5249  1.3636 -1.0514
16273SOL    HW250367   4.391   9.849   0.316  0.5984 -0.8137  0.1154
16274SOL     OW50368   9.694   7.123   1.800 -0.0577  0.1853 -0.0834
16274SOL    HW150369   9.743   7.159   1.720  0.4621 -0.9149 -0.2706
16274SOL    HW250370   9.758   7.111   1.876 -0.3392  0.1964  0.1563
16275SOL     OW50371   1.009   4.089   4.892  0.2227 -0.2150 -0.5442
16275SOL    HW150372   0.980   4.061   4.983  0.9969 -2.0519 -0.8518
16275SOL    HW250373   0.956   4.169   4.864 -1.6042 -0.9790  0.6084
16276SOL     OW50374   6.539   2.038   2.050 -0.0697 -0.1563  0.1602
16276SOL    HW150375   6.494   2.018   1.963  0.0375 -0.0894  0.0902
16276SOL    HW250376   6.603   1.964   2.071  0.0625 -0.0642  0.0773
16277SOL     OW50377   1.783   6.287   7.231 -0.4617  0.2229  0.2858
16277SOL    HW150378   1.799   6.188   7.226 -0.5634  0.2367 -0.4064
16277SOL    HW250379   1.701   6.310   7.178 -0.0610  0.7648 -0.1097
16278SOL     OW50380   4.391   0.713   0.140  0.1111  0.5235 -0.3926
16278SOL    HW150381   4.303   0.724   0.186  0.0923  2.2182 -0.8183
16278SOL    HW250382   4.385   0.639   0.073 -1.5937  1.9200 -1.8319
16279SOL     OW50383   9.802   1.691   6.324  0.8366 -0.0319  0.1979
16279SOL    HW150384   9.800   1.699   6.224  0.0038  0.5309  0.2516
16279SOL    HW250385   9.820   1.596   6.350 -0.4900 -0.4827 -0.4860
16280SOL     OW50386   8.259   1.593   5.259 -0.1299 -0.4710  0.1100
16280SOL    HW150387   8.349   1.559   5.290 -0.1991 -0.8211 -0.0632
16280SOL    HW250388   8.254   1.586   5.160 -0.4881 -0.7972  0.1496
16282SOL     OW50389   4.722   5.747   3.827  0.0380  0.0141 -0.4224
16282SOL    HW150390   4.785   5.686   3.779 -0.7206 -0.0920 -1.3058
16282SOL    HW250391   4.762   5.774   3.915  0.6548 -1.2312 -0.3118
16283SOL     OW50392   3.347   1.999   0.227 -0.6192  0.0849  0.1690
16283SOL    HW150393   3.276   2.068   0.216  1.0378  1.4914 -2.1609
16283SOL    HW250394   3.342   1.960   0.319 -2.2918  2.4950  1.1421
16284SOL     OW50395   8.513   3.329   0.371  0.7784  0.3832 -0.0725
16284SOL    HW150396   8.571   3.311   0.292 -0.6161  1.4613 -1.3698
16284SOL    HW250397   8.469   3.243   0.400  3.1836 -0.4985  1.1067
16285SOL     OW50398   1.925   0.449   6.466 -0.1298  0.0531 -0.0740
16285SOL    HW150399   1.934   0.417   6.560  0.9626 -1.3993 -0.6601
16285SOL    HW250400   1.978   0.534   6.455 -2.4785  1.7523  1.2954
16286SOL     OW50401   6.848   7.040   5.328  0.0977  0.1495  0.2889
16286SOL    HW150402   6.936   7.005   5.296 -0.4224  0.9960 -2.1734
16286SOL    HW250403   6.843   7.138   5.310 -1.2468  0.1509  0.6164
16287SOL     OW50404   5.558   3.698   1.361  0.3562  0.1757  0.8205
16287SOL    HW150405   5.569   3.602   1.336 -1.0714  0.3076 -0.3511
16287SOL    HW250406   5.533   3.705   1.458 -1.7832 -0.7681  0.3585
16288SOL     OW50407   2.915   2.088   6.459  0.0182  0.4264 -0.0427
16288SOL    HW150408   2.867   2.151   6.520  0.6535  0.2578  0.6287
16288SOL    HW250409   2.870   2.088   6.370  0.0607  1.9104 -0.0829
16290SOL     OW50410   6.625   8.508   5.233  0.6397  0.5475 -0.0148
16290SOL    HW150411   6.577   8.453   5.301  0.8760  0.5288  0.1371
16290SOL    HW250412   6.658   8.592   5.276 -0.4163  1.1904 -0.4275
16293SOL     OW50413   1.328   0.660   7.107 -0.9024 -0.0242  0.3837
16293SOL    HW150414   1.299   0.635   7.015  1.1389 -0.2582 -0.2263
16293SOL    HW250415   1.307   0.756   7.124 -0.5734  0.2355 -0.6363
16294SOL     OW50416   4.268   0.783   1.855 -0.3961  0.2879  0.3937
16294SOL    HW150417   4.289   0.767   1.952  1.9006  0.1029 -0.1151
16294SOL    HW250418   4.238   0.697   1.813  0.6745 -0.1312  0.4529
16295SOL     OW50419   6.458   1.246   3.674  0.0970 -0.1691 -0.3993
16295SOL    HW150420   6.385   1.190   3.713 -0.7599  0.7106 -0.7367
16295SOL    HW250421   6.533   1.187   3.645  0.5921 -0.8836  2.2232
16296SOL     OW50422   3.649   9.052   2.500  0.2161  0.5069 -0.0952
16296SOL    HW150423   3.554   9.027   2.483  0.5400  0.8151 -2.5303
16296SOL    HW250424   3.652   9.142   2.545 -0.6036  1.3595 -1.7149
16297SOL     OW50425   8.340   1.983   0.849 -0.5032  0.1765 -0.3836
16297SOL    HW150426   8.320   1.887   0.867 -1.0962  0.5786  1.1239
16297SOL    HW250427   8.265   2.040   0.884  0.2625  1.2516 -0.4807
16298SOL     OW50428   2.690   4.541   1.393  0.1500  0.6209 -0.1268
16298SOL    HW150429   2.762   4.599   1.354 -0.0736  1.6333  0.9410
16298SOL    HW250430   2.724   4.448   1.403  1.5635  1.2517  1.0509
16300SOL     OW50431   5.272   9.857   5.046  0.2924  0.3614 -0.0975
16300SOL    HW150432   5.370   9.838   5.054  0.1971 -0.4823 -0.8700
16300SOL    HW250433   5.228   9.842   5.135  0.6996 -0.2435  0.0064
16302SOL     OW50434   1.765   6.782   1.942  0.4388  0.2866 -0.0163
16302SOL    HW150435   1.690   6.848   1.943  2.8977  3.2127  1.2626
16302SOL    HW250436   1.754   6.718   2.018 -0.9511  0.4264 -0.0840
16303SOL     OW50437   8.376   9.808   3.269 -0.5097  0.5291 -0.3385
16303SOL    HW150438   8.381   9.842   3.175  2.4062 -0.4724 -0.5802
16303SOL    HW250439   8.395   9.883   3.333 -0.4073  0.7446 -0.6202
16304SOL     OW50440   3.778   0.522   3.783 -0.1669 -0.1742  0.0633
16304SOL    HW150441   3.736   0.444   3.736 -0.2627  0.9378 -1.7761
16304SOL    HW250442   3.799   0.497   3.877 -2.2090 -1.7205  0.1563
16306SOL     OW50443   3.357   6.839   3.656  0.5638  0.1369  0.1609
16306SOL    HW150444   3.347   6.929   3.698 -0.7308 -0.3479  0.9096
16306SOL    HW250445   3.299   6.833   3.575  2.2196  0.6814 -1.0962
16307SOL     OW50446   7.963   0.338   7.562 -0.0213  0.0932  0.3849
16307SOL    HW150447   7.920   0.273   7.499  2.4211  0.9590 -2.2509
16307SOL    HW250448   7.931   0.320   7.655 -1.4894 -3.0685 -0.6727
16309SOL     OW50449   0.285   5.679   1.984 -0.3639  0.0924  0.0578
16309SOL    HW150450   0.375   5.696   1.944  0.0257  1.3620  1.4651
16309SOL    HW250451   0.295   5.642   2.077 -1.2795 -1.7099 -0.5228
16310SOL     OW50452   4.185   7.986   6.090  0.2659 -0.0254 -0.1902
16310SOL    HW150453   4.231   8.001   6.003  0.6455 -0.6390 -0.0937
16310SOL    HW250454   4.170   7.888   6.104 -0.5586  0.1233  0.0405
16311SOL     OW50455   5.941   7.993   3.137  0.1505  0.3155 -0.1662
16311SOL    HW150456   6.012   7.944   3.186 -0.6737 -0.0916  0.6284
16311SOL    HW250457   5.980   8.077   3.097  1.2786 -0.3666 -0.5307
16313SOL     OW50458   3.340   2.209   5.184  0.4641  0.4093 -0.1464
16313SOL    HW150459   3.271   2.177   5.119  0.6837 -1.4090  0.4868
16313SOL    HW250460   3.394   2.131   5.216  1.7707  1.5963  0.5697
16314SOL     OW50461   7.874   8.312   1.553  0.2861  0.2217  0.9410
16314SOL    HW150462   7.948   8.378   1.560 -0.7185  1.3983  0.6700
16314SOL    HW250463   7.881   8.264   1.466  1.3310 -0.4249  1.3724
16315SOL     OW50464   0.289   0.426   6.534 -0.3924 -0.2024 -0.3986
16315SOL    HW150465   0.379   0.425   6.577 -1.7940 -0.0055  2.6867
16315SOL    HW250466   0.260   0.332   6.514 -0.6720 -0.4704  1.2221
16317SOL     OW50467   7.280   2.019   1.925  0.2504 -0.0795 -0.4645
16317SOL    HW150468   7.207   2.076   1.886 -1.8405 -0.8464  2.1946
16317SOL    HW250469   7.269   1.925   1.892 -0.8398 -0.4913  1.0402
16318SOL     OW50470   4.050   4.992   4.304  0.4205  0.9350  0.3078
16318SOL    HW150471   4.052   4.977   4.403 -0.7250 -0.2328  0.1623
16318SOL    HW250472   3.995   4.922   4.260 -0.1234  2.1647 -1.0369
16319SOL     OW50473   9.448   6.978   7.732 -0.3130 -0.7891  0.3336
16319SOL    HW150474   9.422   7.037   7.808 -1.0359 -2.0631  1.0969
16319SOL    HW250475   9.523   6.919   7.760 -1.6652 -2.4176  0.6299
16320SOL     OW50476   7.333   0.804   2.365 -0.1522 -0.2791 -0.5640
16320SOL    HW150477   7.315   0.845   2.276 -1.2401  0.5446  0.0287
16320SOL    HW250478   7.259   0.742   2.390 -0.1987  0.0264  0.0734
16321SOL     OW50479   3.078   1.902   0.868  0.4492 -0.6412  0.3365
16321SOL    HW150480   3.007   1.837   0.841 -0.7656  0.7389  0.1282
16321SOL    HW250481   3.050   1.949   0.952  0.4982  0.8223 -0.4372
16322SOL     OW50482   8.008   7.922   7.149  0.0812 -0.5043  0.1687
16322SOL    HW150483   7.986   7.899   7.244 -0.2900  0.3205  0.2788
16322SOL    HW250484   8.033   8.018   7.143 -0.3259 -0.4539 -0.6552
16323SOL     OW50485   4.388   9.819   2.749  0.1626 -0.0024 -0.2899
16323SOL    HW150486   4.426   9.911   2.736  1.4433 -0.4034  0.5400
16323SOL    HW250487   4.310   9.824   2.810 -0.7571  0.7474 -1.5081
16324SOL     OW50488   0.312   1.899   0.239  0.6040  0.2492  0.4272
16324SOL    HW150489   0.348   1.857   0.155  0.5874  1.5399 -0.2326
16324SOL    HW250490   0.213   1.886   0.242  0.4578  1.1576 -0.3042
16325SOL     OW50491   1.287   0.369   1.963  0.2509 -0.3299 -0.0625
16325SOL    HW150492   1.313   0.352   2.058 -2.2813  1.0027  0.9237
16325SOL    HW250493   1.230   0.452   1.958  1.8940  0.7036 -2.9942
16326SOL     OW50494   3.714   0.048   7.501  0.5144  0.2522 -0.0653
16326SOL    HW150495   3.618   0.074   7.510  0.0433 -1.0909 -0.9967
16326SOL    HW250496   3.756   0.043   7.592 -0.4553  0.2689  0.3887
16327SOL     OW50497   4.940   0.030   2.977 -0.1965 -0.0381 -1.1321
16327SOL    HW150498   4.911   0.116   3.018 -1.1346  0.2872 -2.4821
16327SOL    HW250499   4.861  -0.018   2.938 -0.0534 -2.5322  1.4577
16328SOL     OW50500   0.937   1.237   3.169  0.2552  0.3555  0.4766
16328SOL    HW150501   1.027   1.260   3.207  0.1774 -1.6002  1.9446
16328SOL    HW250502   0.867   1.247   3.241 -0.4194  0.0507 -0.1323
16329SOL     OW50503   5.049   7.070   3.258 -0.3086  0.0333 -0.7985
16329SOL    HW150504   5.079   7.058   3.352  0.6759  0.2409 -1.0716
16329SOL    HW250505   4.956   7.106   3.256 -0.8753 -1.3756  0.0758
16330SOL     OW50506   3.693   2.482   1.912 -0.0760 -0.2324 -0.2913
16330SOL    HW150507   3.652   2.429   1.987  0.0147  0.0651 -0.0294
16330SOL    HW250508   3.650   2.456   1.826 -1.6186  0.8534  0.1095
16331SOL     OW50509   4.906   8.595   1.584  0.5294  0.2772 -0.0378
16331SOL    HW150510   4.857   8.521   1.538 -0.7700  0.9501  0.2526
16331SOL    HW250511   4.941   8.562   1.672  0.4943 -0.1712 -0.1921
16332SOL     OW50512   3.677   6.487   6.652 -0.0213 -0.0502 -0.2568
16332SOL    HW150513   3.771   6.504   6.624 -0.7096  1.8735 -1.5860
16332SOL    HW250514   3.645   6.562   6.710 -1.4509  0.5723 -1.7802
16333SOL     OW50515   5.601   4.459   0.847 -0.6020  0.2105 -0.4517
16333SOL    HW150516   5.529   4.410   0.797  0.3855  0.1409 -1.8440
16333SOL    HW250517   5.572   4.553   0.863 -2.4017 -0.7283  2.0061
16335SOL     OW50518   8.692   4.408   5.738  0.1264  0.1791  0.1136
16335SOL    HW150519   8.691   4.312   5.711  0.6678 -0.0899  1.0181
16335SOL    HW250520   8.651   4.419   5.828  3.6109  0.1912  1.8047
16336SOL     OW50521   4.173   7.136   1.855 -0.0505  0.6444  0.6218
16336SOL    HW150522   4.220   7.058   1.815 -0.6099  0.3895  0.4570
16336SOL    HW250523   4.233   7.216   1.851 -0.4064  0.8506 -1.5497
16337SOL     OW50524   8.326   1.297   6.077  0.5638 -0.1689 -0.1855
16337SOL    HW150525   8.406   1.238   6.089  0.0970 -1.0385 -1.2902
16337SOL    HW250526   8.344   1.386   6.120  1.3132 -1.0575  1.3650
16338SOL     OW50527   6.082   0.490   5.575  0.0100 -0.1892 -0.0484
16338SOL    HW150528   6.125   0.580   5.582 -0.8636  0.2361 -0.0514
16338SOL    HW250529   6.102   0.450   5.485  0.3048  0.0490 -0.0902
16339SOL     OW50530   8.546   2.204   6.129 -0.5251 -0.3568  0.2830
16339SOL    HW150531   8.509   2.211   6.036 -0.7902  0.4924  0.4579
16339SOL    HW250532   8.476   2.168   6.190 -1.3397  2.0000  0.7779
16340SOL     OW50533   9.287   8.407   5.641  0.6918  0.1213  0.2412
16340SOL    HW150534   9.281   8.319   5.593  1.3267 -1.1473  2.4330
16340SOL    HW250535   9.364   8.460   5.606  1.2184 -0.8380 -0.0512
16341SOL     OW50536   0.067   0.935   4.154  0.0021 -0.0186 -0.2136
16341SOL    HW150537   0.111   0.845   4.157 -0.7508 -0.5616 -3.4084
16341SOL    HW250538   0.111   0.996   4.220  2.9309 -1.6950 -0.5282
16342SOL     OW50539   7.551   8.311   6.755 -0.3469  0.3967 -0.2185
16342SOL    HW150540   7.479   8.373   6.786  0.1075  1.4650 -1.2630
16342SOL    HW250541   7.602   8.277   6.835 -0.6132  1.3599  0.3718
16343SOL     OW50542   3.094   6.158   2.418  0.2195  0.7746  0.1833
16343SOL    HW150543   3.166   6.207   2.370  0.6024 -0.9195 -1.0236
16343SOL    HW250544   3.058   6.085   2.360 -0.0710 -0.6222  2.0520
16344SOL     OW50545   9.099   7.757   6.029 -0.4523  0.0798 -0.0442
16344SOL    HW150546   9.186   7.748   5.980 -0.7826 -2.1286 -0.2970
16344SOL    HW250547   9.028   7.707   5.980 -1.8176  1.6417  0.3143
16346SOL     OW50548   8.442   2.808   7.500 -0.6139 -0.1807 -0.0032
16346SOL    HW150549   8.517   2.858   7.543 -1.1749  0.7505 -0.0978
16346SOL    HW250550   8.363   2.809   7.561 -1.4050  1.1254 -1.0210
16347SOL     OW50551   7.940   0.534   7.924 -0.0031 -0.1148 -0.6591
16347SOL    HW150552   8.012   0.595   7.889 -0.7281  0.8212 -0.5215
16347SOL    HW250553   7.970   0.439   7.913  0.5760  0.2130 -2.1218
16348SOL     OW50554   4.678   8.661   7.788 -0.3827 -0.0511 -0.2670
16348SOL    HW150555   4.617   8.592   7.750  1.6383 -2.7898  1.2730
16348SOL    HW250556   4.769   8.650   7.748  0.4695  0.4049  1.5264
16351SOL     OW50557   5.248   2.608   7.348  0.1953  0.7926 -1.1509
16351SOL    HW150558   5.217   2.516   7.368  1.1317  0.6969 -0.0517
16351SOL    HW250559   5.174   2.673   7.364 -0.8209  0.1422 -3.0351
16352SOL     OW50560   2.085   4.611   6.752 -0.0695  0.9943  0.1857
16352SOL    HW150561   2.013   4.678   6.770 -0.2156  0.6185  1.0134
16352SOL    HW250562   2.172   4.646   6.787  0.3073  1.7836 -1.4886
16354SOL     OW50563   8.788   7.573   4.468 -0.2418 -0.0079 -0.2416
16354SOL    HW150564   8.716   7.632   4.432 -0.6634 -0.8037 -0.7143
16354SOL    HW250565   8.767   7.549   4.563 -0.2700  0.2859 -0.1737
16355SOL     OW50566   5.219   9.947   2.061 -0.3686 -0.2348  0.5324
16355SOL    HW150567   5.243   9.963   2.157  2.3778  3.4478 -0.6285
16355SOL    HW250568   5.286   9.884   2.021 -0.0985  0.1022  0.4503
16357SOL     OW50569   5.734   8.752   5.439  0.2297  0.6892  0.4551
16357SOL    HW150570   5.668   8.810   5.488  0.4294  0.1028  1.4243
16357SOL    HW250571   5.806   8.809   5.400  0.9192  1.0145  2.1798
16358SOL     OW50572   0.924   8.150   6.699  0.6410 -0.7597  0.1487
16358SOL    HW150573   0.904   8.060   6.659 -1.3182  0.6897 -2.2395
16358SOL    HW250574   0.861   8.167   6.775  0.1218 -0.8403 -0.2624
16359SOL     OW50575   4.582   0.850   4.848  0.4842 -0.1291 -0.1095
16359SOL    HW150576   4.602   0.811   4.758  1.3504 -1.0542  0.4619
16359SOL    HW250577   4.496   0.901   4.844  0.8198  0.3488 -1.6006
16360SOL     OW50578   0.525   8.984   4.859 -0.1698 -0.7781  0.0988
16360SOL    HW150579   0.474   8.904   4.826 -1.1421 -0.4197  0.7105
16360SOL    HW250580   0.575   8.959   4.942  0.1235 -0.9516 -0.1285
16361SOL     OW50581   9.034   1.508   4.994  0.0552  0.0654 -0.1804
16361SOL    HW150582   8.985   1.421   4.999 -1.9111  1.2537  3.6214
16361SOL    HW250583   9.122   1.499   5.040  0.7289 -0.3988 -1.5291
16362SOL     OW50584   2.184   8.496   4.348 -0.2362 -0.2584 -0.2564
16362SOL    HW150585   2.231   8.500   4.259  0.6788 -0.4518  0.2113
16362SOL    HW250586   2.097   8.447   4.337 -0.8199  0.9749 -1.3362
16363SOL     OW50587   7.711   1.468   6.061  0.0023  0.7011  0.1643
16363SOL    HW150588   7.767   1.409   6.119  1.5114  0.2379 -1.6847
16363SOL    HW250589   7.618   1.431   6.056  1.1008 -2.0086 -1.5441
16364SOL     OW50590   6.052   5.504   1.503 -0.0978  0.2020 -0.0806
16364SOL    HW150591   6.149   5.497   1.527 -0.3806 -1.1148  0.7383
16364SOL    HW250592   6.024   5.600   1.506  1.3941  0.6828 -1.2041
16365SOL     OW50593   2.101   5.714   1.004 -0.1152  0.9097  0.4565
16365SOL    HW150594   2.087   5.748   1.097 -0.0869  0.6295  0.5640
16365SOL    HW250595   2.186   5.662   1.000  0.2947  1.6055  0.0801
16367SOL     OW50596   8.874   5.980   2.579 -0.0407 -0.0849 -0.3496
16367SOL    HW150597   8.807   5.906   2.578 -0.5866  0.4078 -0.5535
16367SOL    HW250598   8.954   5.953   2.526  0.5684 -1.2643  1.1269
16368SOL     OW50599   1.092   4.913   5.925  0.3353  0.1716 -0.1365
16368SOL    HW150600   1.132   4.887   6.014 -1.5489  1.9513  1.2767
16368SOL    HW250601   0.993   4.911   5.932  0.1255 -1.6519 -2.8501
16372SOL     OW50602   1.664   0.506   2.403  0.2393  0.2202 -0.3978
16372SOL    HW150603   1.674   0.566   2.482  0.3372 -1.2246  0.7080
16372SOL    HW250604   1.750   0.459   2.385  0.1690  0.4114 -1.2626
16373SOL     OW50605   4.663   5.306   2.677  0.0315  0.4305 -0.5390
16373SOL    HW150606   4.683   5.388   2.730  0.6328 -0.3276  0.4235
16373SOL    HW250607   4.576   5.267   2.706 -0.0240  0.4597 -0.6639
16374SOL     OW50608   1.431   4.347   5.014  0.1102  0.2042  0.5795
16374SOL    HW150609   1.477   4.430   4.980  0.1276 -0.3970 -0.9142
16374SOL    HW250610   1.499   4.278   5.037 -0.0181 -0.6111 -1.4326
16375SOL     OW50611   6.979   9.320   5.387 -0.0051  0.2188  0.0137
16375SOL    HW150612   7.026   9.295   5.303 -0.1260  1.6483 -0.4968
16375SOL    HW250613   6.907   9.253   5.407  1.2534 -1.1474 -0.0058
16376SOL     OW50614   4.491   8.296   4.791  0.3492  0.4234 -0.1216
16376SOL    HW150615   4.491   8.283   4.692 -0.2594 -0.7405  0.0194
16376SOL    HW250616   4.510   8.391   4.812  0.3944  0.6992 -1.3638
16377SOL     OW50617   9.084   5.760   0.381 -0.2948 -0.0111 -0.9604
16377SOL    HW150618   9.067   5.714   0.468 -1.1048  0.7102 -0.7351
16377SOL    HW250619   9.180   5.750   0.356  0.0276  0.1476  0.2179
16379SOL     OW50620   5.349   0.195   2.019  0.0704 -0.3513  0.8028
16379SOL    HW150621   5.281   0.129   2.049 -0.7718  0.6347  1.0800
16379SOL    HW250622   5.305   0.263   1.960  1.1479 -0.6682 -0.3985
16380SOL     OW50623   3.484   2.038   5.598  0.1907  0.4924 -0.1140
16380SOL    HW150624   3.561   1.980   5.572 -1.1412 -0.7812 -1.2922
16380SOL    HW250625   3.516   2.112   5.658  2.2310 -0.2914 -0.2190
16382SOL     OW50626   2.055   4.050   7.516 -0.1947 -0.0520 -0.0543
16382SOL    HW150627   2.046   3.977   7.584 -0.1094  0.3220  0.3664
16382SOL    HW250628   1.981   4.117   7.530 -0.5491 -0.3038 -0.7385
16383SOL     OW50629   1.773   6.626   3.223  0.0410 -0.2322 -0.8413
16383SOL    HW150630   1.794   6.723   3.231  0.3496 -0.5408  3.1876
16383SOL    HW250631   1.675   6.614   3.207 -0.2270  0.7195  0.0563
16385SOL     OW50632   8.348   4.118   3.152  0.4166 -0.3487  0.5676
16385SOL    HW150633   8.393   4.206   3.168 -0.8685  0.4216 -0.0087
16385SOL    HW250634   8.261   4.133   3.105  0.2040 -1.9346  0.4342
16386SOL     OW50635   6.867   8.343   4.702 -0.3760  0.7789 -0.0971
16386SOL    HW150636   6.938   8.318   4.637  0.6270  0.7119  1.0101
16386SOL    HW250637   6.894   8.426   4.751  0.1537 -0.6659  2.1487
16387SOL     OW50638   3.083   6.609   3.693  0.0465  0.0786 -0.4504
16387SOL    HW150639   3.035   6.659   3.620  2.7435  0.5246 -1.9968
16387SOL    HW250640   3.108   6.673   3.766  1.3877  0.5463 -1.3071
16389SOL     OW50641   9.842   5.628   6.199  0.2182 -0.7012 -0.4089
16389SOL    HW150642   9.799   5.552   6.248 -1.0777 -0.3759 -1.0135
16389SOL    HW250643   9.880   5.693   6.265 -1.2208 -0.4362  0.1709
16390SOL     OW50644   6.386   9.982   3.068  0.1483  0.0335  0.3057
16390SOL    HW150645   6.287   9.967   3.071 -0.1091  1.4533 -0.7544
16390SOL    HW250646   6.420   9.993   3.161 -0.9435  1.1092  0.5979
16391SOL     OW50647   3.111   0.930   5.288  0.5013 -0.1136  0.0471
16391SOL    HW150648   3.031   0.974   5.329  0.8766  0.1160  0.5447
16391SOL    HW250649   3.116   0.952   5.191 -0.0500 -0.1478  0.0112
16392SOL     OW50650   8.108   4.316   5.083  0.0588  0.2793  1.0570
16392SOL    HW150651   8.133   4.383   5.012  2.0251  0.5578  1.9824
16392SOL    HW250652   8.144   4.226   5.058 -1.4775 -0.1814  0.4503
16393SOL     OW50653   0.441   9.791   7.100  0.5773 -0.7638  0.4264
16393SOL    HW150654   0.459   9.696   7.125  1.0390 -0.6048  0.7046
16393SOL    HW250655   0.500   9.817   7.023  0.0565 -0.8733 -0.0048
16394SOL     OW50656   1.318   2.123   4.983  0.2586 -0.1071  0.3344
16394SOL    HW150657   1.303   2.222   4.982  0.2125 -0.1126 -0.3761
16394SOL    HW250658   1.410   2.103   5.016  0.3073  0.1816  0.3781
16395SOL     OW50659   9.737   8.485   7.937 -0.1636  0.5960 -0.0690
16395SOL    HW150660   9.734   8.542   7.855 -1.5153  1.5257  0.6060
16395SOL    HW250661   9.647   8.445   7.953 -0.2746  1.5252  1.7215
16396SOL     OW50662   1.861   6.539   5.277  0.0666  0.2499  0.0409
16396SOL    HW150663   1.933   6.581   5.222 -3.1421  3.0920 -2.2199
16396SOL    HW250664   1.860   6.581   5.368 -0.0382  1.7024 -0.6147
16397SOL     OW50665   7.151   7.990   5.664 -0.1701  0.0477 -0.5460
16397SOL    HW150666   7.054   8.015   5.655 -0.2431  0.0749  0.3198
16397SOL    HW250667   7.158   7.901   5.710  0.1423 -0.8920 -2.3212
16398SOL     OW50668   2.046   4.693   6.452  0.0909 -0.2913  0.1215
16398SOL    HW150669   2.050   4.776   6.507  1.4005  0.8693 -1.6824
16398SOL    HW250670   2.128   4.639   6.468 -0.2852 -0.7487  0.5223
16399SOL     OW50671   1.490   0.084   0.527 -0.2077 -0.3103 -0.2784
16399SOL    HW150672   1.578   0.090   0.574  0.7964 -0.3022 -2.0975
16399SOL    HW250673   1.444  -0.001   0.553  1.7416 -1.8358 -1.6066
16400SOL     OW50674   4.726   9.849   1.292  0.1899 -0.4046  0.0836
16400SOL    HW150675   4.668   9.899   1.228  1.0620  1.4360  0.6840
16400SOL    HW250676   4.750   9.760   1.253 -1.6964 -0.5110 -0.8473
16401SOL     OW50677   7.216   8.965   3.391 -0.6619 -0.5961  0.1225
16401SOL    HW150678   7.207   8.870   3.363  0.8720 -0.9206  0.6600
16401SOL    HW250679   7.283   9.011   3.331  0.5371 -0.5598  1.4571
16402SOL     OW50680   4.068   8.789   0.225  0.1664 -0.0852 -0.5877
16402SOL    HW150681   4.121   8.872   0.210  1.0990 -0.7021 -0.7618
16402SOL    HW250682   3.974   8.813   0.252  0.1473  1.0085 -1.6008
16403SOL     OW50683   2.004   8.568   5.563  0.1820 -0.3528 -0.0028
16403SOL    HW150684   1.993   8.479   5.608 -2.7048 -0.3295 -0.5848
16403SOL    HW250685   2.039   8.634   5.629 -0.1194 -1.2932  1.1189
16405SOL     OW50686   0.812   3.269   2.273  0.1531 -0.3389 -0.3861
16405SOL    HW150687   0.872   3.344   2.299  0.1277 -0.7275  0.8178
16405SOL    HW250688   0.811   3.200   2.345 -0.4013 -1.1485 -1.1530
16406SOL     OW50689   4.915   2.278   6.231  0.0012 -0.2912 -0.2372
16406SOL    HW150690   4.909   2.184   6.199  1.3906 -0.9118  1.2945
16406SOL    HW250691   4.865   2.287   6.318  1.3080 -0.0150  0.4877
16407SOL     OW50692   5.536   3.483   7.843 -0.1833 -0.0530  0.1925
16407SOL    HW150693   5.572   3.483   7.750 -0.4728 -1.5011  0.0810
16407SOL    HW250694   5.609   3.505   7.907  0.6182 -1.6865 -0.1447
16408SOL     OW50695   3.832   8.331   6.705 -0.1343  0.4784  0.5142
16408SOL    HW150696   3.873   8.278   6.631  1.2099  1.6160  0.4256
16408SOL    HW250697   3.869   8.300   6.793  0.7038  1.2776  0.4579
16410SOL     OW50698   2.727   7.274   5.162 -0.3401  0.3484  0.2780
16410SOL    HW150699   2.704   7.370   5.145 -0.3106  0.1725 -0.8316
16410SOL    HW250700   2.643   7.222   5.177 -0.3630  0.5334  0.7794
16412SOL     OW50701   8.752   5.132   3.735  0.1553  0.4941  0.1567
16412SOL    HW150702   8.714   5.049   3.695 -0.5320 -0.2047  2.1759
16412SOL    HW250703   8.772   5.198   3.663 -0.1323 -1.0714 -1.3922
16413SOL     OW50704   0.212   8.107   2.930  0.1950  0.0031 -0.5477
16413SOL    HW150705   0.124   8.143   2.962 -0.4968 -0.6821 -1.6573
16413SOL    HW250706   0.247   8.040   2.995  1.6521  2.8326  1.7285
16414SOL     OW50707   2.567   7.463   2.846 -0.3606 -0.0004 -0.0724
16414SOL    HW150708   2.614   7.440   2.762 -1.5257 -0.9365 -0.4827
16414SOL    HW250709   2.469   7.475   2.828 -0.4510  0.9241  0.9357
16415SOL     OW50710   9.940   0.054   7.451  0.3085  0.2235 -0.1104
16415SOL    HW150711   9.978  -0.021   7.504  0.5227  0.6231  0.2957
16415SOL    HW250712   9.840   0.048   7.452  0.3380 -0.7591 -1.0871
16416SOL     OW50713   6.722   4.736   7.585 -0.1156 -0.8958  0.1951
16416SOL    HW150714   6.757   4.662   7.528  0.0890 -1.8501  1.5431
16416SOL    HW250715   6.795   4.768   7.645  0.2871  1.5306 -1.4924
16417SOL     OW50716   6.525   3.538   1.757  0.1905  0.0266  1.9409
16417SOL    HW150717   6.524   3.438   1.751  1.0893  0.1262 -0.3499
16417SOL    HW250718   6.590   3.566   1.827  1.6278 -0.9760  1.0427
16418SOL     OW50719   2.213   3.086   1.567 -0.0810 -0.0432 -0.2123
16418SOL    HW150720   2.290   3.022   1.577  0.1330 -0.1500 -2.3838
16418SOL    HW250721   2.128   3.035   1.565 -0.1014 -0.0478  0.6366
16419SOL     OW50722   9.942   4.262   7.104  0.1845  0.0969  0.5452
16419SOL    HW150723  10.001   4.182   7.112 -0.2465 -0.1176  1.5433
16419SOL    HW250724   9.932   4.306   7.193 -1.3733 -0.0155  0.4442
16420SOL     OW50725   4.517   0.373   7.419  0.2686 -0.5076  0.2265
16420SOL    HW150726   4.616   0.385   7.430  0.2448 -0.1143  0.0294
16420SOL    HW250727   4.472   0.461   7.431 -0.0806 -0.7304  0.5477
16421SOL     OW50728   2.455   7.607   3.464 -0.2484  0.0950 -0.3716
16421SOL    HW150729   2.538   7.660   3.447  0.4977 -1.2590 -1.0448
16421SOL    HW250730   2.476   7.534   3.530 -0.2875 -1.7275 -2.3220
16422SOL     OW50731   3.582   1.259   7.254  0.3566  0.1372 -0.1809
16422SOL    HW150732   3.625   1.349   7.254  0.5887  0.0285  0.2601
16422SOL    HW250733   3.617   1.205   7.331 -0.9656  0.2318  0.5059
16423SOL     OW50734   9.996   7.320   3.442 -0.2548 -0.0771 -0.1409
16423SOL    HW150735   9.915   7.289   3.392 -0.2024 -0.0645 -0.2365
16423SOL    HW250736   9.999   7.275   3.531 -1.0475  0.9031  0.3770
16425SOL     OW50737   2.451   6.020   4.002 -0.3308  0.0294  0.3948
16425SOL    HW150738   2.405   5.968   4.074  0.0057  0.8352  1.2035
16425SOL    HW250739   2.406   6.109   3.991  1.4049  1.0912  1.6440
16426SOL     OW50740   8.104   3.557   5.594  0.5895 -0.0512 -0.3510
16426SOL    HW150741   8.139   3.566   5.687  0.3511 -0.8928 -0.1732
16426SOL    HW250742   8.068   3.646   5.563  0.2105  0.1172  0.5487
16428SOL     OW50743   2.368   2.107   4.726  0.0737  0.4645 -0.2009
16428SOL    HW150744   2.348   2.103   4.629 -0.6314 -1.0277 -0.0013
16428SOL    HW250745   2.306   2.173   4.770  0.1007  0.8158 -0.6912
16429SOL     OW50746   2.557   5.495   7.393  0.3047  0.1154 -0.6007
16429SOL    HW150747   2.627   5.500   7.464 -0.6269  1.6339  0.2514
16429SOL    HW250748   2.512   5.406   7.396 -0.3653  0.4933  1.3537
16431SOL     OW50749   2.589   2.497   0.120  0.1008 -0.5101 -0.1275
16431SOL    HW150750   2.554   2.425   0.179  0.7874 -0.8321 -0.1018
16431SOL    HW250751   2.567   2.476   0.025 -0.2185 -0.4467 -0.0688
16432SOL     OW50752   3.294   7.498   4.231  0.7791 -0.1831 -0.1453
16432SOL    HW150753   3.258   7.555   4.157  0.9777 -0.8615 -0.7720
16432SOL    HW250754   3.361   7.550   4.284  0.3299  0.4429 -0.1896
16434SOL     OW50755   5.421   1.620   4.276  0.6426  0.1610 -0.0351
16434SOL    HW150756   5.335   1.638   4.227  1.1677  1.8744 -0.3802
16434SOL    HW250757   5.486   1.693   4.256  2.3078 -1.3074 -0.0350
16435SOL     OW50758   1.955   7.843   7.156 -0.7280  0.2082  0.4099
16435SOL    HW150759   2.000   7.811   7.240 -0.4469  0.2558  0.2798
16435SOL    HW250760   1.856   7.840   7.167 -0.7219 -1.3448  0.1775
16436SOL     OW50761   0.139   8.377   5.832  0.0978  0.4274  0.8895
16436SOL    HW150762   0.043   8.367   5.804  0.0972 -1.6784  1.5417
16436SOL    HW250763   0.193   8.303   5.791  1.1123  0.5813  1.9330
16437SOL     OW50764   7.963   8.805   4.662 -0.3845  0.5339  0.7085
16437SOL    HW150765   7.987   8.719   4.616 -1.4113  1.1725 -1.0630
16437SOL    HW250766   7.954   8.789   4.761 -0.2295 -1.3139  0.4366
16438SOL     OW50767   1.999   7.853   1.880  0.2788  0.0504  0.6175
16438SOL    HW150768   1.993   7.893   1.788 -1.8211 -2.7646 -0.5215
16438SOL    HW250769   2.094   7.835   1.903  0.8832  1.5473 -0.6524
16439SOL     OW50770   0.099   8.802   4.817 -0.0240 -0.4585  0.3121
16439SOL    HW150771   0.046   8.761   4.892  1.5538 -1.5917  0.8376
16439SOL    HW250772   0.193   8.766   4.819  0.1661 -0.1378 -1.9376
16440SOL     OW50773   0.009   7.262   6.062 -0.2576 -0.1218 -0.5771
16440SOL    HW150774  -0.021   7.242   5.968  0.6321  1.0074 -1.1191
16440SOL    HW250775  -0.058   7.227   6.127 -0.0371 -2.5121 -1.5725
16441SOL     OW50776   4.813   8.928   3.792 -0.2471 -0.0941 -0.0747
16441SOL    HW150777   4.905   8.921   3.831 -0.1351 -0.7511 -0.4612
16441SOL    HW250778   4.766   9.006   3.834  0.2480 -0.1518  0.6071
16442SOL     OW50779   2.919   4.388   0.056 -0.2403 -0.0561  0.7445
16442SOL    HW150780   2.973   4.337   0.123 -0.0451 -2.7734 -1.3938
16442SOL    HW250781   2.890   4.475   0.096  2.5204 -0.1968  3.2441
16443SOL     OW50782   2.866   1.400   0.369  0.0352  0.0618 -0.4681
16443SOL    HW150783   2.891   1.306   0.348 -0.3897 -0.7564  2.4740
16443SOL    HW250784   2.775   1.402   0.411 -0.9145  2.0292 -2.5126
16444SOL     OW50785   7.746   6.132   0.850  0.0911 -0.5200 -0.2060
16444SOL    HW150786   7.696   6.186   0.783  0.2580 -0.9922 -0.7069
16444SOL    HW250787   7.709   6.039   0.853 -0.8872 -0.1104  1.3940
16445SOL     OW50788   2.589   5.826   0.642 -0.1483  1.0603 -0.3603
16445SOL    HW150789   2.516   5.893   0.657  0.0372  1.0380  0.7261
16445SOL    HW250790   2.568   5.743   0.693  0.7059  1.1071  0.0778
16446SOL     OW50791   1.045   1.826   3.867  0.5127  0.3388  0.4317
16446SOL    HW150792   1.102   1.782   3.798 -0.5314 -0.1707 -0.1053
16446SOL    HW250793   1.093   1.906   3.903  1.8064 -0.4025  0.3877
16448SOL     OW50794   9.920   4.241   4.565  0.3653  0.4205  0.0282
16448SOL    HW150795  10.000   4.191   4.601  0.4119  0.3528 -0.1674
16448SOL    HW250796   9.946   4.287   4.480  0.2488  0.5571  0.0688
16449SOL     OW50797   2.234   7.641   3.301  0.4106 -0.5444  0.0525
16449SOL    HW150798   2.305   7.643   3.370  1.4976  0.8228 -1.0615
16449SOL    HW250799   2.145   7.631   3.345  0.9506  1.7752  1.7703
16450SOL     OW50800   3.380   8.221   7.458 -0.2520 -0.2554  0.0330
16450SOL    HW150801   3.345   8.129   7.439 -0.7159 -0.5717  2.3102
16450SOL    HW250802   3.478   8.216   7.478 -0.4535 -0.3696  0.9939
16452SOL     OW50803   4.538   5.404   7.405  0.2005 -0.2074  0.5613
16452SOL    HW150804   4.609   5.473   7.415 -0.3162  0.3177  0.6387
16452SOL    HW250805   4.576   5.313   7.423  0.4125  0.2427  2.5054
16453SOL     OW50806   9.160   5.954   0.090 -0.2147 -0.0775 -0.4335
16453SOL    HW150807   9.151   5.940   0.189  0.9187 -0.1325 -0.3269
16453SOL    HW250808   9.125   6.044   0.066  2.5083  1.2941  0.5297
16454SOL     OW50809   8.360   3.207   6.034 -0.4776  0.1744 -0.5264
16454SOL    HW150810   8.423   3.267   6.084 -0.9054  0.8900 -0.8348
16454SOL    HW250811   8.395   3.114   6.035 -0.7794  0.0504  1.6355
16455SOL     OW50812   0.956   5.828   5.339 -0.6539 -0.0286 -0.0833
16455SOL    HW150813   0.888   5.898   5.315 -0.4419  0.8209  1.7480
16455SOL    HW250814   1.016   5.863   5.411  1.9373 -0.6511 -1.8608
16456SOL     OW50815   1.225   4.872   4.547 -0.3142 -0.1768  0.5116
16456SOL    HW150816   1.224   4.837   4.454  0.7025 -0.5475  0.6346
16456SOL    HW250817   1.235   4.795   4.611  0.5295  0.2202  0.8521
16459SOL     OW50818   0.748   2.331   7.904 -0.0284 -0.5086 -0.1647
16459SOL    HW150819   0.828   2.353   7.849  1.1933 -2.2557  0.8749
16459SOL    HW250820   0.742   2.394   7.981 -0.4812  0.5271 -1.0326
16460SOL     OW50821   3.327   6.324   6.798 -0.3560  0.7484 -0.9447
16460SOL    HW150822   3.322   6.369   6.709 -2.5933 -0.6482 -1.5592
16460SOL    HW250823   3.419   6.287   6.811 -0.1427  0.5508 -2.9013
16461SOL     OW50824   0.024   8.833   5.423 -0.1045 -0.7006 -0.0397
16461SOL    HW150825   0.099   8.892   5.453 -0.4433 -0.6206  0.6536
16461SOL    HW250826  -0.045   8.826   5.496 -2.5957  2.2062 -1.9676
16462SOL     OW50827   0.198   6.939   4.127 -0.0333  0.4925 -0.0864
16462SOL    HW150828   0.111   6.985   4.112  1.9084  3.7065 -2.0149
16462SOL    HW250829   0.256   6.995   4.187  1.0463 -1.2013  0.4923
16463SOL     OW50830   1.959   7.107   6.589  0.0526 -0.1909  0.1154
16463SOL    HW150831   2.048   7.094   6.547 -1.0932 -3.0982 -1.5815
16463SOL    HW250832   1.892   7.131   6.519 -1.0284 -0.7813  0.9218
16464SOL     OW50833   5.634   0.132   3.989  0.0357  0.6616 -0.3186
16464SOL    HW150834   5.618   0.039   4.023  0.7574  0.2514 -1.0756
16464SOL    HW250835   5.652   0.192   4.066  0.7986 -0.0876  0.1013
16465SOL     OW50836   6.525   1.485   1.386  0.3118 -0.0453  0.3774
16465SOL    HW150837   6.443   1.474   1.442 -1.2045  0.0094 -1.7388
16465SOL    HW250838   6.585   1.406   1.399 -2.3943 -2.5690 -1.6802
16466SOL     OW50839   0.283   6.970   7.022 -0.1888  0.2245 -0.4908
16466SOL    HW150840   0.255   6.969   7.118  1.8242  0.1344  0.1035
16466SOL    HW250841   0.211   7.014   6.968 -1.2268  0.5243  1.0839
16467SOL     OW50842   0.474   2.032   6.111  0.0494  0.1921 -0.0582
16467SOL    HW150843   0.473   1.967   6.035 -0.1913  1.7657 -1.4265
16467SOL    HW250844   0.568   2.062   6.127 -0.2248  2.0745 -1.7071
16468SOL     OW50845   6.557   7.314   4.162 -0.4552  0.4901 -0.1565
16468SOL    HW150846   6.574   7.237   4.224 -1.7283  1.6055  1.6492
16468SOL    HW250847   6.515   7.280   4.078 -0.3834 -0.8600  0.3332
16470SOL     OW50848   9.554   3.033   0.835  0.0926 -0.1037 -0.5585
16470SOL    HW150849   9.563   3.120   0.884  2.9216 -0.1245 -0.9693
16470SOL    HW250850   9.642   2.985   0.836 -0.4011 -1.1743 -3.6809
16471SOL     OW50851   8.802   0.029   3.800 -0.5668 -0.0629 -0.1414
16471SOL    HW150852   8.889  -0.004   3.837 -0.9911 -0.6267  0.3602
16471SOL    HW250853   8.807   0.128   3.787  0.6064 -0.2708 -1.3628
16473SOL     OW50854   7.633   6.300   7.104 -0.2939  0.1451 -0.0864
16473SOL    HW150855   7.536   6.319   7.118 -0.6052  0.1599 -2.1633
16473SOL    HW250856   7.685   6.385   7.115 -0.7372  0.5260 -0.9111
16474SOL     OW50857   7.473   9.349   6.852 -0.0918 -0.6459 -0.1059
16474SOL    HW150858   7.464   9.437   6.807 -0.6904 -0.1676  0.9281
16474SOL    HW250859   7.387   9.299   6.845 -0.3391 -0.3706  0.9053
16477SOL     OW50860   0.243   2.169   6.782  0.2180 -0.0717 -0.5509
16477SOL    HW150861   0.272   2.194   6.690 -1.1490  0.1533 -0.9461
16477SOL    HW250862   0.214   2.073   6.784 -1.9595  0.5385 -0.9516
16478SOL     OW50863   4.497   2.852   1.088 -0.2451  0.2388  0.2934
16478SOL    HW150864   4.486   2.845   0.989  0.2049 -1.1219  0.3413
16478SOL    HW250865   4.503   2.949   1.114  0.4406  0.5729 -1.0899
16479SOL     OW50866   0.527   1.580   6.821  0.0127  0.2002 -0.1104
16479SOL    HW150867   0.487   1.644   6.887 -0.7631  1.0976 -1.4191
16479SOL    HW250868   0.454   1.541   6.765  0.5271 -1.5352  0.4031
16480SOL     OW50869   6.389   1.453   2.751 -0.4633 -0.1836  0.5228
16480SOL    HW150870   6.454   1.388   2.790 -0.7918 -0.9979 -0.2650
16480SOL    HW250871   6.318   1.403   2.702 -0.3256  0.7991 -0.6980
16481SOL     OW50872   5.965   9.166   5.001  0.6525  0.0342  0.1164
16481SOL    HW150873   5.920   9.235   4.944  2.8684  1.6068  0.2241
16481SOL    HW250874   5.983   9.084   4.946 -0.7760  0.0261 -0.3676
16482SOL     OW50875   4.706   8.961   1.344 -0.2020  0.0648  0.2306
16482SOL    HW150876   4.717   8.986   1.440  0.1456 -0.2173  0.2650
16482SOL    HW250877   4.663   9.037   1.295 -0.9992 -0.0527  0.7405
16483SOL     OW50878   3.323   1.202   0.380  0.0163 -0.4074 -0.0209
16483SOL    HW150879   3.303   1.278   0.318 -0.6594  0.4084  1.1608
16483SOL    HW250880   3.421   1.202   0.402 -0.2654  1.3181  1.4370
16484SOL     OW50881   6.305   3.822   1.045 -0.0069  0.0385  0.0066
16484SOL    HW150882   6.354   3.780   1.121 -1.2535  0.3275  0.9853
16484SOL    HW250883   6.212   3.846   1.074  0.0323  1.6451 -1.1165
16485SOL     OW50884   4.718   6.253   3.841  0.0368  0.0201 -0.1601
16485SOL    HW150885   4.806   6.285   3.874 -0.0444 -1.0103  1.0931
16485SOL    HW250886   4.644   6.299   3.892 -0.1550  0.8533 -1.1775
16487SOL     OW50887   7.054   3.543   3.591 -0.5026  0.2561 -0.3792
16487SOL    HW150888   7.063   3.586   3.681 -0.1752  0.2080 -0.3867
16487SOL    HW250889   7.142   3.503   3.565 -1.0685 -1.3290  0.0843
16488SOL     OW50890   8.123   2.577   5.049  0.2820  0.4985  0.4847
16488SOL    HW150891   8.110   2.653   5.112 -0.2951  0.5423  0.3163
16488SOL    HW250892   8.220   2.558   5.039  0.6697  3.6432 -2.3635
16489SOL     OW50893   1.876   3.600   6.511 -0.3472 -0.2508  0.5384
16489SOL    HW150894   1.856   3.548   6.594 -0.8629  0.4618  0.8726
16489SOL    HW250895   1.793   3.604   6.455 -0.4937  0.7395  0.8168
16490SOL     OW50896   7.467   5.864   3.880  0.4551  0.6957 -0.9349
16490SOL    HW150897   7.545   5.909   3.922  0.0273 -0.1766  0.8446
16490SOL    HW250898   7.476   5.765   3.891 -1.3751  0.6343  0.1871
16491SOL     OW50899   9.051   5.118   1.008 -0.2096  0.0471  0.0750
16491SOL    HW150900   9.107   5.036   1.017  0.9963  0.9565  1.1421
16491SOL    HW250901   9.001   5.116   0.921  0.6415 -1.2961 -0.3910
16492SOL     OW50902   0.225   9.590   7.891  0.0251  0.1611  0.4490
16492SOL    HW150903   0.276   9.590   7.805  1.6255 -1.5117  1.3551
16492SOL    HW250904   0.136   9.548   7.877  0.3555 -0.2875 -0.3588
16493SOL     OW50905   1.519   7.640   5.802  0.4068  0.8237 -0.5082
16493SOL    HW150906   1.555   7.695   5.727 -0.9915  2.0649 -0.2865
16493SOL    HW250907   1.424   7.616   5.783  1.2010 -2.2133 -0.9727
16495SOL     OW50908   9.472   5.486   0.446 -0.2308  0.1029  0.0567
16495SOL    HW150909   9.488   5.444   0.535  0.6029  1.0193  0.3484
16495SOL    HW250910   9.405   5.432   0.395 -2.0008  0.4867  1.9009
16497SOL     OW50911   0.513   4.297   5.977  0.3014  0.4677 -0.3272
16497SOL    HW150912   0.611   4.287   5.995  0.3298  1.6040  0.2007
16497SOL    HW250913   0.491   4.253   5.890  1.3496  0.5367 -0.6405
16499SOL     OW50914   9.807   0.390   6.417 -1.2611  0.0257 -0.5146
16499SOL    HW150915   9.778   0.295   6.423  0.5723 -0.4131  1.8458
16499SOL    HW250916   9.732   0.450   6.445 -1.4668 -0.8695  0.9002
16500SOL     OW50917   3.740   1.342   3.471  0.1757 -0.4296 -0.5311
16500SOL    HW150918   3.778   1.287   3.396  0.6444  0.7716 -1.1906
16500SOL    HW250919   3.645   1.315   3.487 -0.4501  0.3775 -2.6526
16501SOL     OW50920   7.440   4.260   2.814  0.1264  0.4229  0.5702
16501SOL    HW150921   7.534   4.270   2.847 -0.6030  0.5268  2.7475
16501SOL    HW250922   7.377   4.289   2.886 -1.6505 -2.6949  0.3612
16502SOL     OW50923   2.178   9.845   7.510  0.3665  0.3349  0.3966
16502SOL    HW150924   2.225   9.895   7.436  0.5588 -1.1867 -0.5440
16502SOL    HW250925   2.105   9.790   7.471  1.0236 -1.1495  1.2329
16503SOL     OW50926   4.006   1.412   0.179  0.3308  0.3086 -0.2957
16503SOL    HW150927   3.995   1.312   0.179  2.4766  0.0474  0.6550
16503SOL    HW250928   3.959   1.450   0.258  1.1814 -0.1731  0.4523
16504SOL     OW50929   9.003   0.073   1.171 -0.2317  0.0901  0.4779
16504SOL    HW150930   8.920   0.045   1.221 -0.2188  1.5491  1.3237
16504SOL    HW250931   9.082   0.067   1.232  0.1592 -0.3875 -0.0652
16505SOL     OW50932   8.561   2.701   3.944 -0.2362 -0.4080  0.5062
16505SOL    HW150933   8.575   2.800   3.940  1.3639 -0.5719  1.7081
16505SOL    HW250934   8.464   2.681   3.932 -0.4492  1.2385 -0.7268
16506SOL     OW50935   2.248   2.715   6.221 -0.4002 -0.0712  0.1962
16506SOL    HW150936   2.313   2.680   6.154  1.6513  3.3127  0.3508
16506SOL    HW250937   2.252   2.659   6.304  1.4858 -0.6010 -0.2328
16509SOL     OW50938   2.773   0.180   4.287 -0.1516  0.4923  0.3967
16509SOL    HW150939   2.783   0.256   4.351 -0.9645  0.5648  0.4375
16509SOL    HW250940   2.838   0.192   4.211 -1.5235  2.2016 -0.5554
16510SOL     OW50941   5.663   9.241   7.139 -0.4495  0.4059 -0.1645
16510SOL    HW150942   5.658   9.282   7.230 -1.7879 -0.9575  0.3820
16510SOL    HW250943   5.726   9.295   7.082  0.6438  1.0909  1.6454
16511SOL     OW50944   6.073   8.908   5.560  0.1934  0.4245  0.5320
16511SOL    HW150945   6.134   8.932   5.636 -0.3204 -1.6917  1.6813
16511SOL    HW250946   6.043   8.813   5.571 -0.5494  0.3419 -1.9053
16512SOL     OW50947   4.491   7.555   0.195  0.5406  0.2548 -0.5398
16512SOL    HW150948   4.418   7.573   0.130 -0.2233 -0.7814  0.0267
16512SOL    HW250949   4.476   7.609   0.279  0.1971 -0.2832 -0.2559
16513SOL     OW50950   9.879   8.522   1.198 -0.5472 -0.2751 -0.3558
16513SOL    HW150951   9.889   8.430   1.237 -1.5039 -1.2337 -2.3144
16513SOL    HW250952   9.809   8.572   1.249 -0.5835 -0.9038  0.2248
16515SOL     OW50953   5.071   0.417   6.488 -0.0278 -0.1917  0.2238
16515SOL    HW150954   5.164   0.451   6.472 -0.0231 -0.6310 -0.6790
16515SOL    HW250955   5.076   0.330   6.538  0.0805 -0.6292 -0.5403
16516SOL     OW50956   6.524   6.033   1.452 -0.0826 -0.3118 -0.0003
16516SOL    HW150957   6.550   6.091   1.530  0.9404  1.0846 -1.3431
16516SOL    HW250958   6.525   6.088   1.369  0.8049 -2.2519 -1.2858
16517SOL     OW50959   8.541   7.752   6.623 -0.3526 -0.6658 -0.2194
16517SOL    HW150960   8.592   7.800   6.695  0.5921 -1.7061 -0.1894
16517SOL    HW250961   8.444   7.777   6.630 -0.3677 -1.1717  1.7645
16518SOL     OW50962   7.320   3.156   2.914 -0.0182 -0.0561  0.0440
16518SOL    HW150963   7.331   3.076   2.854  0.0004  0.8187 -1.1209
16518SOL    HW250964   7.407   3.175   2.961  0.5650  0.5521 -1.2734
16519SOL     OW50965   2.362   5.001   1.376 -0.5411 -0.2904  0.1231
16519SOL    HW150966   2.274   4.976   1.417 -0.5825  0.0329  0.2341
16519SOL    HW250967   2.368   4.962   1.284 -1.0796  0.2511 -0.1433
16520SOL     OW50968   7.185   2.481   4.426  0.3572  0.4563  0.3217
16520SOL    HW150969   7.238   2.526   4.498  0.8122  0.1912  0.1501
16520SOL    HW250970   7.104   2.439   4.466 -0.4226  1.9758  0.4037
16521SOL     OW50971   0.350   6.815   4.456 -0.5125 -0.4024  0.2190
16521SOL    HW150972   0.403   6.768   4.526  1.3455  1.3715  0.0402
16521SOL    HW250973   0.366   6.771   4.367  0.2482 -0.1944  0.2532
16522SOL     OW50974   4.880   8.275   5.247  0.0696 -0.2285  0.4340
16522SOL    HW150975   4.969   8.236   5.222  0.4367 -0.0333  1.4033
16522SOL    HW250976   4.872   8.278   5.347 -0.5108  0.8922  0.3672
16524SOL     OW50977   4.672   7.784   6.105 -0.4804  1.0066 -0.0409
16524SOL    HW150978   4.724   7.778   6.020 -0.1787  1.8103  0.0839
16524SOL    HW250979   4.721   7.842   6.170 -0.0448 -0.6868  1.1773
16526SOL     OW50980   5.215   0.616   2.503  0.6492 -0.1601 -0.1890
16526SOL    HW150981   5.193   0.530   2.548 -0.1718  0.2516  0.2133
16526SOL    HW250982   5.135   0.648   2.451  1.0374  0.2215 -0.5635
16527SOL     OW50983   0.256   3.842   2.790 -0.3424 -0.4893  0.4694
16527SOL    HW150984   0.293   3.934   2.772 -0.1891  0.1238  3.6031
16527SOL    HW250985   0.156   3.844   2.782 -0.5064  0.4720  2.4584
16528SOL     OW50986   9.857   5.005   1.683  0.0075 -0.0758 -0.1211
16528SOL    HW150987   9.835   4.954   1.599  0.3470 -1.3463  0.5544
16528SOL    HW250988   9.799   5.087   1.688 -2.0048 -1.4537 -0.2145
16530SOL     OW50989   9.715   7.712   1.164  0.4351 -0.1289  0.2998
16530SOL    HW150990   9.663   7.626   1.163 -1.1285  0.7598  1.9200
16530SOL    HW250991   9.802   7.699   1.211  1.5447 -1.5324 -2.0556
16531SOL     OW50992   2.372   5.560  -0.000  0.3855 -0.3507 -0.0755
16531SOL    HW150993   2.454   5.503  -0.000  1.3997  1.0836 -0.1840
16531SOL    HW250994   2.381   5.631   0.070  0.2259  1.1881 -1.5702
16532SOL     OW50995   0.893   3.697   5.137 -0.2774 -0.4727  0.1821
16532SOL    HW150996   0.828   3.773   5.127 -0.2180 -0.6233 -1.3235
16532SOL    HW250997   0.843   3.611   5.145 -0.2499 -0.6100 -1.1759
16533SOL     OW50998   7.950   3.031   2.819 -0.2592  0.0497  0.5240
16533SOL    HW150999   7.912   3.023   2.727  0.4760 -1.3185  0.3336
16533SOL    HW251000   7.884   2.997   2.885  0.9822 -3.3443  0.1065
16534SOL     OW51001   1.388   4.008   3.293 -0.3185 -0.2424 -0.0866
16534SOL    HW151002   1.343   4.057   3.367  1.7880 -0.1113  1.1518
16534SOL    HW251003   1.435   4.073   3.234 -0.7216 -0.4732 -0.6648
16536SOL     OW51004   1.029   4.373   0.930  0.1135 -0.1502 -0.7778
16536SOL    HW151005   1.032   4.426   1.015  0.1088 -1.4864  0.0781
16536SOL    HW251006   1.118   4.377   0.885 -0.2421  1.5939 -1.3744
16537SOL     OW51007   2.879   9.086   2.350  0.2821 -0.2090 -0.5026
16537SOL    HW151008   2.789   9.121   2.375  0.0699 -0.0502 -1.4790
16537SOL    HW251009   2.933   9.071   2.433  0.3956  2.4457 -0.0423
16538SOL     OW51010   1.905   0.473   5.103  0.2310 -0.2119  0.3130
16538SOL    HW151011   1.959   0.389   5.101 -1.0885 -1.0446 -0.5139
16538SOL    HW251012   1.811   0.454   5.076  0.5689  1.9877 -2.7169
16539SOL     OW51013   7.008   0.844   6.685  0.0136  0.2949 -0.6747
16539SOL    HW151014   7.100   0.822   6.651  0.9457 -0.1570  2.0026
16539SOL    HW251015   6.941   0.787   6.638  1.3943 -1.3314 -0.7462
16540SOL     OW51016   7.623   5.901   2.035 -0.1763 -0.7275  0.0761
16540SOL    HW151017   7.629   6.000   2.022  0.4363 -0.7280  0.3142
16540SOL    HW251018   7.609   5.856   1.947  1.0388 -0.5363 -0.2168
16542SOL     OW51019   1.980   6.468   7.119  0.0561  0.6843  0.1429
16542SOL    HW151020   1.913   6.511   7.058 -0.3184 -1.8086 -1.2962
16542SOL    HW251021   1.934   6.401   7.177  0.9316  0.7059  0.8705
16543SOL     OW51022   8.619   7.852   3.701  0.4322  0.9248 -0.0400
16543SOL    HW151023   8.549   7.836   3.772 -1.4281 -0.3612 -2.1107
16543SOL    HW251024   8.594   7.934   3.649  0.0929  0.0825 -1.2124
16544SOL     OW51025   0.457   6.541   1.170 -0.3413 -0.0600 -0.0761
16544SOL    HW151026   0.537   6.520   1.227 -2.9814  0.4823  4.0616
16544SOL    HW251027   0.393   6.465   1.172 -1.6075  0.9699 -0.2647
16545SOL     OW51028   7.550   2.088   2.203  0.2248 -0.1734 -0.8561
16545SOL    HW151029   7.551   2.050   2.296  1.3358  2.2118  0.1375
16545SOL    HW251030   7.523   2.016   2.139 -0.8290 -1.7987  1.3228
16546SOL     OW51031   9.694   6.904   4.105 -0.1564 -0.3000 -0.2873
16546SOL    HW151032   9.760   6.932   4.036 -0.1786  1.8994  0.5378
16546SOL    HW251033   9.613   6.962   4.099 -0.4297 -0.5026  1.1758
16548SOL     OW51034   0.638   0.517   5.977  0.2780  0.2183  0.2717
16548SOL    HW151035   0.637   0.617   5.983  1.3393  0.3264 -0.8944
16548SOL    HW251036   0.646   0.490   5.881  0.4357 -0.9767  0.6136
16549SOL     OW51037   4.155   9.166   0.304  0.2912 -0.0083  0.1753
16549SOL    HW151038   4.206   9.151   0.389 -0.4372 -0.1943  0.5845
16549SOL    HW251039   4.149   9.264   0.286  1.0136  0.0098 -0.0183
16550SOL     OW51040   3.398   0.035   5.025 -0.1092 -0.0226 -0.3746
16550SOL    HW151041   3.338   0.066   5.099 -0.1370  1.7657 -1.1089
16550SOL    HW251042   3.359  -0.046   4.982 -0.9453 -0.0827  0.4792
16551SOL     OW51043   8.505   1.371   0.681 -0.7213 -0.2628  0.8916
16551SOL    HW151044   8.598   1.344   0.705 -0.6445  0.0638  0.9643
16551SOL    HW251045   8.492   1.468   0.702 -1.1655 -0.3738  1.1497
16552SOL     OW51046   1.345   0.718   0.119 -0.3862  0.5003  0.2684
16552SOL    HW151047   1.339   0.693   0.216  0.9816  0.8772  0.4634
16552SOL    HW251048   1.439   0.705   0.088 -1.4271 -2.5818 -1.8390
16553SOL     OW51049   4.922   8.564   5.447 -0.1097 -0.2945 -0.2119
16553SOL    HW151050   4.954   8.574   5.353  1.2311 -1.0356  0.1594
16553SOL    HW251051   4.917   8.467   5.470 -1.3098 -0.1440  0.1977
16554SOL     OW51052   5.672   9.060   7.664  0.2624 -0.4969 -0.3151
16554SOL    HW151053   5.703   9.138   7.610  1.3406 -0.2738  0.6005
16554SOL    HW251054   5.608   9.092   7.734  0.3975 -0.4911 -0.1947
16555SOL     OW51055   0.694   2.416   0.933  0.4017 -0.6532 -0.4581
16555SOL    HW151056   0.691   2.508   0.896  2.0149 -0.0285  0.8833
16555SOL    HW251057   0.657   2.351   0.866 -1.6070  1.0590 -1.0380
16556SOL     OW51058   5.947   4.106   1.806 -0.2029 -0.2467  0.4806
16556SOL    HW151059   5.932   4.135   1.711  0.3782 -0.8568  0.1994
16556SOL    HW251060   5.947   4.186   1.865 -1.4109  0.0711  0.0825
16557SOL     OW51061   0.634   3.341   7.892  0.6312 -0.3477  0.5338
16557SOL    HW151062   0.705   3.271   7.881 -0.1524 -0.6743 -2.8884
16557SOL    HW251063   0.551   3.298   7.928  1.1506 -0.5563  1.5036
16558SOL     OW51064   7.663   7.878   3.289 -0.2829 -0.0625  0.1646
16558SOL    HW151065   7.643   7.955   3.228  2.3582  0.1076 -0.5753
16558SOL    HW251066   7.658   7.793   3.237  0.4867 -0.0443  0.0482
16559SOL     OW51067   1.712   5.437   0.869  0.2258 -0.0507 -0.2507
16559SOL    HW151068   1.638   5.479   0.816  0.0267 -0.7921 -0.5766
16559SOL    HW251069   1.673   5.383   0.944  0.4554 -0.0233 -0.1111
16561SOL     OW51070   0.927   5.174   5.482  0.6318 -0.0673 -0.0308
16561SOL    HW151071   0.911   5.158   5.384 -0.1080  0.5673 -0.0126
16561SOL    HW251072   0.967   5.264   5.496  0.2862  0.0358  0.2986
16565SOL     OW51073   2.254   5.385   5.983 -0.0992 -0.3065 -0.0052
16565SOL    HW151074   2.331   5.327   6.010 -0.0754 -0.3266 -0.1152
16565SOL    HW251075   2.208   5.419   6.065  1.4613  1.6475  0.1026
16566SOL     OW51076   0.953   7.848   7.885  0.5975 -0.5009 -0.0027
16566SOL    HW151077   1.047   7.880   7.870  0.3476 -0.8825 -2.5462
16566SOL    HW251078   0.896   7.924   7.914  1.4203 -0.0100  0.3439
16567SOL     OW51079   2.691   8.856   0.671 -0.1582  0.3638  0.1520
16567SOL    HW151080   2.707   8.933   0.732 -1.1906  1.0771 -0.4510
16567SOL    HW251081   2.778   8.819   0.639  0.3384  1.4828  0.1941
16568SOL     OW51082   9.675   1.036   0.851  0.1054 -0.0698 -0.0976
16568SOL    HW151083   9.655   0.982   0.770 -0.3676 -0.6252  0.3840
16568SOL    HW251084   9.687   1.132   0.825 -3.0533  0.2962 -0.4475
16569SOL     OW51085   0.235   8.322   0.125  0.3182  0.0545  0.0863
16569SOL    HW151086   0.181   8.288   0.048  0.0612  1.4107 -0.3569
16569SOL    HW251087   0.175   8.372   0.188  1.0188  1.5002 -0.3620
16570SOL     OW51088   1.957   3.291   7.454 -0.7284 -0.2943  0.3096
16570SOL    HW151089   1.994   3.341   7.532  0.2203  0.3842 -0.5740
16570SOL    HW251090   2.018   3.216   7.430 -0.2239  0.4635 -0.7770
16573SOL     OW51091   1.721   8.830   4.342 -0.4307 -0.2978  0.3218
16573SOL    HW151092   1.667   8.849   4.260 -0.4032  0.5500  0.4950
16573SOL    HW251093   1.816   8.856   4.327 -0.0568 -1.7678  0.0270
16574SOL     OW51094   9.240   0.029   0.652  0.4011  0.4116 -0.6264
16574SOL    HW151095   9.166   0.096   0.664 -1.1873 -1.5411  0.8358
16574SOL    HW251096   9.290   0.019   0.737 -0.8062 -1.8749 -0.1522
16578SOL     OW51097   7.459   9.083   3.151 -0.1886  0.3895 -0.2900
16578SOL    HW151098   7.441   8.986   3.134 -0.2089  0.2234  0.6308
16578SOL    HW251099   7.553   9.094   3.186  0.1973  0.8246 -1.4561
16580SOL     OW51100   8.320   2.118   6.262  0.0756  0.1533  0.2927
16580SOL    HW151101   8.340   2.151   6.355 -0.6328 -0.7573  0.7840
16580SOL    HW251102   8.250   2.047   6.267  0.6693 -0.5268 -0.8695
16581SOL     OW51103   3.608   3.409   2.552  0.4043  0.0784 -0.4863
16581SOL    HW151104   3.677   3.399   2.481  1.4000 -0.2010  0.5055
16581SOL    HW251105   3.620   3.497   2.598  2.4941 -1.5266  2.1614
16584SOL     OW51106   5.500   6.355   1.155  0.1254 -0.0195  0.0988
16584SOL    HW151107   5.457   6.290   1.093  1.9826  1.7063 -3.1085
16584SOL    HW251108   5.598   6.334   1.163  0.7489  2.2924 -0.9789
16585SOL     OW51109   7.977   1.658   4.348 -0.1362  0.3479  0.2387
16585SOL    HW151110   7.996   1.571   4.392  0.7370  1.2157  1.6198
16585SOL    HW251111   7.927   1.717   4.412 -1.1600  0.6928 -0.8532
16587SOL     OW51112   0.775   7.934   0.048 -0.3562 -0.3060  0.1381
16587SOL    HW151113   0.837   7.877   0.102  0.8186 -0.4467 -1.3309
16587SOL    HW251114   0.773   8.026   0.086  2.0677  0.1623 -0.7545
16588SOL     OW51115   3.906   5.523   1.112  0.0079 -0.2482 -0.1225
16588SOL    HW151116   3.926   5.620   1.097 -0.5024 -0.2141 -0.5629
16588SOL    HW251117   3.989   5.478   1.145  0.1768  0.3913  0.3641
16590SOL     OW51118   5.233   0.231   6.296 -0.0752  0.1679  0.0021
16590SOL    HW151119   5.188   0.283   6.224 -0.4202 -0.5435 -0.3031
16590SOL    HW251120   5.212   0.271   6.385 -1.9725 -0.6268 -0.0751
16592SOL     OW51121   5.124   7.081   1.050 -0.0011  0.4725 -0.6295
16592SOL    HW151122   5.178   7.011   1.098 -0.6443 -0.5095 -1.3441
16592SOL    HW251123   5.112   7.055   0.955  0.5295  2.0069 -1.1385
16593SOL     OW51124   9.161   9.190   3.067  0.0681 -0.2546  0.6384
16593SOL    HW151125   9.086   9.151   3.120 -0.6999 -0.5299 -0.6430
16593SOL    HW251126   9.238   9.127   3.067 -0.4304 -0.8684  0.2761
16594SOL     OW51127   2.408   0.788   3.815 -0.2092  0.5627  0.3449
16594SOL    HW151128   2.441   0.856   3.880 -1.5080  0.8711  0.6970
16594SOL    HW251129   2.350   0.832   3.747 -0.2677 -0.0420 -0.0041
16595SOL     OW51130   0.892   7.422   2.380  0.0015  0.5230  0.6729
16595SOL    HW151131   0.966   7.439   2.316 -1.2631  0.4927 -0.8385
16595SOL    HW251132   0.848   7.509   2.404 -0.8146  0.3438 -0.1157
16597SOL     OW51133   0.802   4.019   5.581  0.0148  0.3010  0.2106
16597SOL    HW151134   0.782   3.931   5.538  0.6208  1.5669 -2.7338
16597SOL    HW251135   0.849   4.003   5.668 -1.5048 -2.3073  0.6036
16598SOL     OW51136   2.451   5.613   2.198 -0.3338  0.1894 -0.1910
16598SOL    HW151137   2.383   5.628   2.126 -0.5638 -0.6308 -0.1508
16598SOL    HW251138   2.453   5.516   2.223  1.2015  0.1214 -0.5288
16599SOL     OW51139   0.096   4.537   4.661 -0.2803 -0.0311 -0.0833
16599SOL    HW151140  -0.003   4.549   4.656 -0.3355 -0.7824 -0.9268
16599SOL    HW251141   0.133   4.533   4.568  0.4682 -0.3566  0.2294
16600SOL     OW51142   9.226   6.857   4.773 -0.0733  0.3263  0.0865
16600SOL    HW151143   9.199   6.937   4.827 -2.2651 -0.8267  0.7629
16600SOL    HW251144   9.189   6.865   4.681  1.2257  0.9264 -0.3908
16601SOL     OW51145   4.314   1.143   1.511  0.4250 -0.3746 -0.1695
16601SOL    HW151146   4.239   1.157   1.447  1.6469 -0.2727 -1.6166
16601SOL    HW251147   4.279   1.141   1.604 -1.0241  2.6842 -0.5950
16602SOL     OW51148   6.591   3.116   1.332 -0.0314  0.9519 -0.6236
16602SOL    HW151149   6.536   3.199   1.339 -0.4701  0.6423 -0.3646
16602SOL    HW251150   6.569   3.069   1.246  0.5062  1.3077 -0.9587
16603SOL     OW51151   9.541   6.473   2.635  0.2731 -0.2143  0.3375
16603SOL    HW151152   9.491   6.543   2.686 -1.0363 -1.6124  0.9904
16603SOL    HW251153   9.596   6.517   2.564 -1.9218  1.3556 -0.4392
16605SOL     OW51154   0.063   6.567   4.380 -0.2314  0.2367 -0.7793
16605SOL    HW151155  -0.005   6.525   4.320  0.9252 -2.1552 -0.4889
16605SOL    HW251156   0.062   6.521   4.469  2.2677 -0.3894 -1.0391
16607SOL     OW51157   6.697   1.108   4.294  0.2640  0.3119 -0.2317
16607SOL    HW151158   6.666   1.202   4.279  0.9942  0.4027 -1.1847
16607SOL    HW251159   6.647   1.069   4.371  0.9681  1.9639  1.0914
16610SOL     OW51160   8.705   7.066   6.619 -0.4745  1.2940 -0.1387
16610SOL    HW151161   8.804   7.061   6.635 -0.6424  0.9400  0.7775
16610SOL    HW251162   8.656   7.064   6.706 -1.2410  2.7860 -0.5127
16611SOL     OW51163   3.408   9.838   0.435 -0.3871 -0.1782  0.1806
16611SOL    HW151164   3.351   9.854   0.355 -1.2368  2.9878  1.3307
16611SOL    HW251165   3.490   9.894   0.430 -0.1471 -0.4111  1.2222
16612SOL     OW51166   4.707   6.691   2.051 -0.1407  0.4988 -0.0230
16612SOL    HW151167   4.679   6.615   2.109 -0.2656 -0.4615 -1.3141
16612SOL    HW251168   4.781   6.741   2.096 -0.6612  0.1638  1.2392
16613SOL     OW51169   1.301   8.832   0.216  0.1542  0.4687 -0.4065
16613SOL    HW151170   1.350   8.767   0.273  0.4896  1.6686  0.6980
16613SOL    HW251171   1.253   8.898   0.274  4.0051  4.3900 -1.4055
16614SOL     OW51172   2.639   3.613   4.278  0.8894 -0.1164  0.3017
16614SOL    HW151173   2.621   3.591   4.374  3.0553  1.0532  1.0061
16614SOL    HW251174   2.733   3.587   4.255  0.1911 -1.0000 -1.7153
16615SOL     OW51175   7.286   3.131   1.988  0.5573 -0.2370  0.7594
16615SOL    HW151176   7.275   3.049   2.044 -0.5331 -0.0462  0.8386
16615SOL    HW251177   7.253   3.211   2.039 -3.4122 -0.4792 -1.2859
16616SOL     OW51178   1.412   1.850   4.525 -0.4812  0.1273  0.2768
16616SOL    HW151179   1.317   1.878   4.510 -0.5734 -0.8702 -1.1300
16616SOL    HW251180   1.450   1.901   4.602 -1.7973  1.3874  0.1258
16617SOL     OW51181   0.236   8.839   7.942  0.1329 -0.5314 -0.4126
16617SOL    HW151182   0.178   8.861   7.863  0.1525  1.3133  0.0708
16617SOL    HW251183   0.332   8.837   7.914  0.3854  2.6910  0.0387
16618SOL     OW51184   6.548   9.667   4.163 -0.7169 -0.0832 -0.6998
16618SOL    HW151185   6.632   9.718   4.180 -0.6381  0.0124 -1.3531
16618SOL    HW251186   6.472   9.712   4.209 -0.3500 -0.3868  0.2185
16619SOL     OW51187   8.644   0.540   5.135  0.2668 -0.3148  0.3282
16619SOL    HW151188   8.636   0.559   5.038  0.2532  0.0311  0.3945
16619SOL    HW251189   8.728   0.487   5.152 -0.0364 -0.8780  0.0629
16620SOL     OW51190   4.521   9.180   6.703 -0.2097 -0.5111 -0.3501
16620SOL    HW151191   4.507   9.163   6.605  0.6323 -1.2527 -0.3529
16620SOL    HW251192   4.604   9.234   6.716 -0.1745 -0.6423 -0.0298
16621SOL     OW51193   2.965   3.298   1.958 -0.5607 -0.0500  0.8937
16621SOL    HW151194   2.893   3.310   2.026 -0.2530 -0.8270  1.3660
16621SOL    HW251195   3.037   3.365   1.973 -1.9595  1.8613 -0.6378
16622SOL     OW51196   4.365   7.347   1.771 -0.0141 -0.6836  0.1030
16622SOL    HW151197   4.348   7.445   1.767  0.5939 -0.5541  0.6012
16622SOL    HW251198   4.440   7.324   1.708  0.1930 -0.7452  0.3692
16623SOL     OW51199   4.297   8.575   7.849  0.0765  0.1990  0.4915
16623SOL    HW151200   4.314   8.477   7.861 -1.0312  0.0219  0.6007
16623SOL    HW251201   4.272   8.593   7.754  0.3122  0.3890  0.4638
16624SOL     OW51202   1.705   9.588   0.772 -0.5087  0.4194 -0.3341
16624SOL    HW151203   1.754   9.532   0.839 -1.3502 -0.4246 -0.4140
16624SOL    HW251204   1.666   9.529   0.702 -0.6617  1.1922 -0.9003
16625SOL     OW51205   2.685   0.986   3.408  0.0601  0.1406  0.0087
16625SOL    HW151206   2.630   1.013   3.488 -0.1532 -2.2099  0.6968
16625SOL    HW251207   2.764   0.934   3.438  0.3095 -0.2444 -1.2960
16626SOL     OW51208   9.642   0.728   5.820 -0.5647 -0.8040 -0.2208
16626SOL    HW151209   9.711   0.708   5.890 -1.4981 -1.9795  0.3887
16626SOL    HW251210   9.615   0.644   5.775 -2.9461 -0.6576  0.8405
16628SOL     OW51211   8.667   8.277   6.925 -0.1875  0.1191 -0.0112
16628SOL    HW151212   8.592   8.322   6.877 -1.4999 -1.0026  0.9603
16628SOL    HW251213   8.693   8.194   6.876 -1.0748 -0.6647  0.8213
16629SOL     OW51214   3.095   3.907   0.108 -0.2719  0.0302 -0.5598
16629SOL    HW151215   3.049   3.878   0.192  0.4254 -1.2192 -0.5950
16629SOL    HW251216   3.028   3.947   0.046 -0.5729  2.2117  1.1181
16630SOL     OW51217   3.680   9.832   6.194  0.3003  0.0248 -0.5560
16630SOL    HW151218   3.745   9.899   6.230  1.0707  0.4608 -2.6944
16630SOL    HW251219   3.729   9.749   6.166 -0.2176 -0.0556 -1.2241
16631SOL     OW51220   1.575   2.608   3.415 -0.3831  0.0663  0.0801
16631SOL    HW151221   1.513   2.532   3.395 -0.2636 -0.1165  0.4107
16631SOL    HW251222   1.521   2.692   3.428 -0.5693 -0.1169  0.4942
16632SOL     OW51223   5.110   3.142   0.580  0.1100  0.5669 -0.5316
16632SOL    HW151224   5.160   3.055   0.575 -0.1637  0.3548  0.2547
16632SOL    HW251225   5.077   3.167   0.489 -0.6444 -0.6440 -0.6040
16634SOL     OW51226   8.425   1.481   6.752  0.5694  0.3468  0.2905
16634SOL    HW151227   8.504   1.420   6.758  0.3248  0.1308  1.3772
16634SOL    HW251228   8.421   1.538   6.834 -0.5191  0.2168  0.3327
16638SOL     OW51229   2.333   0.315   4.123 -0.4862 -0.0433 -0.0541
16638SOL    HW151230   2.242   0.289   4.156 -0.8521  0.1177 -0.9322
16638SOL    HW251231   2.327   0.400   4.071 -0.1046 -0.9008 -1.5279
16639SOL     OW51232   5.131   0.315   7.393  0.0997 -0.3206 -0.4882
16639SOL    HW151233   5.123   0.408   7.358 -2.7263 -0.6956 -0.9684
16639SOL    HW251234   5.145   0.252   7.317 -0.7520 -0.5862 -0.4202
16640SOL     OW51235   7.982   6.021   4.387 -0.2435  0.3565  0.2634
16640SOL    HW151236   8.036   5.998   4.468  1.4072  0.8330 -0.6581
16640SOL    HW251237   8.006   6.113   4.357 -0.0340 -0.2265 -1.3925
16641SOL     OW51238   4.359   4.228   0.140 -0.0173  0.4446 -0.0206
16641SOL    HW151239   4.271   4.206   0.181  0.4975  0.6066  1.2094
16641SOL    HW251240   4.384   4.158   0.074 -0.5181 -0.2354  0.5011
16642SOL     OW51241   3.614   0.911   0.155 -0.1554  0.4722  0.2137
16642SOL    HW151242   3.626   0.869   0.245 -0.9570  0.3146  0.2562
16642SOL    HW251243   3.545   0.860   0.104  2.0852 -0.9566 -1.4680
16644SOL     OW51244   6.276   1.607   1.044  0.0507  0.2355 -1.0556
16644SOL    HW151245   6.251   1.551   1.123 -0.8940  0.0291 -1.4906
16644SOL    HW251246   6.359   1.571   1.002 -1.5500 -1.9586 -2.4180
16645SOL     OW51247   1.256   7.284   7.333  0.2546  0.0063 -0.0417
16645SOL    HW151248   1.178   7.345   7.321  0.2360  0.5177  2.4425
16645SOL    HW251249   1.340   7.334   7.313  0.1289  0.3122  0.1911
16646SOL     OW51250   8.164   6.641   7.203 -0.1386  0.2040  0.4309
16646SOL    HW151251   8.214   6.698   7.138  0.8428 -0.4218  0.6359
16646SOL    HW251252   8.216   6.558   7.222 -1.2731 -0.4853  0.6063
16647SOL     OW51253   7.599   3.903   4.287 -0.2165 -0.6749 -0.2377
16647SOL    HW151254   7.634   3.956   4.365 -1.7603 -1.8720  1.3103
16647SOL    HW251255   7.651   3.817   4.280 -2.4356 -2.2334  1.7653
16649SOL     OW51256   8.016   5.385   1.672 -0.1053 -0.7711 -0.6939
16649SOL    HW151257   8.087   5.410   1.606 -0.4883  0.9258 -0.5006
16649SOL    HW251258   7.987   5.291   1.657  1.9036 -1.3583 -1.0258
16650SOL     OW51259   0.592   1.915   2.333 -0.3469  1.1184 -0.0505
16650SOL    HW151260   0.673   1.870   2.371 -2.1843 -1.2724  1.1496
16650SOL    HW251261   0.617   1.963   2.249  2.0916 -0.5267 -0.3194
16651SOL     OW51262   0.025   1.879   0.186  0.2459  0.0780  0.0351
16651SOL    HW151263  -0.010   1.938   0.113 -1.7436 -1.2200 -0.0761
16651SOL    HW251264   0.008   1.923   0.275 -1.6341 -0.5068 -0.0193
16652SOL     OW51265   8.338   9.469   1.742 -0.3617 -0.2031  0.4284
16652SOL    HW151266   8.299   9.450   1.832  3.6535  1.4381  2.6590
16652SOL    HW251267   8.337   9.386   1.686 -0.9926 -1.8045  2.7797
16653SOL     OW51268   2.195   8.965   3.690 -0.9582  0.7094 -0.2489
16653SOL    HW151269   2.179   9.001   3.782 -0.2381 -0.6563  0.4343
16653SOL    HW251270   2.291   8.937   3.682 -1.5146 -1.0902 -0.7439
16654SOL     OW51271   0.419   3.714   0.461 -0.0928  0.3299  0.1820
16654SOL    HW151272   0.380   3.692   0.550  1.6902 -0.9915  0.6582
16654SOL    HW251273   0.438   3.630   0.410 -0.2837  1.0399 -1.0845
16655SOL     OW51274   9.785   4.920   2.409  0.4879 -0.3928  0.0746
16655SOL    HW151275   9.884   4.911   2.405  0.4160 -0.4056 -2.1714
16655SOL    HW251276   9.743   4.859   2.342 -1.0347 -0.2397  0.8729
16656SOL     OW51277   2.109   6.188   0.795 -0.0030  0.0220  0.1670
16656SOL    HW151278   2.067   6.098   0.805 -2.2295  0.9385 -0.5802
16656SOL    HW251279   2.039   6.258   0.805  1.4986  1.6287 -0.4376
16657SOL     OW51280   4.418   8.204   2.754 -0.2735 -0.1036 -0.3673
16657SOL    HW151281   4.391   8.300   2.762  0.0662 -0.0302 -0.1223
16657SOL    HW251282   4.409   8.174   2.659  0.6789  0.4819 -0.6459
16659SOL     OW51283   6.357   9.874   5.133  0.4653 -0.1401  0.0491
16659SOL    HW151284   6.390   9.783   5.111  0.4870 -0.3601  0.9609
16659SOL    HW251285   6.364   9.889   5.232 -0.1383  0.6013 -0.0131
16660SOL     OW51286   2.662   8.263   2.829  0.3628 -0.7243  0.5879
16660SOL    HW151287   2.642   8.178   2.779 -0.5430 -0.5165  0.5874
16660SOL    HW251288   2.576   8.312   2.845  1.0839  1.2039 -1.1997
16661SOL     OW51289   4.088   9.558   3.903  0.4682  0.2716  0.3218
16661SOL    HW151290   4.009   9.529   3.957 -0.2320 -0.0946 -0.8658
16661SOL    HW251291   4.151   9.481   3.892  0.5291  0.2985  0.4945
16662SOL     OW51292   7.879   6.233   2.026  0.3701  0.8711 -0.5968
16662SOL    HW151293   7.811   6.241   1.954  0.6130  2.4613 -0.6649
16662SOL    HW251294   7.969   6.217   1.986  0.0765 -1.1633 -0.5095
16663SOL     OW51295   4.814   1.366   4.488  0.0606  0.6704  0.0244
16663SOL    HW151296   4.806   1.278   4.535  0.5217  1.0456  0.8293
16663SOL    HW251297   4.814   1.352   4.389  1.5500 -0.3638  0.1572
16664SOL     OW51298   6.967   7.889   5.986 -0.0106  0.4410  0.1948
16664SOL    HW151299   6.983   7.877   6.084  2.5999  0.7812 -0.1381
16664SOL    HW251300   7.038   7.840   5.934 -1.5891 -0.0742 -1.5376
16665SOL     OW51301   9.488   9.745   3.667 -0.1893  0.2212  0.3416
16665SOL    HW151302   9.419   9.674   3.652 -0.0375 -0.0878  1.0857
16665SOL    HW251303   9.493   9.804   3.586 -0.8982 -0.1153  0.0444
16666SOL     OW51304   4.557   9.843   6.031  0.4860 -0.4894  0.5491
16666SOL    HW151305   4.539   9.803   6.121  0.0902  1.7546  1.5061
16666SOL    HW251306   4.588   9.938   6.043 -4.5204  1.5991 -1.8756
16667SOL     OW51307   8.456   9.083   2.227 -0.2508 -0.0624 -0.4799
16667SOL    HW151308   8.487   9.176   2.204  1.8173 -0.6912 -0.3463
16667SOL    HW251309   8.487   9.019   2.157 -0.6173 -0.8489  0.0670
16668SOL     OW51310   2.218   8.943   2.993  0.2756  0.1017  0.4274
16668SOL    HW151311   2.203   8.844   2.989 -1.7376  0.4339 -1.0957
16668SOL    HW251312   2.131   8.989   3.011  0.5814  1.7441 -2.0237
16669SOL     OW51313   3.806   9.207   3.714 -0.1542  0.1683 -0.4120
16669SOL    HW151314   3.728   9.206   3.776 -0.1738  0.9169 -0.4176
16669SOL    HW251315   3.783   9.261   3.632  0.3679  0.4011 -0.4057
16671SOL     OW51316   2.526   3.852   4.250  0.1579  0.1818  0.4032
16671SOL    HW151317   2.591   3.776   4.249  0.0634  0.1023  0.3252
16671SOL    HW251318   2.447   3.826   4.305  0.5471  0.5721  1.1658
16672SOL     OW51319   1.987   4.482   2.190  0.0853 -0.0620 -0.0610
16672SOL    HW151320   1.938   4.530   2.118  1.2568  0.4535 -0.5223
16672SOL    HW251321   2.082   4.514   2.194  0.2272 -0.5901  1.2347
16674SOL     OW51322   8.553   6.896   0.805  0.5292  0.1870  0.1917
16674SOL    HW151323   8.589   6.817   0.853  0.0586  0.7028  1.4167
16674SOL    HW251324   8.457   6.881   0.782  0.3043  0.5909  0.8563
16675SOL     OW51325   3.063   9.687   6.331  0.0387  0.2576 -0.0837
16675SOL    HW151326   3.150   9.732   6.348  0.9437 -1.7404  0.8210
16675SOL    HW251327   3.075   9.615   6.263 -1.1585  0.6984 -0.7808
16676SOL     OW51328   2.349   5.648   0.632 -0.1368 -0.4131  0.1729
16676SOL    HW151329   2.284   5.580   0.668  0.2874 -0.4897  0.8022
16676SOL    HW251330   2.298   5.728   0.600 -0.7061 -1.3570 -1.3365
16677SOL     OW51331   9.910   3.360   7.669  0.7924  0.5381 -0.1388
16677SOL    HW151332  10.006   3.371   7.642  0.9177 -0.5516 -0.1662
16677SOL    HW251333   9.858   3.323   7.592  0.1938  1.7679 -0.3485
16678SOL     OW51334   1.800   3.662   3.860 -0.5554  0.2066  0.3456
16678SOL    HW151335   1.779   3.595   3.932 -3.3029 -0.3388 -0.9134
16678SOL    HW251336   1.801   3.616   3.771  3.6802  0.6944  0.0257
16679SOL     OW51337   0.428   4.088   1.602 -0.1072  0.5053  0.1939
16679SOL    HW151338   0.518   4.053   1.627 -0.4419  0.0901  0.8431
16679SOL    HW251339   0.437   4.180   1.565  0.6716  0.1579 -0.5186
16680SOL     OW51340   8.411   7.332   7.293  0.2480  0.7349  0.6228
16680SOL    HW151341   8.449   7.394   7.361 -0.0105 -0.5163  1.9518
16680SOL    HW251342   8.319   7.304   7.322 -0.2352  0.9169 -0.7224
16681SOL     OW51343   0.993   7.411   5.092 -0.2950  0.3246  0.6530
16681SOL    HW151344   1.016   7.467   5.172 -1.4276 -0.4553  1.5378
16681SOL    HW251345   0.978   7.317   5.120  1.0737 -0.3303 -0.7632
16682SOL     OW51346   7.811   6.369   2.496  0.0651  0.0651  0.4087
16682SOL    HW151347   7.766   6.408   2.576 -1.0062  0.5879 -0.4335
16682SOL    HW251348   7.755   6.385   2.415  1.4678  0.1461 -0.5636
16684SOL     OW51349   4.725   3.295   1.987 -0.8912 -0.0134  0.2081
16684SOL    HW151350   4.824   3.285   2.002 -0.3266 -1.9862 -3.9946
16684SOL    HW251351   4.678   3.214   2.022 -1.0578  0.9235  2.2052
16685SOL     OW51352   9.738   6.538   7.908 -0.7242  0.0562  0.0369
16685SOL    HW151353   9.649   6.495   7.919 -1.0730  0.6657 -0.3882
16685SOL    HW251354   9.810   6.474   7.934 -1.2952 -0.3591  0.5955
16686SOL     OW51355   2.384   6.616   4.933 -0.1930  0.1093 -0.3663
16686SOL    HW151356   2.473   6.642   4.971  0.0743  0.1241 -0.9961
16686SOL    HW251357   2.318   6.689   4.949  0.6363  1.3212 -2.4095
16687SOL     OW51358   8.536   9.440   4.715  0.2268  0.1618 -0.0920
16687SOL    HW151359   8.437   9.442   4.698  0.3694  1.0079 -0.8665
16687SOL    HW251360   8.553   9.404   4.806 -0.8781  1.3815  0.6289
16688SOL     OW51361   3.529   8.448   2.314  0.0787 -1.1057  0.2477
16688SOL    HW151362   3.568   8.358   2.333  1.0867 -1.0869 -1.7162
16688SOL    HW251363   3.600   8.517   2.320 -0.3261 -0.6609 -0.0968
16689SOL     OW51364   5.800   2.398   1.570  0.0747 -0.0441  0.0319
16689SOL    HW151365   5.842   2.482   1.605  1.8685 -0.5020 -0.9103
16689SOL    HW251366   5.803   2.400   1.470 -2.5253  0.0547 -0.0710
16690SOL     OW51367   8.509   7.928   6.390  0.4722 -0.5429  0.2969
16690SOL    HW151368   8.520   7.880   6.477  1.7919 -0.3618  0.2313
16690SOL    HW251369   8.574   7.892   6.324 -0.5233 -0.6701 -0.6219
16691SOL     OW51370   9.807   2.869   2.398 -0.0644  0.0229 -0.5578
16691SOL    HW151371   9.907   2.877   2.394 -0.1466  2.4868  1.3602
16691SOL    HW251372   9.782   2.786   2.448  1.0511  0.5478  0.8958
16693SOL     OW51373   2.446   2.732   2.566 -0.0874  0.6199  0.2395
16693SOL    HW151374   2.367   2.793   2.563  0.2849  1.0805 -0.5842
16693SOL    HW251375   2.529   2.784   2.543  0.2414 -0.1753 -0.4263
16695SOL     OW51376   1.250   6.288   0.421  0.0494 -0.1555  0.2430
16695SOL    HW151377   1.157   6.286   0.456 -0.3451 -0.8580 -0.8172
16695SOL    HW251378   1.267   6.206   0.366  1.2873 -0.0297  0.4074
16697SOL     OW51379   7.036   6.628   6.823  0.2822  1.0496  0.3874
16697SOL    HW151380   7.122   6.605   6.870 -0.9914  0.4517  2.4742
16697SOL    HW251381   6.989   6.543   6.797  0.2907  1.3767 -0.7298
16698SOL     OW51382   5.983   9.594   6.657  0.0989  0.5252  0.3540
16698SOL    HW151383   5.946   9.505   6.685 -1.4939  0.8240 -0.7323
16698SOL    HW251384   6.076   9.582   6.622 -0.6737 -0.9925 -1.2793
16699SOL     OW51385   3.552   9.021   6.250 -0.0379  0.1512  0.0429
16699SOL    HW151386   3.483   8.948   6.248 -0.6725  0.6943  1.5606
16699SOL    HW251387   3.562   9.060   6.158 -1.5840 -0.0842 -0.2381
16700SOL     OW51388   1.361   6.977   4.217 -0.4116  0.4601 -0.0660
16700SOL    HW151389   1.358   6.890   4.265 -0.6014  0.3928 -0.1947
16700SOL    HW251390   1.274   6.991   4.169  0.6489 -0.6044 -2.3647
16703SOL     OW51391   6.600   7.718   6.227  0.6197 -0.3831 -0.0797
16703SOL    HW151392   6.642   7.658   6.295 -0.8619  1.2091  2.2722
16703SOL    HW251393   6.654   7.802   6.219 -1.3121  1.0845  1.9635
16704SOL     OW51394   9.547   3.512   5.437 -0.1425 -0.5467  0.0747
16704SOL    HW151395   9.586   3.474   5.353 -0.6080 -1.0721  0.0915
16704SOL    HW251396   9.488   3.590   5.413  0.4790 -0.0940  0.0036
16705SOL     OW51397   2.727   9.463   2.129 -0.2935  0.3870 -0.1913
16705SOL    HW151398   2.708   9.476   2.226 -2.3169 -1.5625 -0.2970
16705SOL    HW251399   2.816   9.418   2.118 -0.5186 -0.3197  0.8231
16706SOL     OW51400   9.869   1.695   4.405  0.2147  0.3513  0.3082
16706SOL    HW151401   9.920   1.651   4.331 -1.9502 -0.9319 -0.4578
16706SOL    HW251402   9.788   1.740   4.368  0.4248  1.8591  1.5919
16707SOL     OW51403   8.525   4.442   5.458 -0.7823 -0.0643 -0.1362
16707SOL    HW151404   8.473   4.361   5.429 -0.9155  0.3160 -0.9545
16707SOL    HW251405   8.579   4.418   5.539 -1.2546 -0.8182 -0.0318
16708SOL     OW51406   7.934   8.042   2.904 -0.1468  0.0698  0.2268
16708SOL    HW151407   7.998   7.973   2.869 -0.3167  0.4142 -0.7793
16708SOL    HW251408   7.973   8.086   2.984  1.8701  1.8466 -1.6714
16709SOL     OW51409   1.466   0.334   1.043  0.2823 -0.3212  0.1463
16709SOL    HW151410   1.545   0.273   1.038 -0.2864 -1.1109  0.6034
16709SOL    HW251411   1.474   0.406   0.973  1.5650 -0.1881  0.4098
16710SOL     OW51412   8.991   7.303   0.144  0.3324 -0.3645  0.3604
16710SOL    HW151413   8.961   7.219   0.098 -0.4857  0.2699 -0.2962
16710SOL    HW251414   9.060   7.281   0.212  1.9874 -1.2716 -1.5712
16711SOL     OW51415   6.448   0.212   2.207 -0.3093  0.2530  0.2975
16711SOL    HW151416   6.486   0.298   2.172 -1.5859  0.8147  0.2675
16711SOL    HW251417   6.459   0.140   2.138  0.5703  0.4306  0.2398
16714SOL     OW51418   8.706   2.232   5.457  0.2967 -0.7430 -0.1506
16714SOL    HW151419   8.760   2.252   5.538  1.5982  1.0651 -1.4275
16714SOL    HW251420   8.715   2.135   5.434  0.5136 -1.1079  1.3974
16716SOL     OW51421   2.541   0.555   2.139 -0.3702  0.6693  0.1480
16716SOL    HW151422   2.508   0.460   2.143  1.0176  0.1401 -0.6736
16716SOL    HW251423   2.640   0.556   2.149 -0.2472  1.9492 -1.0323
16717SOL     OW51424   6.208   0.451   5.132 -0.5124  0.5252  0.0475
16717SOL    HW151425   6.153   0.495   5.062  1.0640  1.9472 -0.3397
16717SOL    HW251426   6.305   0.466   5.113 -0.0522  1.5724  2.9118
16718SOL     OW51427   3.572   5.010   3.550  0.1702  0.3564  0.1592
16718SOL    HW151428   3.563   4.987   3.453  0.7199  1.0349 -0.0472
16718SOL    HW251429   3.511   4.950   3.603 -1.4300  1.1376 -0.7516
16719SOL     OW51430   8.288   3.585   1.184 -0.3295 -0.4011 -0.4735
16719SOL    HW151431   8.213   3.645   1.211 -0.3936  0.6714 -2.9311
16719SOL    HW251432   8.280   3.563   1.087  0.8748 -2.7079 -0.1019
16720SOL     OW51433   6.691   4.580   2.387  0.3965 -0.0661  0.5195
16720SOL    HW151434   6.763   4.523   2.346  0.5146  1.0584 -0.8690
16720SOL    HW251435   6.671   4.657   2.326 -1.9229 -0.3047  0.9423
16721SOL     OW51436   0.986   0.040   5.994 -0.1216  0.2184  0.4707
16721SOL    HW151437   1.073   0.078   5.961 -0.9775  1.8545  0.0970
16721SOL    HW251438   0.948  -0.021   5.925  1.2808 -1.4245  1.1010
16722SOL     OW51439   6.605   3.993   2.158 -0.1813  0.1356  0.0423
16722SOL    HW151440   6.625   4.091   2.154  1.8055 -0.2755 -0.9236
16722SOL    HW251441   6.516   3.978   2.201 -0.3957  2.3461  0.3988
16723SOL     OW51442   8.273   0.530   0.575  0.2754  0.2225 -0.4380
16723SOL    HW151443   8.366   0.498   0.595 -0.8186 -1.4175  2.3288
16723SOL    HW251444   8.225   0.461   0.520  0.1530  0.2988 -0.4253
16724SOL     OW51445   6.922   1.645   1.574  0.5177  0.5139  0.5276
16724SOL    HW151446   6.910   1.549   1.598 -2.0315  0.5151 -0.5589
16724SOL    HW251447   6.861   1.702   1.629  1.6038  1.4855  0.7738
16725SOL     OW51448   2.294   3.074   7.620 -0.1151  0.3724 -0.2929
16725SOL    HW151449   2.327   3.131   7.695 -0.6742 -0.6485  0.7293
16725SOL    HW251450   2.372   3.025   7.579  0.2231  1.1106 -0.5414
16726SOL     OW51451   7.380   0.718   5.616 -0.6277 -0.1805  0.3115
16726SOL    HW151452   7.358   0.714   5.519 -0.3528  1.0380  0.2029
16726SOL    HW251453   7.302   0.684   5.669 -1.3371  0.5473 -0.2564
16727SOL     OW51454   5.351   9.179   6.562  0.2430 -0.7891 -0.1218
16727SOL    HW151455   5.326   9.133   6.477  1.8301  0.8742 -1.5467
16727SOL    HW251456   5.442   9.149   6.591  0.6194  0.2261 -0.2161
16728SOL     OW51457   2.231   1.557   6.845 -0.0660 -0.1244 -0.4601
16728SOL    HW151458   2.301   1.579   6.777 -1.0348 -1.1101 -1.8011
16728SOL    HW251459   2.186   1.472   6.819 -1.0837 -0.0194  0.9364
16729SOL     OW51460   8.442   1.374   2.949 -0.1987  0.3362  0.0616
16729SOL    HW151461   8.344   1.385   2.932 -0.4039  0.8930  1.5490
16729SOL    HW251462   8.458   1.365   3.048  0.9968 -2.2121 -0.3114
16731SOL     OW51463   9.217   2.467   3.212 -0.1197 -0.5065  0.2004
16731SOL    HW151464   9.212   2.385   3.155 -0.4318  0.5149 -1.2750
16731SOL    HW251465   9.143   2.466   3.279 -0.8626 -0.8453 -0.6123
16732SOL     OW51466   2.382   6.222   3.269 -0.3132 -0.1058 -0.5811
16732SOL    HW151467   2.393   6.131   3.308  0.6881  0.6728  0.9988
16732SOL    HW251468   2.316   6.219   3.194 -1.9586 -1.7122  0.9042
16733SOL     OW51469   9.315   7.417   4.854 -0.1668 -0.2908  0.0334
16733SOL    HW151470   9.234   7.444   4.907 -0.8071 -1.7623 -0.1581
16733SOL    HW251471   9.336   7.489   4.787 -1.0499  0.3108  0.3809
16734SOL     OW51472   0.970   1.374   0.105  0.6534 -0.3693 -0.5835
16734SOL    HW151473   1.011   1.446   0.161  1.2480  0.3137 -1.8758
16734SOL    HW251474   1.039   1.305   0.085  1.0182  0.4676 -2.2438
16735SOL     OW51475   4.668   9.703   0.358 -0.4249 -0.0096 -0.4393
16735SOL    HW151476   4.727   9.697   0.438 -0.2530  2.4609 -0.3599
16735SOL    HW251477   4.591   9.639   0.368 -0.7989  0.7850  2.0375
16737SOL     OW51478   1.091   7.285   6.101 -0.3690  0.2448 -0.3075
16737SOL    HW151479   1.141   7.239   6.027 -0.5990  0.3243 -0.5140
16737SOL    HW251480   1.077   7.222   6.177  0.1814  0.2671 -0.1857
16738SOL     OW51481   8.193   6.911   3.722  0.2449 -0.1015 -0.1827
16738SOL    HW151482   8.212   7.007   3.745  1.9180 -0.6569  0.8938
16738SOL    HW251483   8.119   6.877   3.779 -0.3773  0.5506 -0.5890
16739SOL     OW51484   2.294   5.655   3.559 -0.1393  0.5757  0.6704
16739SOL    HW151485   2.255   5.711   3.486 -0.2181 -0.0516  0.2274
16739SOL    HW251486   2.238   5.663   3.641 -1.6470 -0.8958 -0.1729
16740SOL     OW51487   0.226   1.908   7.553  0.2378 -0.7026 -0.0689
16740SOL    HW151488   0.165   1.868   7.484  1.1526 -2.0723 -0.1074
16740SOL    HW251489   0.272   1.988   7.514 -0.4493 -0.5179 -0.5126
16741SOL     OW51490   1.745   4.785   5.941  0.3075 -0.1483 -0.4961
16741SOL    HW151491   1.697   4.857   5.991  0.6030 -1.1078  1.1913
16741SOL    HW251492   1.836   4.818   5.914  1.0814 -0.4381  1.7185
16742SOL     OW51493   7.851   8.804   3.681  0.5352 -0.3400 -0.5749
16742SOL    HW151494   7.774   8.814   3.618  0.6754  0.0241 -0.6925
16742SOL    HW251495   7.820   8.761   3.766  0.2304 -0.3117 -0.6719
16743SOL     OW51496   9.456   0.564   3.250 -0.3340 -0.2940  0.3810
16743SOL    HW151497   9.370   0.556   3.198  1.2829 -0.2436 -2.4423
16743SOL    HW251498   9.498   0.652   3.231  0.6178 -0.5392  1.3039
16744SOL     OW51499   0.801   3.587   6.558  0.6472 -0.4533 -0.0954
16744SOL    HW151500   0.897   3.609   6.539  0.1896  1.3828 -0.3148
16744SOL    HW251501   0.796   3.535   6.643  1.7252  0.5976  0.6313
16745SOL     OW51502   9.876   6.046   1.905  0.1608  0.0890 -0.0588
16745SOL    HW151503   9.928   5.969   1.942  0.9469  0.2214 -0.8760
16745SOL    HW251504   9.897   6.057   1.808  1.1626  2.2077  0.3546
16746SOL     OW51505   8.518   0.209   4.516  0.4433 -0.3518  0.1172
16746SOL    HW151506   8.577   0.131   4.500 -0.0356 -0.7837  0.4427
16746SOL    HW251507   8.572   0.285   4.553  0.6358 -1.0613  1.3324
16747SOL     OW51508   5.627   1.084   3.423 -0.0091 -0.0382 -0.3787
16747SOL    HW151509   5.542   1.051   3.382  0.0264  0.3358 -0.7566
16747SOL    HW251510   5.657   1.020   3.494 -0.3693 -0.3978 -0.5491
16748SOL     OW51511   3.158   4.905   5.477 -0.0211 -0.2933 -0.4678
16748SOL    HW151512   3.243   4.956   5.492 -0.3918  0.1369  0.2404
16748SOL    HW251513   3.098   4.958   5.417  0.4791 -0.8991 -1.4998
16749SOL     OW51514   0.325   0.432   1.736 -0.4387  0.1316 -0.0164
16749SOL    HW151515   0.312   0.424   1.638 -2.6966 -0.2122  0.2831
16749SOL    HW251516   0.354   0.525   1.759 -1.3918  0.6442 -0.8651
16750SOL     OW51517   9.002   5.448   1.306  0.8060  1.0455  0.1628
16750SOL    HW151518   8.985   5.488   1.396  1.4915 -1.5498  1.5223
16750SOL    HW251519   8.919   5.455   1.250 -0.7279 -0.1857  2.1777
16751SOL     OW51520   1.996   4.696   0.706  0.0794 -0.3348  0.2211
16751SOL    HW151521   2.077   4.657   0.749  1.1939  0.1986 -1.3486
16751SOL    HW251522   1.918   4.635   0.722  1.7464 -3.2365 -2.0588
16752SOL     OW51523   1.930   4.930   2.877  0.3580  0.3679  0.0627
16752SOL    HW151524   1.897   4.846   2.834  0.4907 -0.8786  2.3240
16752SOL    HW251525   1.855   4.973   2.927  0.4313  1.3185 -0.6342
16753SOL     OW51526   0.813   8.286   6.165  0.2295 -0.6426  0.1610
16753SOL    HW151527   0.860   8.318   6.084 -0.7934 -3.3412 -1.5717
16753SOL    HW251528   0.802   8.361   6.230  0.4713  1.7169 -2.4608
16754SOL     OW51529   3.370   6.384   7.855 -0.3762 -0.5084 -0.5127
16754SOL    HW151530   3.332   6.307   7.907 -0.1148 -0.6612 -0.5482
16754SOL    HW251531   3.464   6.401   7.885 -0.7414  0.3925  0.1468
16755SOL     OW51532   6.476   8.855   7.397 -0.4710  0.2333  0.1439
16755SOL    HW151533   6.495   8.951   7.416 -0.2665 -0.1823  2.2376
16755SOL    HW251534   6.388   8.830   7.437  0.1506 -0.7976  0.9180
16756SOL     OW51535   3.093   1.347   6.677  0.2810 -0.1435 -0.1916
16756SOL    HW151536   3.130   1.271   6.624 -0.9568 -0.7928 -0.1516
16756SOL    HW251537   3.056   1.312   6.764 -0.1397  0.5213 -0.1002
16757SOL     OW51538   1.168   0.866   3.580  0.6080 -0.1959 -0.1728
16757SOL    HW151539   1.238   0.871   3.651 -0.1878  1.2900  0.5411
16757SOL    HW251540   1.094   0.807   3.612 -0.6881  2.0353  1.1430
16758SOL     OW51541   9.290   9.568   4.481  0.1894 -0.1011  0.1310
16758SOL    HW151542   9.278   9.470   4.500  0.8773 -0.2328 -0.0979
16758SOL    HW251543   9.329   9.579   4.390  0.3710  0.3846  0.2700
16759SOL     OW51544   2.082   1.471   2.861  0.1362 -0.3698  0.1596
16759SOL    HW151545   2.060   1.546   2.923  0.4314 -1.0161  1.0593
16759SOL    HW251546   2.090   1.386   2.913  1.1976 -0.7816 -0.6479
16760SOL     OW51547   9.002   2.078   4.100 -0.8165  0.3248 -0.2255
16760SOL    HW151548   9.037   2.171   4.106  0.4208 -0.1590  0.1845
16760SOL    HW251549   9.070   2.014   4.136 -2.0196 -0.6538  0.3647
16762SOL     OW51550   1.564   8.407   1.488 -0.0952 -0.2323 -0.6672
16762SOL    HW151551   1.659   8.434   1.471  0.0111 -0.3431 -0.2529
16762SOL    HW251552   1.551   8.390   1.585 -0.1655 -1.6595 -0.9115
16764SOL     OW51553   7.998   9.187   1.482 -0.4945  0.0025 -0.6076
16764SOL    HW151554   8.076   9.178   1.420  1.7727  0.5585  2.0605
16764SOL    HW251555   7.965   9.096   1.507 -0.6035 -0.2375 -1.5964
16766SOL     OW51556   4.959   7.768   1.228  0.2393  0.4005  0.0649
16766SOL    HW151557   4.933   7.673   1.242  0.1920  0.2922 -0.7554
16766SOL    HW251558   4.986   7.782   1.132  0.5603  1.1335  0.2574
16767SOL     OW51559   7.033   1.203   2.626  0.2856  0.6074 -0.6017
16767SOL    HW151560   7.093   1.209   2.706 -0.4172 -0.0067 -0.0209
16767SOL    HW251561   7.078   1.148   2.555  0.1473 -0.3927  0.0749
16768SOL     OW51562   8.720   5.104   6.441 -0.1220 -0.6027 -0.1968
16768SOL    HW151563   8.701   5.042   6.366 -0.8562  1.4613 -1.7776
16768SOL    HW251564   8.643   5.102   6.506 -0.0627 -1.4366 -0.1443
16769SOL     OW51565   8.530   5.664   3.921 -0.3126 -0.8158 -0.2889
16769SOL    HW151566   8.461   5.645   3.851  0.4141  0.6232 -1.4399
16769SOL    HW251567   8.500   5.741   3.977  0.9236  0.7227 -1.6730
16771SOL     OW51568   7.787   8.307   3.174  0.4101 -0.3235 -0.1508
16771SOL    HW151569   7.834   8.250   3.106  0.2855 -0.2937 -0.2634
16771SOL    HW251570   7.728   8.373   3.127 -1.0043 -1.4405 -0.0000
16772SOL     OW51571   3.551   8.907   2.041  0.0219  0.0876  0.1472
16772SOL    HW151572   3.561   8.978   1.971 -1.8839 -1.0121 -1.3001
16772SOL    HW251573   3.630   8.846   2.038 -0.3194 -0.3077 -1.4946
16773SOL     OW51574   0.524   1.060   6.359  0.1881  0.9542  0.1441
16773SOL    HW151575   0.518   0.987   6.427  0.1264  1.0266  0.2166
16773SOL    HW251576   0.493   1.026   6.270 -1.7000  1.4254  0.5908
16774SOL     OW51577   8.078   5.515   1.061  0.8376  0.0296 -0.0790
16774SOL    HW151578   8.044   5.598   1.017  1.2954  0.5622  0.5641
16774SOL    HW251579   8.023   5.495   1.143 -0.1936 -1.1154 -1.0242
16776SOL     OW51580   1.003   7.128   5.235 -0.8563 -0.2367 -0.5781
16776SOL    HW151581   0.982   7.157   5.328  0.2944 -0.3101 -0.2963
16776SOL    HW251582   0.937   7.058   5.206 -0.7813 -0.7281  0.4290
16777SOL     OW51583   9.980   7.234   1.703 -0.0501  0.2520 -0.1528
16777SOL    HW151584  10.037   7.190   1.633 -0.2522 -0.8350  0.3529
16777SOL    HW251585   9.889   7.252   1.666 -0.9086 -2.4414  0.4946
16779SOL     OW51586   7.954   4.950   5.931  0.1861 -0.2653 -0.5300
16779SOL    HW151587   7.991   4.940   6.023  0.6227 -0.3047 -0.7097
16779SOL    HW251588   8.005   4.892   5.868  0.2662  0.2142 -0.9037
16781SOL     OW51589   6.972   8.568   2.657 -0.2794 -0.1577 -0.0281
16781SOL    HW151590   7.011   8.552   2.748  0.9230 -1.7356 -0.7888
16781SOL    HW251591   7.007   8.499   2.594 -2.6140 -0.2544 -1.2503
16782SOL     OW51592   9.648   2.263   4.868  0.2114 -0.4011  0.2428
16782SOL    HW151593   9.644   2.318   4.785 -2.1620 -2.0354 -0.7724
16782SOL    HW251594   9.633   2.166   4.846  2.2130 -1.2371  2.2516
16783SOL     OW51595   6.858   1.783   0.623  0.2055 -0.2999  0.7348
16783SOL    HW151596   6.758   1.790   0.625  0.1493 -1.3115  1.5513
16783SOL    HW251597   6.898   1.869   0.656 -0.4045 -0.1061  0.9681
16784SOL     OW51598   8.958   0.040   3.258  0.6586  0.1896  0.3254
16784SOL    HW151599   9.025   0.047   3.184 -0.1455 -0.2053 -0.4602
16784SOL    HW251600   8.918  -0.052   3.258 -1.0578  0.8963 -0.2940
16785SOL     OW51601   1.406   5.659   4.100 -0.0339  0.2221 -0.5942
16785SOL    HW151602   1.436   5.586   4.161 -1.4599  0.6148  0.5944
16785SOL    HW251603   1.328   5.626   4.046 -0.7123  0.8680 -0.0200
16786SOL     OW51604   6.974   9.805   7.665 -0.3153 -0.3052 -0.6417
16786SOL    HW151605   6.922   9.811   7.580 -0.6583  2.1238 -0.2952
16786SOL    HW251606   6.917   9.834   7.741 -0.2675 -3.2570  0.5643
16787SOL     OW51607   3.424   5.261   6.821  0.0958 -0.4533 -0.0511
16787SOL    HW151608   3.399   5.171   6.856 -1.7155  0.7368  1.9187
16787SOL    HW251609   3.393   5.331   6.886  2.7242  1.5266 -0.8305
16788SOL     OW51610   4.894   7.928   3.155  0.4953 -0.0789 -0.4637
16788SOL    HW151611   4.803   7.962   3.131  0.4104 -0.2302 -0.3621
16788SOL    HW251612   4.902   7.920   3.254 -0.3721 -2.7228 -0.5575
16789SOL     OW51613   8.923   1.734   0.574 -0.2988 -0.0931  0.0923
16789SOL    HW151614   8.984   1.802   0.616 -2.0150  0.0662  2.4411
16789SOL    HW251615   8.876   1.776   0.497  0.0098  0.8438  0.4025
16790SOL     OW51616   8.459   7.454   7.049  0.2119  0.0074  0.0129
16790SOL    HW151617   8.554   7.422   7.043 -0.1056 -0.6688 -1.6587
16790SOL    HW251618   8.412   7.406   7.122  1.1706  0.3801  0.8818
16791SOL     OW51619   1.071   0.987   3.901  0.1487  0.5117  0.5020
16791SOL    HW151620   1.053   1.080   3.869  0.7136  0.9221  1.3712
16791SOL    HW251621   1.166   0.979   3.929 -0.3981  0.2623  2.3951
16792SOL     OW51622   8.216   9.957   0.270 -0.0987 -0.1583 -0.1528
16792SOL    HW151623   8.168   9.877   0.305 -0.7621 -0.7478 -2.3116
16792SOL    HW251624   8.149  10.028   0.245  0.2153 -0.4332 -1.8420
16794SOL     OW51625   3.899   0.312   2.056  0.0999 -0.0598  0.0952
16794SOL    HW151626   3.848   0.243   2.004 -1.3557  0.0748  1.2889
16794SOL    HW251627   3.845   0.338   2.136  2.5263 -0.6547  1.9755
16795SOL     OW51628   6.889   2.554   1.039  0.2716 -0.3416  0.0845
16795SOL    HW151629   6.930   2.612   0.969 -1.1852  1.0327  0.3500
16795SOL    HW251630   6.961   2.506   1.088  1.4315  0.3471 -0.9079
16796SOL     OW51631   8.872   1.975   2.403  0.3013 -0.2914 -0.3077
16796SOL    HW151632   8.906   1.971   2.309  0.4839 -0.2630 -0.2446
16796SOL    HW251633   8.859   1.882   2.438  1.9210 -0.3390  0.2341
16797SOL     OW51634   9.128   8.141   3.890 -0.2663  0.1586 -0.4835
16797SOL    HW151635   9.066   8.214   3.919  0.9055  0.0388  2.5187
16797SOL    HW251636   9.104   8.056   3.936  2.2066  0.1529  0.8578
16798SOL     OW51637   1.367   6.416   7.877 -0.0924 -0.1413  0.5369
16798SOL    HW151638   1.364   6.407   7.778  0.3208 -1.4741  0.6409
16798SOL    HW251639   1.283   6.460   7.909  0.0052  0.7772 -0.4487
16799SOL     OW51640   4.870   7.336   1.788  0.3216  0.0446 -0.2646
16799SOL    HW151641   4.862   7.382   1.877 -1.8525  0.8567 -0.8596
16799SOL    HW251642   4.866   7.403   1.715  0.4417 -0.7782 -1.0297
16800SOL     OW51643   4.939   8.081   3.656  0.1305  0.1088 -0.7716
16800SOL    HW151644   4.953   7.992   3.699  0.8708 -0.1713 -1.5785
16800SOL    HW251645   4.963   8.154   3.720 -1.4000 -0.2420  0.2273
16801SOL     OW51646   4.616   7.065   0.358  0.3590 -0.3860 -0.1942
16801SOL    HW151647   4.642   6.976   0.320  1.7929 -1.1400  2.3975
16801SOL    HW251648   4.532   7.055   0.411  0.7462 -0.2949  0.4422
16802SOL     OW51649   6.248   2.597   4.730  0.0653  0.3173 -0.8335
16802SOL    HW151650   6.153   2.612   4.759 -0.0496  0.3491 -1.2231
16802SOL    HW251651   6.299   2.683   4.737 -0.5652  0.8823 -2.9710
16805SOL     OW51652   7.425   6.333   6.670  0.5379  0.1112 -0.0681
16805SOL    HW151653   7.469   6.419   6.694  0.7653  0.2305 -0.8734
16805SOL    HW251654   7.486   6.256   6.690  0.6785  0.1986 -0.1659
16806SOL     OW51655   0.166   5.475   1.799  0.0522  0.3392  0.3584
16806SOL    HW151656   0.150   5.562   1.845 -0.0089  1.2585 -1.4019
16806SOL    HW251657   0.129   5.478   1.706 -0.3092 -1.6983  0.4034
16808SOL     OW51658   0.283   2.831   0.297  0.3425  0.2880  0.3736
16808SOL    HW151659   0.203   2.825   0.357 -0.1224  2.1223 -0.0399
16808SOL    HW251660   0.252   2.833   0.202  0.8433  1.7615  0.2409
16810SOL     OW51661   0.891   9.457   5.132  0.7361  0.4518  0.4153
16810SOL    HW151662   0.940   9.446   5.045  0.5615 -0.9981  0.4952
16810SOL    HW251663   0.921   9.386   5.196 -1.9791 -0.9191  0.2265
16811SOL     OW51664   1.382   7.558   2.153  0.1913  0.5596  0.4249
16811SOL    HW151665   1.305   7.608   2.111 -1.5359 -2.1262  0.2589
16811SOL    HW251666   1.461   7.563   2.092 -1.2530 -0.4256 -1.6021
16812SOL     OW51667   0.380   1.689   1.136  0.4821 -0.3401 -0.4191
16812SOL    HW151668   0.300   1.741   1.105  0.6735 -0.5081 -1.2185
16812SOL    HW251669   0.460   1.749   1.137  0.1031  0.1488  1.5929
16813SOL     OW51670   3.664   9.011   4.124  0.2681  0.7223  0.1833
16813SOL    HW151671   3.758   8.983   4.144  0.2319  0.7836  0.4395
16813SOL    HW251672   3.642   9.094   4.174 -0.6229 -0.4723  1.8476
16815SOL     OW51673   8.214   1.607   1.709  0.1554 -0.2080  0.5703
16815SOL    HW151674   8.229   1.601   1.610 -2.1865 -0.3590  0.1788
16815SOL    HW251675   8.199   1.515   1.745 -0.0752 -0.0576  0.8606
16818SOL     OW51676   9.668   0.665   6.847 -0.1301 -0.4806  0.2861
16818SOL    HW151677   9.579   0.689   6.887 -0.3995 -0.1331 -0.4978
16818SOL    HW251678   9.698   0.739   6.786  1.2420 -0.0811  1.4257
16819SOL     OW51679   9.459   4.727   7.243  0.2119 -0.3471  0.0165
16819SOL    HW151680   9.454   4.763   7.336 -1.2838 -0.4393 -0.0158
16819SOL    HW251681   9.422   4.634   7.242  3.2237 -1.5878 -0.0617
16820SOL     OW51682   9.638   1.548   2.586 -0.4634  0.0991 -0.6329
16820SOL    HW151683   9.656   1.646   2.601 -0.3641 -0.1457  0.9531
16820SOL    HW251684   9.671   1.496   2.665  0.8284 -1.3779 -2.1000
16821SOL     OW51685   0.456   1.066   7.523  0.2103  0.6485  0.4249
16821SOL    HW151686   0.367   1.076   7.566 -0.1728  1.2901 -0.4945
16821SOL    HW251687   0.519   1.021   7.586 -1.0558 -0.7934  0.7120
16822SOL     OW51688   7.224   2.568   5.455 -0.0467  0.1126 -0.3618
16822SOL    HW151689   7.278   2.650   5.472 -1.3117  0.2892  3.1497
16822SOL    HW251690   7.278   2.487   5.477 -0.0832  0.1624 -0.0848
16824SOL     OW51691   2.036   9.243   5.368 -0.4086 -0.4065  0.3374
16824SOL    HW151692   2.084   9.280   5.448 -1.1952  1.2877  0.0560
16824SOL    HW251693   2.101   9.195   5.310  0.3312 -0.9502  1.5885
16825SOL     OW51694   2.838   5.183   0.395  0.3142 -0.0005  0.0103
16825SOL    HW151695   2.780   5.103   0.376  1.0788 -0.7025  0.6167
16825SOL    HW251696   2.933   5.154   0.403  0.5128  0.8889  0.9169
16827SOL     OW51697   3.602   7.063   1.426  0.4924 -0.1162  0.4057
16827SOL    HW151698   3.670   6.989   1.428  0.0120 -0.5381  2.4835
16827SOL    HW251699   3.648   7.151   1.441  0.6277 -0.3717  1.5310
16828SOL     OW51700   4.299   2.132   4.050 -0.7981 -0.1299 -0.0545
16828SOL    HW151701   4.286   2.033   4.061 -1.8241  0.1733  1.4747
16828SOL    HW251702   4.311   2.174   4.139  1.7918  0.8596 -0.8214
16830SOL     OW51703   8.927   2.143   4.651 -0.0698  0.2808 -0.1779
16830SOL    HW151704   8.856   2.073   4.663  0.9878 -0.8142 -0.2260
16830SOL    HW251705   8.935   2.165   4.554 -0.7229  0.8239 -0.1175
16831SOL     OW51706   9.580   8.802   2.378 -0.0638  0.4325 -0.4731
16831SOL    HW151707   9.554   8.894   2.407  0.5572 -0.1024  1.9007
16831SOL    HW251708   9.608   8.749   2.458 -0.5262 -1.8581 -1.7968
16832SOL     OW51709   4.128   1.068   1.291 -0.3238 -0.7598 -0.0251
16832SOL    HW151710   4.099   1.085   1.197  0.3528 -0.5451 -0.1974
16832SOL    HW251711   4.094   0.979   1.321 -0.3817 -0.9054 -0.5330
16833SOL     OW51712   4.798   5.791   4.078  0.3622 -0.5553 -0.1473
16833SOL    HW151713   4.710   5.749   4.100  0.1899 -0.0092  0.2159
16833SOL    HW251714   4.869   5.752   4.137  0.0489  0.2930  0.8138
16834SOL     OW51715   7.043   5.864   3.182  0.3345  0.3064 -0.0702
16834SOL    HW151716   7.019   5.888   3.276  0.2408  0.8500 -0.2309
16834SOL    HW251717   7.006   5.933   3.120 -0.5000 -0.6001 -0.5964
16837SOL     OW51718   5.536   9.928   5.218 -0.3102 -0.4769 -0.5137
16837SOL    HW151719   5.573   9.999   5.159  0.8284 -0.3001  0.4035
16837SOL    HW251720   5.484   9.970   5.292 -0.5972 -0.6467 -0.6178
16838SOL     OW51721   8.863   5.500   6.688 -0.5535 -0.6094 -0.2496
16838SOL    HW151722   8.826   5.557   6.615 -2.2860  0.1566  1.1551
16838SOL    HW251723   8.854   5.403   6.663 -2.5770 -0.4110 -0.4274
16839SOL     OW51724   4.555   7.321   1.484  0.1538  0.7868  0.7543
16839SOL    HW151725   4.589   7.408   1.448  0.6734 -0.4623 -1.9210
16839SOL    HW251726   4.621   7.283   1.548  0.4081  1.8484  1.1264
16840SOL     OW51727   3.808   3.136   6.885 -0.3592  0.1244 -0.0122
16840SOL    HW151728   3.753   3.054   6.866 -1.3780  0.0854  2.7552
16840SOL    HW251729   3.810   3.195   6.805 -1.9606 -1.3010 -1.1413
16842SOL     OW51730   5.765   0.705   1.851  0.6032  0.0332 -0.2370
16842SOL    HW151731   5.672   0.683   1.821  0.5034  2.0753 -1.4647
16842SOL    HW251732   5.773   0.803   1.868  1.9041 -0.4573  2.1378
16843SOL     OW51733   8.007   5.877   4.954 -0.2736  0.7453  0.5587
16843SOL    HW151734   8.006   5.781   4.927  0.1212  0.3998  1.7577
16843SOL    HW251735   7.917   5.904   4.989 -0.0432  0.4957  1.3362
16844SOL     OW51736   9.216   2.965   1.595  0.3537 -0.3551 -0.1248
16844SOL    HW151737   9.130   3.013   1.610 -0.6829 -2.0982 -0.3153
16844SOL    HW251738   9.259   2.944   1.683 -0.0062 -0.5009  0.0166
16845SOL     OW51739   8.481   8.304   7.666 -0.1609 -0.1257 -0.4150
16845SOL    HW151740   8.500   8.207   7.682 -0.6628 -0.1095  0.2721
16845SOL    HW251741   8.544   8.360   7.720  0.6256 -0.0621 -1.3882
16846SOL     OW51742   1.982   2.305   5.177 -0.0217  0.7121  0.8883
16846SOL    HW151743   2.028   2.387   5.213  0.9404  0.2398  0.7667
16846SOL    HW251744   1.887   2.326   5.156  0.8774  2.5305 -1.5963
16848SOL     OW51745   0.651   7.409   3.653 -0.6571 -0.7023  0.4425
16848SOL    HW151746   0.712   7.481   3.620 -0.0157 -1.6430 -0.4576
16848SOL    HW251747   0.680   7.379   3.744  0.4594 -1.3732 -0.1123
16850SOL     OW51748   9.654   9.744   7.108  0.2811  0.1560  0.1500
16850SOL    HW151749   9.688   9.737   7.202  1.2569  0.8013 -0.1467
16850SOL    HW251750   9.591   9.668   7.089 -0.0431  0.1110  1.3682
16852SOL     OW51751   5.959   9.931   2.090 -0.7971 -0.0908 -0.1024
16852SOL    HW151752   6.038   9.869   2.087 -0.3306  0.5474 -2.6269
16852SOL    HW251753   5.883   9.890   2.039 -1.3953  0.2317  0.5311
16853SOL     OW51754   5.558   0.283   2.206 -0.5344  0.1980 -0.2988
16853SOL    HW151755   5.497   0.237   2.141  0.4070 -1.9844  0.2903
16853SOL    HW251756   5.618   0.215   2.249 -0.6056  1.7044  2.2971
16854SOL     OW51757   2.425   8.587   2.810  0.3427  0.3618 -0.1585
16854SOL    HW151758   2.499   8.594   2.878  0.7227  0.5123 -0.5845
16854SOL    HW251759   2.437   8.659   2.741 -0.5128  0.7242  0.0679
16855SOL     OW51760   4.060   8.745   2.397 -0.5845 -0.0128  0.1128
16855SOL    HW151761   4.043   8.842   2.381  1.0101  0.0563 -1.2480
16855SOL    HW251762   4.028   8.692   2.318 -1.7123 -0.6429  0.9666
16856SOL     OW51763   8.056   8.879   5.510  0.1448 -0.3232  0.1961
16856SOL    HW151764   8.035   8.864   5.413  0.7803 -0.2554  0.0394
16856SOL    HW251765   8.049   8.793   5.560 -1.1762 -0.1639  0.2853
16857SOL     OW51766   1.747   3.374   4.434 -0.0643  0.4597  0.2920
16857SOL    HW151767   1.821   3.355   4.498  1.1278 -0.5869 -1.3723
16857SOL    HW251768   1.678   3.302   4.440  0.2323  0.1601  0.1479
16858SOL     OW51769   6.888   6.109   0.569 -0.0912  0.4483  0.6279
16858SOL    HW151770   6.907   6.016   0.600 -1.7117  0.7086  2.5009
16858SOL    HW251771   6.857   6.107   0.474 -2.0239 -1.1578  1.2556
16859SOL     OW51772   9.609   1.967   0.863  0.6523  0.1904  0.2139
16859SOL    HW151773   9.567   2.054   0.889  0.8866  0.4756 -0.3434
16859SOL    HW251774   9.635   1.916   0.945 -1.2486 -0.2285  0.5807
16861SOL     OW51775   4.671   5.882   2.459 -0.5645  0.0687  0.6753
16861SOL    HW151776   4.699   5.912   2.550 -1.2386 -0.8086  1.1840
16861SOL    HW251777   4.634   5.789   2.464 -0.0534 -0.2184 -0.5958
16862SOL     OW51778   4.051   2.338   4.602  0.3498 -0.7538 -0.0180
16862SOL    HW151779   4.119   2.411   4.600  0.3048 -0.6691  1.3995
16862SOL    HW251780   4.035   2.305   4.509 -0.4337  1.7865 -0.8043
16863SOL     OW51781   4.101   4.134   0.191 -0.7130 -0.4116 -0.2820
16863SOL    HW151782   4.045   4.066   0.238 -0.1823 -0.0617  0.9064
16863SOL    HW251783   4.102   4.116   0.093 -0.0245 -2.5382  0.0806
16864SOL     OW51784   3.931   4.636   2.232 -0.1725 -0.1542 -0.7369
16864SOL    HW151785   3.900   4.629   2.327  0.6120  0.1277 -0.4646
16864SOL    HW251786   3.948   4.544   2.197 -1.9822 -0.3784 -1.1163
16866SOL     OW51787   9.216   9.664   3.231  0.6037  0.4861 -0.4602
16866SOL    HW151788   9.249   9.753   3.198  0.0545  0.4646 -1.0844
16866SOL    HW251789   9.251   9.648   3.323  0.6019  1.4086 -0.2887
16867SOL     OW51790   0.708   4.223   4.323  0.6760 -0.4934  0.0410
16867SOL    HW151791   0.767   4.270   4.257  1.0256  0.6308  1.1278
16867SOL    HW251792   0.614   4.225   4.290  0.9624 -0.6590 -0.8106
16869SOL     OW51793   7.610   0.283   0.092 -0.1972  0.3280 -0.3608
16869SOL    HW151794   7.556   0.326   0.163  0.0939 -0.1212  0.1397
16869SOL    HW251795   7.551   0.258   0.015 -0.4298  1.2457 -0.4842
16870SOL     OW51796   4.250   5.741   1.408 -0.3140  0.3976  0.3917
16870SOL    HW151797   4.349   5.757   1.401 -0.0016 -0.5334  2.2697
16870SOL    HW251798   4.233   5.644   1.428 -1.6429  0.4465 -0.4441
16871SOL     OW51799   8.118   6.844   2.390  0.1985  0.4169  0.1603
16871SOL    HW151800   8.179   6.924   2.388 -0.4837  0.9311 -1.0111
16871SOL    HW251801   8.099   6.815   2.296 -0.1251 -0.6998  0.5617
16872SOL     OW51802   8.558   8.508   3.481 -0.6886 -0.2096  0.2397
16872SOL    HW151803   8.553   8.409   3.464 -0.6977  0.3805 -3.6920
16872SOL    HW251804   8.638   8.546   3.435 -0.9098  1.6914  1.3635
16873SOL     OW51805   3.174   9.826   4.122 -0.7076  0.2032 -0.4790
16873SOL    HW151806   3.192   9.781   4.210 -1.9513 -0.5868 -0.6196
16873SOL    HW251807   3.242   9.898   4.107  1.0325 -1.3195 -0.0399
16874SOL     OW51808   2.949   8.018   7.845 -0.0726 -0.4867  0.0628
16874SOL    HW151809   2.918   8.041   7.937  1.0787 -0.4115  0.4386
16874SOL    HW251810   2.995   8.096   7.804  2.1669 -1.4834  0.6161
16875SOL     OW51811   7.500   9.268   3.425 -0.4679  0.2005 -0.0317
16875SOL    HW151812   7.408   9.236   3.447 -0.8282  1.6242  0.5806
16875SOL    HW251813   7.544   9.304   3.508  0.6885 -0.5744 -0.2955
16876SOL     OW51814   4.892   3.671   6.438  0.5881 -0.4666  0.1133
16876SOL    HW151815   4.960   3.631   6.377 -0.6186  0.8294 -2.1811
16876SOL    HW251816   4.811   3.696   6.384 -0.7033  0.2779  2.3568
16877SOL     OW51817   8.785   5.752   1.873 -0.1796 -0.2778  0.6478
16877SOL    HW151818   8.727   5.719   1.799  0.0234  1.0160 -0.1044
16877SOL    HW251819   8.828   5.839   1.846  0.3838 -0.1106  2.0326
16879SOL     OW51820   0.190   5.713   5.621 -0.3712 -0.5504 -0.3389
16879SOL    HW151821   0.249   5.764   5.684  0.3290 -1.4690 -0.2491
16879SOL    HW251822   0.233   5.626   5.598  0.1741  0.4468 -3.3763
16880SOL     OW51823   8.160   7.831   1.423  0.2473  0.0762  0.0228
16880SOL    HW151824   8.060   7.837   1.430  0.4005  1.1845  1.7784
16880SOL    HW251825   8.194   7.907   1.368  0.1321 -0.2886 -0.5566
16881SOL     OW51826   9.890   1.144   2.923 -0.2616 -0.0343  0.1227
16881SOL    HW151827   9.985   1.129   2.950 -0.3536  0.6742  0.8667
16881SOL    HW251828   9.862   1.236   2.949 -1.2496 -0.3419  0.1868
16882SOL     OW51829   2.558   2.203   2.659  0.5300  0.3373 -0.4360
16882SOL    HW151830   2.501   2.285   2.652  0.7081  0.5383  0.3672
16882SOL    HW251831   2.500   2.124   2.682  0.6485  0.6686  1.0692
16883SOL     OW51832   7.552   9.234   7.305  0.1380 -0.5177 -0.3151
16883SOL    HW151833   7.582   9.179   7.382  2.0353  1.5997  0.5214
16883SOL    HW251834   7.544   9.177   7.223  3.2274 -1.8037  0.2447
16884SOL     OW51835   9.624   0.448   4.718 -0.1563  0.3180 -0.3570
16884SOL    HW151836   9.681   0.385   4.770 -0.3686 -0.1829 -0.7264
16884SOL    HW251837   9.665   0.462   4.627  0.1319  1.0655 -0.1113
16885SOL     OW51838   3.657   7.497   6.928  0.2759 -0.5260  0.4125
16885SOL    HW151839   3.660   7.397   6.932  0.8248 -0.5489 -0.4546
16885SOL    HW251840   3.565   7.527   6.905  0.1244 -0.8409  0.6116
16886SOL     OW51841   9.231   4.034   3.481 -0.2126  0.1254  0.2103
16886SOL    HW151842   9.224   4.134   3.477 -2.0771 -0.0689 -3.5126
16886SOL    HW251843   9.181   4.000   3.560 -0.4151  2.0713  0.9534
16887SOL     OW51844   1.239   7.627   1.788  0.0378  0.1929  0.1946
16887SOL    HW151845   1.176   7.592   1.719  0.5067 -0.2643 -0.0084
16887SOL    HW251846   1.188   7.668   1.863 -0.4793  2.0410 -1.1139
16888SOL     OW51847   8.848   5.302   2.025  0.2184  0.3587  0.2028
16888SOL    HW151848   8.782   5.376   2.028  0.2757  0.4069  0.2618
16888SOL    HW251849   8.800   5.214   2.029  0.2984  0.4083  2.6741
16890SOL     OW51850   2.759   3.207   3.210 -0.3665  0.0964 -0.2326
16890SOL    HW151851   2.779   3.147   3.132  0.7160 -1.2577  1.0515
16890SOL    HW251852   2.844   3.250   3.241 -0.4834 -0.7444  1.2927
16892SOL     OW51853   2.981   2.302   1.632  0.4978  0.0517  0.4880
16892SOL    HW151854   3.026   2.384   1.595  1.9631 -1.3078 -0.7935
16892SOL    HW251855   2.891   2.293   1.590  1.6509 -0.7930 -1.8938
16893SOL     OW51856   2.915   8.883   5.255  0.1896 -0.8913  0.0643
16893SOL    HW151857   2.929   8.840   5.343 -0.0667  0.0579  0.5764
16893SOL    HW251858   2.831   8.938   5.258  1.4380  1.0753 -0.0116
16894SOL     OW51859   9.187   2.066   2.574 -0.0449 -0.0531 -0.2753
16894SOL    HW151860   9.087   2.071   2.569 -0.0227 -1.2362 -2.3476
16894SOL    HW251861   9.227   2.113   2.496  1.0363  0.5447  0.6258
16896SOL     OW51862   9.287   4.496   0.922  0.5489  0.2657 -0.4048
16896SOL    HW151863   9.345   4.509   0.842  1.0203 -0.5336 -0.1948
16896SOL    HW251864   9.269   4.398   0.935 -1.2939  0.5306 -0.7921
16897SOL     OW51865   3.189   7.228   1.083 -0.4911 -0.6773  0.3444
16897SOL    HW151866   3.285   7.248   1.101 -0.2779 -2.7995  1.7698
16897SOL    HW251867   3.133   7.307   1.109  0.8578  0.5924 -0.5730
16898SOL     OW51868   0.607   8.602   6.101  0.1238 -0.5759 -0.4932
16898SOL    HW151869   0.688   8.555   6.136  0.6049  0.5353 -0.0908
16898SOL    HW251870   0.634   8.668   6.031 -0.2032  1.0184  0.8378
16899SOL     OW51871   5.278   8.710   6.150  0.2366 -0.2377 -0.0943
16899SOL    HW151872   5.179   8.728   6.157 -0.0302 -1.5584 -0.4209
16899SOL    HW251873   5.293   8.613   6.134  1.5959 -0.0158 -0.1881
16900SOL     OW51874   6.823   3.545   0.318 -0.6025  0.4043 -0.0028
16900SOL    HW151875   6.881   3.615   0.277 -2.3498  0.9053 -1.6971
16900SOL    HW251876   6.820   3.464   0.259  0.4160 -0.6365  1.3377
16901SOL     OW51877   3.287   9.422   1.746  0.9633 -0.0705  0.0829
16901SOL    HW151878   3.256   9.481   1.820  1.7510  1.2379 -0.6151
16901SOL    HW251879   3.254   9.458   1.659  1.7521 -0.4615 -0.3857
16902SOL     OW51880   3.768   3.120   3.472 -0.0102  0.3075 -0.4481
16902SOL    HW151881   3.676   3.095   3.501 -0.5227 -0.9125 -2.9740
16902SOL    HW251882   3.763   3.170   3.386  1.7821 -1.5237 -1.6688
16903SOL     OW51883   7.114   5.530   6.640  0.5682  0.0628  0.0743
16903SOL    HW151884   7.206   5.492   6.644  0.1199 -1.1341 -0.6882
16903SOL    HW251885   7.099   5.573   6.551  0.9720  1.8123  0.8231
16905SOL     OW51886   8.434   0.090   7.322 -0.0939 -0.6916 -0.4188
16905SOL    HW151887   8.506   0.159   7.316 -0.8618  0.1845  0.1274
16905SOL    HW251888   8.430   0.037   7.238  2.0951 -1.6682  0.0765
16906SOL     OW51889   4.483   6.324   7.772 -0.5482  0.1944  0.0127
16906SOL    HW151890   4.523   6.401   7.823  0.1382  0.4262 -0.8561
16906SOL    HW251891   4.494   6.240   7.825  0.5539  0.3571  0.0508
16907SOL     OW51892   4.784   9.100   2.029  0.2033  0.5974  0.3633
16907SOL    HW151893   4.819   9.032   1.965 -2.1468 -1.5385  1.2554
16907SOL    HW251894   4.860   9.138   2.083  1.5178 -1.6442  0.1571
16908SOL     OW51895   1.033   2.892   5.514  0.0722 -0.2869  0.0577
16908SOL    HW151896   1.018   2.964   5.582  2.0310  0.1593  0.0341
16908SOL    HW251897   0.982   2.914   5.431  0.3994  0.9219  0.1672
16909SOL     OW51898   0.771   1.551   6.971  0.2722  0.3253 -0.0202
16909SOL    HW151899   0.692   1.612   6.968  1.3819  1.8208  0.1821
16909SOL    HW251900   0.854   1.606   6.987  1.2390 -1.3007  0.5962
16911SOL     OW51901   4.199   0.394   7.043  0.5466  0.3125  0.6402
16911SOL    HW151902   4.284   0.373   7.092  1.2294 -0.0272 -0.6721
16911SOL    HW251903   4.214   0.386   6.945 -0.4803  2.1650  0.2971
16912SOL     OW51904   0.319   3.144   2.377 -0.0318 -0.0156 -0.0351
16912SOL    HW151905   0.344   3.240   2.377  1.5080 -0.4031  0.0026
16912SOL    HW251906   0.237   3.131   2.320 -0.7794  1.4285  0.6904
16913SOL     OW51907   7.480   0.556   6.274  0.2163  0.0909  0.2141
16913SOL    HW151908   7.543   0.536   6.350  1.7216  1.6452 -0.5620
16913SOL    HW251909   7.449   0.651   6.282 -0.9936 -0.2735 -0.1533
16914SOL     OW51910   3.408   3.045   5.892 -0.2658 -0.3479 -0.1059
16914SOL    HW151911   3.476   3.007   5.829 -0.1537  2.6758 -1.8880
16914SOL    HW251912   3.325   3.070   5.842 -1.7487 -1.5810  1.6308
16915SOL     OW51913   7.244   9.649   1.811  0.2701  0.0828 -0.3634
16915SOL    HW151914   7.172   9.686   1.870  1.0162  0.1378  0.5218
16915SOL    HW251915   7.260   9.553   1.835 -1.4634 -0.7808 -2.4607
16916SOL     OW51916   8.896   4.576   4.328 -0.0522  0.3421 -0.0139
16916SOL    HW151917   8.986   4.619   4.335  0.5126 -0.7945 -0.1113
16916SOL    HW251918   8.832   4.639   4.283  1.0908  0.5874 -1.3396
16917SOL     OW51919   3.269   7.010   7.289 -0.3441  0.4683  0.1801
16917SOL    HW151920   3.309   7.101   7.296 -0.3425  0.5340 -0.6462
16917SOL    HW251921   3.170   7.018   7.277 -0.3505  0.3563  0.1601
16918SOL     OW51922   1.731   1.145   4.604  0.3422  0.5229  0.8201
16918SOL    HW151923   1.759   1.060   4.560 -0.3291  0.5341  0.3645
16918SOL    HW251924   1.668   1.125   4.678 -0.8839  0.7180 -0.1659
16919SOL     OW51925   1.165   3.040   2.206  0.0767 -0.3231  0.3900
16919SOL    HW151926   1.113   3.108   2.156 -0.3472 -0.1409  1.0716
16919SOL    HW251927   1.149   2.949   2.167 -1.9221 -0.4769  1.5251
16920SOL     OW51928   1.915   2.171   2.203  0.2399 -0.0256 -0.3570
16920SOL    HW151929   1.896   2.121   2.119 -0.0845 -0.3262 -0.1061
16920SOL    HW251930   1.987   2.124   2.255  0.9566  0.5547 -0.8129
16921SOL     OW51931   4.602   1.939   7.209  0.3531 -0.5100 -0.1169
16921SOL    HW151932   4.519   1.935   7.265 -0.0921  0.2683 -0.7058
16921SOL    HW251933   4.663   2.010   7.245 -0.1043  0.2536 -0.8425
16922SOL     OW51934   7.699   6.114   4.874 -0.2556  0.2108  0.1702
16922SOL    HW151935   7.717   6.054   4.952 -0.4267 -1.0186 -0.7232
16922SOL    HW251936   7.754   6.197   4.882 -0.7165  0.3649  1.9041
16923SOL     OW51937   0.434   5.159   0.044  0.2089 -0.3023  0.3990
16923SOL    HW151938   0.469   5.246   0.078 -1.1929  0.2013  0.5633
16923SOL    HW251939   0.483   5.134  -0.040  2.1724 -0.4821  1.5684
16924SOL     OW51940   9.509   0.896   4.919  0.4828 -0.1346 -0.3448
16924SOL    HW151941   9.507   0.805   4.878 -0.8735  0.1726 -0.9867
16924SOL    HW251942   9.467   0.962   4.856 -0.7849  0.5001  1.1199
16926SOL     OW51943   3.486   9.406   3.515  0.2008 -0.2866 -0.9934
16926SOL    HW151944   3.497   9.422   3.613  1.1241 -1.1442 -0.9476
16926SOL    HW251945   3.389   9.402   3.492 -0.0218 -1.1980  0.0730
16927SOL     OW51946   9.819   9.380   7.287 -0.2144  0.8511  0.1034
16927SOL    HW151947   9.769   9.444   7.229 -0.0230 -0.8155 -1.9748
16927SOL    HW251948   9.762   9.300   7.305  1.5641 -1.0794 -2.3063
16928SOL     OW51949   1.137   0.652   5.819  0.0855  0.3436  0.3697
16928SOL    HW151950   1.150   0.592   5.898  2.2941 -0.4997 -0.5790
16928SOL    HW251951   1.180   0.740   5.836 -0.4875  0.5860  0.5706
16929SOL     OW51952   0.934   4.988   0.683  0.5713 -0.0962 -0.7727
16929SOL    HW151953   0.936   4.969   0.585  0.5129  1.6932 -1.1342
16929SOL    HW251954   0.840   5.004   0.712  0.6976  0.4429 -0.6483
16931SOL     OW51955   6.986   4.653   7.087 -0.0385 -0.5734 -0.2702
16931SOL    HW151956   7.011   4.708   7.166  1.8957 -2.4593  0.4806
16931SOL    HW251957   6.987   4.710   7.005  3.5261  0.2049  0.2437
16932SOL     OW51958   2.458   2.996   5.978  0.0664 -0.3028  0.3101
16932SOL    HW151959   2.558   2.999   5.966 -0.1191  0.9911 -1.0725
16932SOL    HW251960   2.422   2.911   5.941  0.4202  0.1852 -1.1670
16933SOL     OW51961   0.144   1.055   1.793 -0.3975  0.1965 -0.2895
16933SOL    HW151962   0.129   0.973   1.738 -2.5363  1.4544 -1.6546
16933SOL    HW251963   0.185   1.126   1.736  1.5653  0.0570  0.9201
16934SOL     OW51964   3.421   3.108   4.948 -0.3061  0.2741 -0.1068
16934SOL    HW151965   3.325   3.095   4.923 -0.0314 -0.9319 -0.5639
16934SOL    HW251966   3.459   3.186   4.897 -1.2985  1.3990  0.8277
16935SOL     OW51967   7.709   1.150   6.351 -0.6918  0.0486  0.4655
16935SOL    HW151968   7.753   1.142   6.440 -0.4003  0.9351  0.4037
16935SOL    HW251969   7.645   1.228   6.352  0.7686  1.2954 -0.6993
16936SOL     OW51970   0.205   6.867   2.751 -0.4179 -0.4648 -0.3380
16936SOL    HW151971   0.227   6.925   2.672 -0.6340 -0.4165 -0.3638
16936SOL    HW251972   0.230   6.914   2.835 -2.4123  0.5197 -0.2524
16937SOL     OW51973   9.374   9.299   4.295 -0.1479  0.6790  0.2044
16937SOL    HW151974   9.362   9.244   4.212 -0.4207  1.0129  0.0176
16937SOL    HW251975   9.407   9.390   4.270  0.6345  0.4937  0.5399
16939SOL     OW51976   5.947   4.653   2.211 -0.0646 -0.1242 -0.2561
16939SOL    HW151977   5.975   4.674   2.117 -0.0820 -1.1372 -0.4959
16939SOL    HW251978   6.018   4.598   2.255 -0.3749 -0.2470  0.0940
16940SOL     OW51979   2.635   6.436   7.650 -0.0633  0.3327  0.2002
16940SOL    HW151980   2.727   6.402   7.631 -0.3229 -0.1481 -0.2107
16940SOL    HW251981   2.586   6.368   7.706 -0.2239  0.5102  0.2751
16941SOL     OW51982   7.503   9.039   7.108 -0.1113  0.6435  0.1109
16941SOL    HW151983   7.415   9.017   7.066 -0.7487  1.1743  1.1443
16941SOL    HW251984   7.576   8.991   7.060 -1.0477 -0.4432 -0.2544
16943SOL     OW51985   5.250   4.186   7.905 -0.3378  0.5663 -0.5436
16943SOL    HW151986   5.307   4.111   7.938 -1.6012  0.3298  1.1386
16943SOL    HW251987   5.207   4.159   7.819 -0.3344 -0.4167 -0.2408
16944SOL     OW51988   7.926   0.724   5.659 -0.3424 -0.0924 -0.0851
16944SOL    HW151989   7.938   0.682   5.569  1.7958  1.0660 -0.3656
16944SOL    HW251990   7.925   0.824   5.649 -0.6556  0.0296  1.1311
16946SOL     OW51991   0.547   3.239   1.438 -0.1413  0.3004  0.7228
16946SOL    HW151992   0.639   3.220   1.471  1.1007  2.0608 -1.5970
16946SOL    HW251993   0.513   3.159   1.388 -0.2342 -0.6537  2.2556
16947SOL     OW51994   0.522   3.673   1.699 -0.2762 -0.2096 -0.3192
16947SOL    HW151995   0.532   3.708   1.606 -2.6096  1.7120  0.0747
16947SOL    HW251996   0.426   3.683   1.728  0.1879 -1.7711  1.8927
16948SOL     OW51997   8.053   4.429   0.962  0.6577 -0.2090  0.2430
16948SOL    HW151998   7.993   4.356   0.931 -2.5211  2.3368  0.1898
16948SOL    HW251999   8.094   4.475   0.882  1.1716 -0.6963  0.2214
16950SOL     OW52000   8.010   7.822   7.661 -0.1027  0.0818  0.5010
16950SOL    HW152001   8.101   7.859   7.681  0.3090 -0.1624 -0.8227
16950SOL    HW252002   7.994   7.740   7.716  0.8601 -0.3981  0.0867
16951SOL     OW52003   7.841   0.412   6.341  0.3875 -0.4606 -0.1476
16951SOL    HW152004   7.774   0.400   6.415 -0.5652  0.2261 -0.8831
16951SOL    HW252005   7.906   0.336   6.342 -1.5718 -2.1887 -0.6325
16952SOL     OW52006   0.557   4.046   2.500  0.5310  0.5618  0.5941
16952SOL    HW152007   0.560   4.041   2.600  4.3693 -2.9181  0.4002
16952SOL    HW252008   0.499   3.972   2.465  1.9675 -0.3957  0.1787
16955SOL     OW52009   0.807   6.576   3.814  0.1126  0.2124 -0.1146
16955SOL    HW152010   0.799   6.655   3.874 -1.4435  0.0944 -0.1540
16955SOL    HW252011   0.765   6.597   3.726  2.0158  0.2460 -1.0428
16956SOL     OW52012   8.971   4.223   3.267  0.2820 -0.0831 -0.0382
16956SOL    HW152013   9.025   4.143   3.295  1.2563  0.5136 -0.1754
16956SOL    HW252014   8.997   4.248   3.173 -1.1696 -0.5670 -0.5828
16959SOL     OW52015   2.143   6.951   3.607 -0.3199  0.5412  0.1568
16959SOL    HW152016   2.126   7.049   3.616 -0.2054  0.5654  0.1151
16959SOL    HW252017   2.107   6.903   3.687  1.1306  0.8103  0.9893
16960SOL     OW52018   6.246   5.528   2.093  0.1279  0.3536 -0.1992
16960SOL    HW152019   6.162   5.505   2.044  0.3263 -0.0352 -0.3660
16960SOL    HW252020   6.224   5.579   2.176 -0.3739 -0.8604  0.4386
16961SOL     OW52021   2.821   6.728   1.249 -0.3084  0.5689 -1.1246
16961SOL    HW152022   2.833   6.824   1.272 -0.2967  0.0702  1.0853
16961SOL    HW252023   2.901   6.695   1.199  0.4540  1.2860 -0.3928
16962SOL     OW52024   9.297   0.365   2.230 -0.0017  0.2857  0.4919
16962SOL    HW152025   9.264   0.351   2.323 -2.6266  0.6550 -0.3349
16962SOL    HW252026   9.264   0.292   2.171  1.9252 -0.1326 -0.0993
16963SOL     OW52027   0.598   9.555   1.303 -0.2830 -0.3373 -0.2751
16963SOL    HW152028   0.590   9.532   1.400 -1.4846  1.6700  0.1343
16963SOL    HW252029   0.663   9.629   1.292 -0.0924 -0.6137 -1.0207
16964SOL     OW52030   9.862   7.807   5.444 -0.0029  0.1145  0.0701
16964SOL    HW152031   9.888   7.819   5.540  2.9495 -1.4763 -0.4660
16964SOL    HW252032   9.864   7.710   5.421  0.6568  0.5886 -1.9519
16965SOL     OW52033   8.738   7.039   1.611 -0.4007 -0.1222  0.4737
16965SOL    HW152034   8.681   7.122   1.605 -0.5053 -0.1824  0.6395
16965SOL    HW252035   8.679   6.960   1.628 -0.0665  0.1332  3.0710
16966SOL     OW52036   1.383   1.672   5.835  0.1106 -0.5086  0.1094
16966SOL    HW152037   1.325   1.591   5.832  0.0236 -0.4410 -0.0113
16966SOL    HW252038   1.345   1.743   5.776  0.1690 -0.3679  0.2410
16968SOL     OW52039   7.496   8.169   2.663  0.1984  0.7213 -0.6562
16968SOL    HW152040   7.523   8.210   2.750  1.5782 -1.2292 -0.1460
16968SOL    HW252041   7.402   8.195   2.642  0.3563  2.4574  0.6516
16969SOL     OW52042   9.176   2.201   0.518 -0.1661 -0.4823  0.6371
16969SOL    HW152043   9.089   2.220   0.563 -1.1936  0.4208 -1.6505
16969SOL    HW252044   9.205   2.282   0.466  0.9125 -1.5273 -0.4189
16970SOL     OW52045   8.804   7.320   7.917  0.4530  0.0617  0.2146
16970SOL    HW152046   8.783   7.369   7.832 -2.2724  0.4909  1.0761
16970SOL    HW252047   8.740   7.245   7.929  1.0404 -0.2199  1.7149
16972SOL     OW52048   8.585   3.068   3.222  0.1535 -0.0118  0.6221
16972SOL    HW152049   8.529   3.018   3.288 -0.3385  0.6833  0.7366
16972SOL    HW252050   8.576   3.026   3.131 -0.6210  0.1465  0.6247
16973SOL     OW52051   4.218   9.834   7.842 -0.1093  0.6277 -0.2041
16973SOL    HW152052   4.303   9.873   7.807  0.6484  0.9222  1.9086
16973SOL    HW252053   4.144   9.851   7.776  1.2586  1.1659 -1.6330
16974SOL     OW52054   1.254   6.336   2.266 -0.2238  0.2450 -0.8019
16974SOL    HW152055   1.154   6.333   2.266 -0.2646  1.0145  0.8185
16974SOL    HW252056   1.287   6.340   2.361  1.3517 -0.3298 -1.3135
16975SOL     OW52057   9.374   3.766   3.481 -0.0580  0.6473 -0.1372
16975SOL    HW152058   9.316   3.731   3.406  0.3501  0.9717 -0.6049
16975SOL    HW252059   9.341   3.856   3.508 -0.2942  0.4693  0.1731
16976SOL     OW52060   8.460   7.238   0.291 -0.2783 -0.3702 -0.2048
16976SOL    HW152061   8.441   7.182   0.371 -1.2336 -1.1297 -0.9408
16976SOL    HW252062   8.533   7.196   0.237 -0.6356 -0.6351 -0.4844
16977SOL     OW52063   3.450   8.186   2.729 -0.6295 -0.1963  0.2139
16977SOL    HW152064   3.414   8.279   2.723  1.4447  0.5194 -1.4670
16977SOL    HW252065   3.389   8.124   2.680 -1.5498  0.3993  0.5865
16978SOL     OW52066   3.733   7.558   3.028 -0.1351 -0.5366 -0.5267
16978SOL    HW152067   3.748   7.651   2.994  0.5071 -0.2508  0.5063
16978SOL    HW252068   3.702   7.499   2.953 -1.2506  0.6774 -1.0207
16980SOL     OW52069   4.450   4.239   7.797  0.2317 -0.0957 -0.5961
16980SOL    HW152070   4.507   4.215   7.875 -1.1432  0.0153  0.4449
16980SOL    HW252071   4.377   4.301   7.826  0.0739  0.4538 -2.0873
16981SOL     OW52072   1.356   6.337   6.075  0.0785  0.0485  0.1267
16981SOL    HW152073   1.414   6.263   6.107 -1.5180 -1.5481 -0.5636
16981SOL    HW252074   1.388   6.369   5.986  1.3679  0.8977  0.8790
16982SOL     OW52075   8.366   0.126   3.993 -0.7002 -0.7427  0.0952
16982SOL    HW152076   8.319   0.128   3.905  0.1306  1.4509 -0.3329
16982SOL    HW252077   8.377   0.031   4.023 -2.6973 -1.4164 -1.2294
16983SOL     OW52078   3.920   8.113   5.143 -0.3465 -0.2223  0.1622
16983SOL    HW152079   3.905   8.055   5.222  0.6631  0.9445  1.2209
16983SOL    HW252080   3.854   8.188   5.144 -0.9142 -0.6989 -0.5966
16984SOL     OW52081   0.655   1.529   2.884 -0.0808  0.2168  0.3559
16984SOL    HW152082   0.696   1.493   2.800  0.5318  0.9914  0.3198
16984SOL    HW252083   0.559   1.551   2.867 -0.0378  0.0987 -0.0595
16985SOL     OW52084   1.219   4.310   3.340 -0.3617  0.8515  0.0571
16985SOL    HW152085   1.125   4.332   3.366 -1.5588 -2.2670 -1.3171
16985SOL    HW252086   1.254   4.239   3.401 -0.8445 -1.7890 -2.6101
16986SOL     OW52087   5.359   2.929   0.896 -0.1575 -0.2663 -0.1051
16986SOL    HW152088   5.403   2.897   0.980 -1.6002 -3.3972 -0.4802
16986SOL    HW252089   5.300   3.007   0.918 -1.7453 -2.0139  2.1428
16987SOL     OW52090   9.614   0.863   1.901  0.3198  0.0761 -0.3204
16987SOL    HW152091   9.637   0.860   1.999  1.0475  2.4736 -0.3909
16987SOL    HW252092   9.691   0.826   1.848  0.6437  0.4136 -0.0860
16988SOL     OW52093   7.910   0.596   3.913  0.2852  0.6030  1.1100
16988SOL    HW152094   7.826   0.558   3.950 -0.2081  1.2349  0.6538
16988SOL    HW252095   7.980   0.525   3.910 -0.8204 -0.4539 -0.3738
16990SOL     OW52096   9.810   7.753   2.739 -0.2438  0.1642 -0.5766
16990SOL    HW152097   9.889   7.788   2.790  0.2165 -1.5262 -0.0864
16990SOL    HW252098   9.816   7.784   2.644 -0.4028  2.2343  0.0629
16991SOL     OW52099   7.060   8.245   3.309 -0.1269  0.0213  0.4787
16991SOL    HW152100   6.993   8.195   3.254  1.6964 -1.8776 -0.0667
16991SOL    HW252101   7.104   8.315   3.252  0.3539 -0.6129  0.0721
16992SOL     OW52102   2.938   3.216   5.597  0.1416  0.3948  0.5306
16992SOL    HW152103   2.899   3.146   5.656  1.8017 -0.7949  0.2265
16992SOL    HW252104   2.900   3.206   5.505  1.6405 -1.2036  0.0624
16994SOL     OW52105   9.885   1.424   6.206  0.0784 -0.3149 -0.1830
16994SOL    HW152106   9.820   1.405   6.133 -0.1456 -0.2172 -0.0081
16994SOL    HW252107   9.883   1.349   6.273  0.4179 -0.4976 -0.3729
16995SOL     OW52108   0.432   7.098   5.759  0.5405 -0.1784  0.2182
16995SOL    HW152109   0.413   7.002   5.780  0.4470  0.1738  1.7845
16995SOL    HW252110   0.502   7.133   5.822  1.0932  0.5864 -0.8027
16997SOL     OW52111   3.943   8.924   1.301 -0.1944  0.4105 -0.4842
16997SOL    HW152112   3.856   8.885   1.330 -0.1875  1.3169  0.8002
16997SOL    HW252113   3.992   8.959   1.381  0.6747  1.2650 -1.3752
16998SOL     OW52114   1.540   1.044   4.787  0.2402  0.6937  0.6940
16998SOL    HW152115   1.506   0.960   4.744  1.7262  0.4009  0.0845
16998SOL    HW252116   1.518   1.042   4.885 -0.4371 -0.0412  0.5303
17000SOL     OW52117   9.972   5.568   0.565 -0.5208 -0.1001 -0.2057
17000SOL    HW152118   9.902   5.636   0.544 -2.5928 -1.1278  3.0048
17000SOL    HW252119   9.950   5.483   0.517  1.5666  1.1084 -3.4817
17001SOL     OW52120   5.643   2.057   1.413 -0.7030  0.0815  0.3307
17001SOL    HW152121   5.730   2.089   1.377 -0.7335 -0.3894 -0.1660
17001SOL    HW252122   5.659   1.990   1.485 -0.6500  0.3908  0.6064
17002SOL     OW52123   9.282   8.534   7.747 -0.2681 -0.2116  0.0725
17002SOL    HW152124   9.313   8.547   7.841 -1.2452  0.6233  0.2830
17002SOL    HW252125   9.352   8.568   7.684 -0.4278  1.0151  0.5354
17003SOL     OW52126   2.000   0.815   6.740  0.3826  0.7137 -0.6758
17003SOL    HW152127   1.945   0.738   6.773  0.2078  0.1753 -2.1633
17003SOL    HW252128   2.096   0.799   6.760  0.3277  0.1680 -0.8480
17004SOL     OW52129   0.559   4.916   7.289 -0.4640 -0.1742  0.1726
17004SOL    HW152130   0.537   4.844   7.223  1.7473 -1.2511  0.5424
17004SOL    HW252131   0.477   4.943   7.338 -1.8308 -0.5199 -1.8736
17005SOL     OW52132   1.196   2.521   4.535 -0.2773 -0.2864  0.0751
17005SOL    HW152133   1.171   2.542   4.441  0.8951 -0.5569 -0.3088
17005SOL    HW252134   1.115   2.494   4.586 -0.9207 -0.1277 -0.8534
17006SOL     OW52135   7.159   3.038   4.362 -0.2624  0.1013  0.8406
17006SOL    HW152136   7.204   2.949   4.350  0.4418  0.5431  0.1649
17006SOL    HW252137   7.097   3.033   4.440 -2.0016 -1.6887 -0.6004
17007SOL     OW52138   9.167   8.969   2.389 -0.5931  0.0862 -0.6185
17007SOL    HW152139   9.236   8.897   2.387 -1.8010 -1.0550 -2.0729
17007SOL    HW252140   9.082   8.934   2.428 -1.9644 -0.0293 -3.6062
17014SOL     OW52141   0.258   3.675   0.669 -0.2792 -0.2931  0.1444
17014SOL    HW152142   0.163   3.667   0.696  0.2616 -0.9052  1.9579
17014SOL    HW252143   0.296   3.760   0.706  0.1903 -0.6336  0.4560
17015SOL     OW52144   9.543   6.978   5.441 -0.1474  0.3760 -0.5839
17015SOL    HW152145   9.538   7.040   5.363  0.3248 -0.3154 -1.1805
17015SOL    HW252146   9.509   6.888   5.414 -6.3692  1.7499  1.8333
17016SOL     OW52147   1.041   3.645   4.907 -0.1895  0.9815 -0.0733
17016SOL    HW152148   0.981   3.663   4.985 -1.6033 -1.1925 -0.6030
17016SOL    HW252149   1.123   3.597   4.939 -0.2170  1.1418  0.2402
17017SOL     OW52150   4.306   6.318   4.267 -0.7097 -0.0460 -0.2729
17017SOL    HW152151   4.297   6.251   4.193 -0.5426 -0.1890 -0.1669
17017SOL    HW252152   4.218   6.330   4.313 -0.6495 -0.4964 -0.0361
17019SOL     OW52153   4.889   0.412   2.767  0.2573  0.3061  0.2470
17019SOL    HW152154   4.832   0.384   2.690  0.8920  1.3105 -0.5946
17019SOL    HW252155   4.832   0.422   2.849 -0.3666 -1.0673 -0.0119
17020SOL     OW52156   4.297   0.008   1.821 -0.3332 -0.1640  0.1947
17020SOL    HW152157   4.221  -0.028   1.876 -0.4663  0.1895  0.2411
17020SOL    HW252158   4.332   0.092   1.863  0.5006 -0.6685  0.5213
17021SOL     OW52159   1.829   5.359   3.667  0.1526  0.0007 -0.5681
17021SOL    HW152160   1.799   5.369   3.572  1.5690  1.5610 -0.8717
17021SOL    HW252161   1.777   5.422   3.725 -0.5280 -0.7653 -0.3388
17023SOL     OW52162   5.159   0.117   5.776  0.1658 -0.4366  0.0509
17023SOL    HW152163   5.236   0.053   5.776  0.3816 -0.2137 -1.9855
17023SOL    HW252164   5.076   0.068   5.749  0.3746  0.1769 -1.7423
17024SOL     OW52165   1.797   3.525   2.458 -0.9060 -0.1983  0.1270
17024SOL    HW152166   1.887   3.495   2.427 -0.7879 -0.0322  0.3000
17024SOL    HW252167   1.742   3.553   2.380 -0.8867 -0.5128 -0.0006
17025SOL     OW52168   9.968   2.780   3.092 -0.4226  0.0268  0.2688
17025SOL    HW152169   9.893   2.843   3.072 -0.5279  0.2138  1.2402
17025SOL    HW252170  10.003   2.742   3.006 -1.3238  0.2847 -0.2201
17026SOL     OW52171   6.610   0.270   2.606 -0.2280 -0.1789  0.1560
17026SOL    HW152172   6.565   0.356   2.631 -0.2022 -0.0079 -0.3936
17026SOL    HW252173   6.668   0.284   2.526  1.0476 -0.3218  1.0292
17027SOL     OW52174   7.172   8.162   2.574 -0.3786  0.0026  0.6389
17027SOL    HW152175   7.146   8.256   2.554  2.3349  0.5105 -0.7823
17027SOL    HW252176   7.148   8.104   2.496  1.7504  0.3205 -0.3024
17029SOL     OW52177   2.676   5.377   0.499  0.4714 -0.3931  0.3142
17029SOL    HW152178   2.713   5.385   0.591  0.7245  0.8314  0.1052
17029SOL    HW252179   2.736   5.319   0.444  1.3645  0.4741  0.3644
17030SOL     OW52180   2.360   5.870   4.199  0.0687  0.8161  0.0175
17030SOL    HW152181   2.299   5.844   4.274 -1.4082  0.9400 -1.1228
17030SOL    HW252182   2.407   5.789   4.164  0.2233  0.6477  0.6179
17031SOL     OW52183   5.221   8.295   6.725 -0.7923  0.0747  0.4524
17031SOL    HW152184   5.252   8.352   6.802 -0.1803  0.3572  0.0044
17031SOL    HW252185   5.194   8.354   6.649 -1.5426 -0.2012  0.5015
17032SOL     OW52186   8.963   8.101   4.554  0.6936  0.4036  0.5602
17032SOL    HW152187   9.026   8.179   4.562 -1.4143  2.0387  1.7408
17032SOL    HW252188   8.893   8.122   4.485 -0.4312 -0.0568  1.5524
17033SOL     OW52189   9.324   7.860   1.330  0.1522  0.1469 -0.6702
17033SOL    HW152190   9.298   7.846   1.235 -0.5522 -0.7276 -0.3539
17033SOL    HW252191   9.279   7.792   1.388  0.2896  0.8893  0.3354
17034SOL     OW52192   8.748   4.491   0.914  0.7345 -0.2791  0.4259
17034SOL    HW152193   8.694   4.547   0.852  0.2182 -0.9100  0.3047
17034SOL    HW252194   8.843   4.522   0.912  0.7492 -0.3642 -0.7649
17035SOL     OW52195   6.861   5.260   0.978 -0.7948  0.7499  0.5603
17035SOL    HW152196   6.897   5.259   0.885 -0.0155  1.8217  0.8377
17035SOL    HW252197   6.859   5.355   1.011  0.0018  0.2429  2.0543
17036SOL     OW52198   9.924   1.842   4.624 -0.5115 -0.3435  0.5519
17036SOL    HW152199   9.993   1.803   4.685  1.3165  1.4957 -0.3033
17036SOL    HW252200   9.913   1.783   4.544  0.0560 -0.6619  0.7032
17037SOL     OW52201   4.951   0.949   6.975  0.2487 -0.4758 -0.9141
17037SOL    HW152202   5.002   0.920   7.056  0.1321 -1.8296 -1.3014
17037SOL    HW252203   4.914   1.040   6.990  1.0134 -0.3294  0.1921
17039SOL     OW52204   6.473   1.660   1.636 -0.3284 -0.0059 -0.0501
17039SOL    HW152205   6.499   1.687   1.543 -0.8460 -2.4372 -0.9201
17039SOL    HW252206   6.375   1.678   1.649 -0.5257 -0.8411 -0.3959
17040SOL     OW52207   3.870   6.019   2.659 -0.2905 -0.5521 -0.3582
17040SOL    HW152208   3.941   5.963   2.616  0.2412  0.1751 -0.4296
17040SOL    HW252209   3.901   6.046   2.750  0.0682  0.8392 -0.8875
17041SOL     OW52210   4.233   4.227   5.937 -0.2638  0.0751  0.0049
17041SOL    HW152211   4.280   4.161   5.996  0.4180  0.2643 -0.3274
17041SOL    HW252212   4.160   4.271   5.989  0.3354  0.2438  0.7171
17042SOL     OW52213   9.388   8.208   3.992 -0.1722 -0.2708 -0.0058
17042SOL    HW152214   9.308   8.163   3.953 -0.7313  1.7698 -1.3006
17042SOL    HW252215   9.385   8.305   3.970  2.3051 -0.0426  0.5380
17043SOL     OW52216   9.298   9.540   5.650 -0.5620  0.4193 -0.1938
17043SOL    HW152217   9.235   9.489   5.708  0.0337 -0.4396 -0.2979
17043SOL    HW252218   9.275   9.525   5.554 -0.5891  0.5988 -0.2158
17045SOL     OW52219   1.204   2.535   5.578 -0.1892  0.2191 -0.3900
17045SOL    HW152220   1.245   2.610   5.528  0.2706 -1.6407 -2.9060
17045SOL    HW252221   1.189   2.562   5.673 -0.0002  3.4276 -1.2203
17046SOL     OW52222   8.167   4.160   4.719 -0.7042 -0.3246 -0.2224
17046SOL    HW152223   8.105   4.207   4.656  1.5850  1.2811 -1.3575
17046SOL    HW252224   8.173   4.063   4.695 -2.3720 -0.4149 -0.3699
17047SOL     OW52225   6.297   9.531   3.102  0.6423  0.5916 -0.1574
17047SOL    HW152226   6.251   9.593   3.166  0.9882  1.9583 -1.1898
17047SOL    HW252227   6.245   9.528   3.016  1.5910  0.8552 -0.7429
17048SOL     OW52228   0.459   0.321   1.138  0.4934 -0.4045 -0.2704
17048SOL    HW152229   0.430   0.315   1.042  1.1463  2.1043 -0.6618
17048SOL    HW252230   0.558   0.327   1.142  0.4271  0.1790  0.5250
17049SOL     OW52231   0.465   0.251   4.088 -0.1296  0.1102  0.6896
17049SOL    HW152232   0.462   0.170   4.148 -0.6183  0.2892  0.9076
17049SOL    HW252233   0.557   0.290   4.091  0.1092 -0.4414  0.5823
17050SOL     OW52234   1.737   4.789   5.206  0.3895  0.8278 -0.4646
17050SOL    HW152235   1.682   4.863   5.244  0.4068  0.2699  0.6725
17050SOL    HW252236   1.804   4.827   5.142 -0.6089  1.6221 -1.0449
17051SOL     OW52237   6.289   1.134   4.900  0.1515 -0.3552  0.1236
17051SOL    HW152238   6.274   1.127   4.999  1.1903  2.6263  0.5533
17051SOL    HW252239   6.269   1.227   4.870  4.5680  0.1624 -1.5756
17052SOL     OW52240   0.385   5.775   4.209  0.1532 -0.1075  0.2376
17052SOL    HW152241   0.473   5.761   4.253  1.4839  0.6975 -2.0981
17052SOL    HW252242   0.366   5.698   4.148 -1.0532 -0.5514  1.1347
17055SOL     OW52243   5.228   8.665   1.362 -0.0989  0.1284 -0.4764
17055SOL    HW152244   5.130   8.671   1.341 -0.4795 -0.2812  1.1260
17055SOL    HW252245   5.247   8.576   1.405  0.7803  0.6369  0.1959
17056SOL     OW52246   1.669   3.002   5.183 -0.0694 -0.0686 -0.1007
17056SOL    HW152247   1.739   2.946   5.228 -0.0070 -0.1009 -0.2359
17056SOL    HW252248   1.629   2.950   5.107  1.6647  0.9101 -1.7455
17057SOL     OW52249   7.399   6.323   0.793 -0.0868  0.0789 -0.0221
17057SOL    HW152250   7.397   6.401   0.856 -2.0383  1.8511 -2.1597
17057SOL    HW252251   7.344   6.249   0.829 -1.5041  1.2289  0.2053
17058SOL     OW52252   1.382   5.446   0.393  0.3930  0.1027  0.5298
17058SOL    HW152253   1.289   5.479   0.411  0.3993  0.7789 -0.6791
17058SOL    HW252254   1.412   5.388   0.470 -1.0986 -0.2960  0.8231
17059SOL     OW52255   5.611   0.819   2.313 -0.1529  0.2963 -1.4252
17059SOL    HW152256   5.601   0.755   2.237 -0.5982 -2.0590  0.5805
17059SOL    HW252257   5.662   0.776   2.387  2.5817  3.4660 -1.3510
17061SOL     OW52258   2.978   6.383   7.531  0.1803  0.2432  0.5121
17061SOL    HW152259   3.010   6.413   7.441 -1.7624  3.5873  0.8674
17061SOL    HW252260   2.926   6.298   7.521  0.2544  0.3962 -1.4622
17062SOL     OW52261   8.665   6.332   4.743 -0.3630 -0.4999  0.1886
17062SOL    HW152262   8.642   6.371   4.832 -1.3103 -0.7707  0.0728
17062SOL    HW252263   8.762   6.307   4.742 -0.5804 -1.4895  1.5279
17063SOL     OW52264   7.535   4.103   0.195  0.1015  0.5547  0.6446
17063SOL    HW152265   7.462   4.166   0.169 -0.2944  0.5741  1.7899
17063SOL    HW252266   7.516   4.064   0.285  1.0107 -0.1904  0.5258
17064SOL     OW52267   8.714   0.340   0.724 -0.1105  1.0447  0.5428
17064SOL    HW152268   8.745   0.305   0.635  0.9243  0.3450  1.1706
17064SOL    HW252269   8.788   0.334   0.790 -0.7745  1.8763  1.3827
17065SOL     OW52270   3.515   1.100   6.707  0.2675  0.1277 -0.2410
17065SOL    HW152271   3.567   1.018   6.733  1.1593  1.1711  1.3243
17065SOL    HW252272   3.516   1.109   6.607 -3.2520 -3.9545 -0.8199
17066SOL     OW52273   0.226   5.315   3.649  0.2121 -0.0685  0.1980
17066SOL    HW152274   0.137   5.358   3.629  0.3197  0.0474 -0.0276
17066SOL    HW252275   0.213   5.218   3.665  0.0387 -0.0457  0.2017
17067SOL     OW52276   7.141   6.616   2.492  0.7266 -0.3962  0.4893
17067SOL    HW152277   7.066   6.636   2.429  0.8068 -1.0808  0.1754
17067SOL    HW252278   7.110   6.633   2.586  0.8553  1.3772  0.2255
17068SOL     OW52279   2.854   6.494   3.248  0.3065 -0.5199 -0.1933
17068SOL    HW152280   2.936   6.484   3.191 -0.0419  0.6809 -0.9145
17068SOL    HW252281   2.784   6.543   3.197  0.2395  1.2002  1.5224
17069SOL     OW52282   6.127   0.227   6.009 -0.0245 -0.0272 -0.0531
17069SOL    HW152283   6.198   0.296   5.998  0.3562 -0.5080 -0.6049
17069SOL    HW252284   6.169   0.137   6.020 -0.5366 -0.2668 -0.0284
17070SOL     OW52285   8.275   2.152   2.140 -0.3789 -0.5605 -0.5551
17070SOL    HW152286   8.253   2.054   2.137 -0.6822 -0.4873 -0.7755
17070SOL    HW252287   8.368   2.166   2.106 -0.4961 -0.7280 -0.9557
17071SOL     OW52288   3.104   5.969   1.585 -1.1084  0.3489  0.5085
17071SOL    HW152289   3.042   5.923   1.649  1.3317 -1.7703  1.4684
17071SOL    HW252290   3.054   5.994   1.502 -3.5355 -0.0052  1.8087
17073SOL     OW52291   3.022   6.615   5.129  0.2822  0.7175 -0.3132
17073SOL    HW152292   2.939   6.559   5.127  1.2361 -0.7332  0.1336
17073SOL    HW252293   3.047   6.640   5.035  0.1018  0.0277 -0.5457
17076SOL     OW52294   3.807   9.647   6.735  0.1467 -0.4592  0.4132
17076SOL    HW152295   3.824   9.549   6.726  0.9750 -0.2018 -1.0245
17076SOL    HW252296   3.821   9.691   6.647 -0.6464  0.8992  0.9509
17077SOL     OW52297   8.904   0.862   7.154  0.2257 -0.2934 -0.6125
17077SOL    HW152298   8.891   0.952   7.196  1.0662 -0.8050  0.8133
17077SOL    HW252299   8.816   0.818   7.142  0.0339 -0.9213  2.4944
17078SOL     OW52300   6.350   0.930   6.645  0.1293  0.1378 -0.2003
17078SOL    HW152301   6.343   0.937   6.745 -0.2356 -0.1196 -0.2068
17078SOL    HW252302   6.340   1.021   6.605  0.0540  0.2136 -0.0123
17079SOL     OW52303   0.884   0.339   2.727 -0.3703 -0.0968  0.3179
17079SOL    HW152304   0.944   0.267   2.692 -3.1283 -1.7822 -1.0850
17079SOL    HW252305   0.890   0.340   2.827 -0.0290 -2.0586  0.3438
17080SOL     OW52306   7.239   0.197   7.020 -0.7499  0.2301 -0.0255
17080SOL    HW152307   7.291   0.111   7.018  0.2017  0.7627  1.0442
17080SOL    HW252308   7.254   0.246   6.934  1.2998  0.8062  0.6207
17081SOL     OW52309   5.037   8.596   5.198  0.3712 -0.4320  0.1789
17081SOL    HW152310   5.125   8.559   5.226 -0.1136 -1.3455  0.5103
17081SOL    HW252311   5.042   8.625   5.102  0.6768 -1.5816 -0.1537
17082SOL     OW52312   9.077   4.813   0.403  0.5110  0.0560  0.4035
17082SOL    HW152313   9.013   4.824   0.479 -0.2161  0.7670 -0.3051
17082SOL    HW252314   9.067   4.890   0.340  3.1392  0.9831  1.0585
17083SOL     OW52315   5.030   5.142   1.324 -0.4217 -0.5625 -0.1940
17083SOL    HW152316   5.122   5.182   1.316 -1.1243  0.6786 -2.3947
17083SOL    HW252317   4.981   5.188   1.398 -1.0325  2.3604 -2.3450
17084SOL     OW52318   6.239   3.094   2.783  0.3992  0.2102 -0.0850
17084SOL    HW152319   6.297   3.019   2.815  0.1426  0.6938  1.5439
17084SOL    HW252320   6.180   3.060   2.709  0.0967 -1.2770  0.8088
17085SOL     OW52321   2.015   0.750   3.503 -0.0624 -0.5503  0.1441
17085SOL    HW152322   1.985   0.669   3.452 -0.3619  0.0670 -0.6736
17085SOL    HW252323   2.025   0.827   3.440  1.1554 -0.1908  0.7647
17086SOL     OW52324   0.036   4.088   0.550 -0.0498 -0.1992  0.5377
17086SOL    HW152325  -0.035   4.044   0.494 -0.8984  1.4439  0.3064
17086SOL    HW252326   0.118   4.030   0.550 -0.6494 -1.0999 -0.9319
17087SOL     OW52327   1.566   5.913   3.769  0.4308  0.6288  0.2888
17087SOL    HW152328   1.649   5.859   3.758  0.3038  0.5309 -0.1876
17087SOL    HW252329   1.570   5.963   3.856  0.0205 -1.0473  1.3022
17088SOL     OW52330   5.170   6.686   2.290  0.3907  0.6515 -0.0168
17088SOL    HW152331   5.190   6.655   2.197 -1.4683  0.5561 -0.4039
17088SOL    HW252332   5.212   6.624   2.356 -0.7088 -0.9530 -0.8010
17089SOL     OW52333   4.733   1.243   6.594 -0.1422 -0.2761 -0.7812
17089SOL    HW152334   4.731   1.268   6.691  0.3344  2.3576 -1.4285
17089SOL    HW252335   4.820   1.198   6.573 -0.0460 -0.4145 -0.0948
17090SOL     OW52336   0.238   4.073   3.036 -0.6384  0.1865  0.5370
17090SOL    HW152337   0.259   4.168   3.057  0.3609 -0.2401  1.5625
17090SOL    HW252338   0.323   4.022   3.024 -1.1101 -0.9921  1.9748
17091SOL     OW52339   9.030   7.625   0.458 -0.0239 -0.4425  0.6096
17091SOL    HW152340   8.975   7.594   0.380  0.4710 -0.9728  0.4721
17091SOL    HW252341   9.105   7.562   0.473  1.1304  0.8147  0.1851
17092SOL     OW52342   3.457   4.767   3.591 -0.3212 -0.5082  0.0150
17092SOL    HW152343   3.501   4.683   3.621 -1.2222 -0.9796  0.0364
17092SOL    HW252344   3.436   4.761   3.493  0.4949  0.0915 -0.2082
17093SOL     OW52345   0.383   2.759   7.033 -0.4905  0.3071  0.0730
17093SOL    HW152346   0.417   2.665   7.039  0.7186  0.5854 -2.0439
17093SOL    HW252347   0.459   2.822   7.017 -1.4122  1.5585  0.4391
17094SOL     OW52348   0.852   9.719   1.000  0.3099  0.0133 -0.2264
17094SOL    HW152349   0.811   9.786   0.938 -0.2871  0.0780  0.2383
17094SOL    HW252350   0.951   9.729   0.998  0.2212  0.9510 -0.1159
17096SOL     OW52351   1.685   8.740   7.456  0.8482 -0.4699  0.0341
17096SOL    HW152352   1.606   8.689   7.424 -0.0799 -0.0520  1.5766
17096SOL    HW252353   1.737   8.774   7.378 -0.9724 -0.0263 -1.0164
17097SOL     OW52354   3.038   8.675   3.705  0.3912 -0.4220 -0.7140
17097SOL    HW152355   3.086   8.758   3.734 -1.6389  0.4837  0.1618
17097SOL    HW252356   2.962   8.700   3.646  0.5161 -1.7847 -1.4802
17099SOL     OW52357   2.330   4.584   2.806  0.1596  0.5160 -0.2544
17099SOL    HW152358   2.350   4.648   2.731  1.9915 -0.0243 -0.2490
17099SOL    HW252359   2.354   4.491   2.779  1.2822  0.3722  1.1610
17101SOL     OW52360   8.740   0.154   7.097 -0.1234  0.1073  0.0746
17101SOL    HW152361   8.725   0.194   7.188 -1.3296 -1.5806  0.6450
17101SOL    HW252362   8.651   0.133   7.056  0.4663 -0.4425 -0.9137
17102SOL     OW52363   2.852   9.094   7.694  0.0050 -0.3651  0.2359
17102SOL    HW152364   2.871   9.188   7.724  0.8817  0.1382 -1.7805
17102SOL    HW252365   2.907   9.074   7.612 -2.2283 -1.6882 -0.9866
17105SOL     OW52366   1.226   7.971   6.577  0.1339 -0.6884 -0.0197
17105SOL    HW152367   1.288   7.920   6.518  0.6662  0.0578 -0.1155
17105SOL    HW252368   1.248   8.068   6.572 -0.9510 -0.4317  0.0567
17106SOL     OW52369   4.323   1.436   1.593 -0.6987 -0.2885  1.0148
17106SOL    HW152370   4.371   1.484   1.519 -0.3513  0.9883  2.0349
17106SOL    HW252371   4.286   1.350   1.559 -0.9116  0.4792 -0.7549
17108SOL     OW52372   6.201   3.785   2.614 -0.4579 -0.0836  0.0022
17108SOL    HW152373   6.286   3.790   2.563 -0.8699 -2.4591 -0.9611
17108SOL    HW252374   6.123   3.782   2.551 -1.2312  1.2014  0.8556
17109SOL     OW52375   3.840   1.442   6.861  0.0317  0.3444 -0.6609
17109SOL    HW152376   3.758   1.413   6.911  0.0544  0.3217 -0.6365
17109SOL    HW252377   3.826   1.534   6.825 -1.0862 -0.7269 -3.0497
17110SOL     OW52378   0.901   3.997   5.869 -0.1983  0.7014  0.0523
17110SOL    HW152379   0.804   4.003   5.895 -0.1866  1.4716 -0.0614
17110SOL    HW252380   0.953   3.955   5.943 -0.6745 -0.0478 -0.0290
17111SOL     OW52381   7.549   0.785   4.084 -0.5669  0.5039 -0.0686
17111SOL    HW152382   7.457   0.751   4.103 -0.2223 -0.3818 -0.0042
17111SOL    HW252383   7.588   0.824   4.168 -0.4295 -0.1834  0.1889
17112SOL     OW52384   8.080   7.754   5.470 -0.6494 -0.3886 -0.1830
17112SOL    HW152385   7.996   7.808   5.463 -1.4208 -1.7266 -1.7212
17112SOL    HW252386   8.057   7.661   5.499  0.4515 -0.4434  0.5516
17113SOL     OW52387   9.091   2.331   4.148 -0.3033  1.1726  0.6179
17113SOL    HW152388   9.050   2.366   4.064 -0.3267 -0.1210  0.0857
17113SOL    HW252389   9.190   2.332   4.140 -0.3044 -3.1185 -1.2094
17114SOL     OW52390   1.283   4.526   2.404 -0.0355  0.1424 -0.7272
17114SOL    HW152391   1.186   4.551   2.408  0.0087  0.3451 -0.8824
17114SOL    HW252392   1.306   4.496   2.311 -0.3907 -1.7518 -0.2277
17115SOL     OW52393   4.512   2.994   6.059  0.8606 -0.1745  0.0600
17115SOL    HW152394   4.539   2.917   6.117  0.0979 -0.8931 -0.5309
17115SOL    HW252395   4.418   2.981   6.029  0.6925  1.0497  0.0437
17116SOL     OW52396   3.029   8.842   0.398  0.2248  0.3021  0.0196
17116SOL    HW152397   3.092   8.814   0.326  0.6389  1.5565 -0.1202
17116SOL    HW252398   3.016   8.942   0.395 -0.0864  0.3222  1.4008
17117SOL     OW52399   2.675   3.106   7.912  0.2295 -0.3946  0.0768
17117SOL    HW152400   2.584   3.069   7.934  0.5186 -0.5915  0.9579
17117SOL    HW252401   2.745   3.052   7.958  0.8093 -0.2894 -0.6660
17118SOL     OW52402   8.429   1.881   3.855  0.7650  0.0710  0.6355
17118SOL    HW152403   8.408   1.786   3.878 -0.4177  0.1613 -0.0621
17118SOL    HW252404   8.466   1.927   3.936 -1.8783 -0.0420  1.9699
17121SOL     OW52405   2.412   1.936   0.152 -0.4428  0.0789  0.6827
17121SOL    HW152406   2.474   1.882   0.096  0.0672  1.2756  0.0723
17121SOL    HW252407   2.436   1.925   0.248  0.3946  0.1382  0.4843
17122SOL     OW52408   9.611   4.680   3.795  0.2579 -0.1537  0.4683
17122SOL    HW152409   9.545   4.692   3.869 -0.4498 -0.4628 -0.1119
17122SOL    HW252410   9.604   4.757   3.731  1.1351  0.3123  0.9179
17123SOL     OW52411   0.949   0.150   1.458  0.5248 -0.3259  0.2622
17123SOL    HW152412   0.983   0.058   1.479 -0.9443 -0.6951  1.1048
17123SOL    HW252413   0.854   0.144   1.426  1.1484  0.6987 -1.8929
17125SOL     OW52414   2.803   2.934   4.152  0.0360  0.0387 -0.3022
17125SOL    HW152415   2.899   2.910   4.166  0.0363  0.3483  0.2292
17125SOL    HW252416   2.758   2.946   4.240 -0.0627  1.6187 -0.5436
17126SOL     OW52417   8.705   6.257   5.970 -0.2359  0.8952 -0.6791
17126SOL    HW152418   8.668   6.170   5.939 -0.0876  0.7403 -0.4229
17126SOL    HW252419   8.805   6.252   5.972 -0.2575  0.8044  0.1256
17128SOL     OW52420   7.551   8.063   3.124 -0.2647  0.5274 -0.4591
17128SOL    HW152421   7.594   8.119   3.053 -0.4797  0.3610 -0.7253
17128SOL    HW252422   7.525   8.120   3.201  0.2726  0.6573 -0.3726
17129SOL     OW52423   6.765   2.711   5.068  0.3021  0.4667 -0.0195
17129SOL    HW152424   6.787   2.797   5.113  1.1333  0.5239 -0.5251
17129SOL    HW252425   6.812   2.706   4.979  0.1906 -0.4598 -0.0366
17130SOL     OW52426   0.121   3.625   4.357 -0.2548 -0.1835  0.1440
17130SOL    HW152427   0.045   3.567   4.385 -0.2686  0.5581  1.6884
17130SOL    HW252428   0.207   3.577   4.372 -0.2716  0.1448  1.3133
17131SOL     OW52429   5.100   2.605   5.737 -0.4979  0.1676  0.1249
17131SOL    HW152430   5.038   2.651   5.675  0.4029 -1.7472 -2.2971
17131SOL    HW252431   5.051   2.532   5.785 -0.6469  0.1423 -0.0661
17132SOL     OW52432   2.549   8.741   0.102  0.3047 -0.1999  0.8267
17132SOL    HW152433   2.467   8.726   0.047  1.2527 -0.3064 -0.5819
17132SOL    HW252434   2.531   8.811   0.171 -0.7888  0.1840  0.1571
17133SOL     OW52435   2.171   2.463   4.764  0.1512  0.0336  0.3487
17133SOL    HW152436   2.243   2.427   4.823 -0.4121 -0.0045  1.0164
17133SOL    HW252437   2.090   2.405   4.771  0.1794 -0.1308 -0.6800
17134SOL     OW52438   4.542   5.115   0.141 -0.3131  0.2904  0.3841
17134SOL    HW152439   4.609   5.135   0.069 -1.0271  1.0518 -0.0867
17134SOL    HW252440   4.495   5.030   0.119  0.3075 -0.1003  0.5713
17135SOL     OW52441   9.581   2.959   2.288  0.0475  0.0248 -0.3093
17135SOL    HW152442   9.505   2.975   2.351 -0.7041  0.7171 -1.3705
17135SOL    HW252443   9.659   2.922   2.338 -1.1175 -1.0440  0.7254
17136SOL     OW52444   6.769   0.276   2.226  0.6024 -0.0754 -0.2668
17136SOL    HW152445   6.860   0.256   2.261  0.3559 -1.6607 -0.5048
17136SOL    HW252446   6.700   0.234   2.285  0.1119 -0.9037 -1.4034
17137SOL     OW52447   3.334   6.791   6.069  0.0343 -0.3911  0.6802
17137SOL    HW152448   3.395   6.868   6.055  0.8933 -1.0136  0.9519
17137SOL    HW252449   3.262   6.792   6.000  0.8964 -0.1777 -0.2201
17138SOL     OW52450   0.700   2.451   5.217 -0.0382 -0.1822  0.0287
17138SOL    HW152451   0.753   2.378   5.175  1.1728  0.0993  1.0181
17138SOL    HW252452   0.762   2.523   5.249 -1.0053  0.1077  1.2940
17139SOL     OW52453   8.224   6.980   7.141 -0.4529  0.2785 -0.5889
17139SOL    HW152454   8.299   6.997   7.206  0.3483  1.3988 -1.7704
17139SOL    HW252455   8.246   6.900   7.085 -1.4821 -1.1435  0.9721
17140SOL     OW52456   9.248   6.389   3.790 -0.4505 -0.0064 -0.4396
17140SOL    HW152457   9.341   6.353   3.793  0.1818  1.3947 -2.6322
17140SOL    HW252458   9.200   6.352   3.711 -0.8986  1.3123 -0.7957
17141SOL     OW52459   3.555   9.912   2.470 -0.0212 -0.1814 -0.2066
17141SOL    HW152460   3.523   9.835   2.415 -1.0926  0.7135 -0.8709
17141SOL    HW252461   3.482   9.942   2.532 -0.0400  1.0429 -0.7951
17142SOL     OW52462   2.581   3.152   7.344 -0.9187 -0.1530  0.7244
17142SOL    HW152463   2.550   3.080   7.282 -0.3957 -1.1270  1.5872
17142SOL    HW252464   2.651   3.116   7.406 -0.9965  0.9643  1.4822
17143SOL     OW52465   4.756   9.089   4.809 -0.8229  0.1094  0.0495
17143SOL    HW152466   4.726   9.023   4.878  0.4867  0.3933  0.9109
17143SOL    HW252467   4.794   9.170   4.854 -0.4365  0.5256 -1.0000
17144SOL     OW52468   3.672   9.222   7.877 -0.0719 -0.3018 -0.2457
17144SOL    HW152469   3.702   9.283   7.950 -0.0335 -0.8688  0.2148
17144SOL    HW252470   3.751   9.192   7.824 -0.0784 -0.0430 -0.4047
17147SOL     OW52471   9.394   0.096   5.284 -0.2105  0.0971 -0.4358
17147SOL    HW152472   9.368  -0.001   5.285 -0.2174  0.1034  0.9946
17147SOL    HW252473   9.402   0.127   5.189  0.4705 -1.4841 -0.9194
17148SOL     OW52474   1.095   2.291   2.757  0.7400 -0.5015 -0.1151
17148SOL    HW152475   1.150   2.291   2.840 -1.3038 -0.0025  1.2775
17148SOL    HW252476   1.002   2.259   2.778 -1.0128  3.4544 -1.3553
17149SOL     OW52477   2.797   8.294   5.977  0.6413  0.5984  0.4007
17149SOL    HW152478   2.786   8.234   5.898  1.0743 -0.2848  1.0090
17149SOL    HW252479   2.881   8.270   6.027  0.7827  1.6564  0.6900
17150SOL     OW52480   5.249   8.279   3.519 -0.1953  0.3636  0.2207
17150SOL    HW152481   5.158   8.319   3.506 -1.0866 -1.4312  0.8631
17150SOL    HW252482   5.244   8.180   3.509  2.0379  0.3852 -1.5833
17151SOL     OW52483   3.402   5.197   7.238 -0.0742 -0.3575  0.5539
17151SOL    HW152484   3.420   5.110   7.285 -2.2190 -0.3235  1.4921
17151SOL    HW252485   3.320   5.188   7.181  1.5127  0.1302 -1.8780
17153SOL     OW52486   2.807   5.496   7.865 -0.4618  0.4844  0.1582
17153SOL    HW152487   2.889   5.489   7.808 -1.1684  0.7878 -0.9278
17153SOL    HW252488   2.816   5.438   7.945  0.2651 -0.5312 -0.6485
17154SOL     OW52489   0.832   0.869   2.149 -0.1563  0.3396 -0.0095
17154SOL    HW152490   0.904   0.939   2.144 -1.5210  1.7264 -0.5046
17154SOL    HW252491   0.755   0.895   2.091 -1.0035 -1.2065  0.3878
17155SOL     OW52492   3.367   6.602   4.038  0.6864 -0.3661 -0.1918
17155SOL    HW152493   3.356   6.546   3.956  1.7383 -0.4151 -0.3028
17155SOL    HW252494   3.323   6.557   4.116 -2.7925  1.0048 -1.2733
17156SOL     OW52495   4.843   0.557   6.457 -0.0590 -0.8215 -0.2061
17156SOL    HW152496   4.867   0.654   6.452 -1.2937 -0.4703  0.4180
17156SOL    HW252497   4.926   0.503   6.472  0.5515  0.1890  0.1378
17157SOL     OW52498   6.422   4.601   7.920  0.5693  0.0743 -0.2846
17157SOL    HW152499   6.446   4.666   7.993  1.4228  1.9709 -2.2047
17157SOL    HW252500   6.506   4.563   7.881  0.1136 -0.8541 -0.3568
17158SOL     OW52501   1.849   9.014   7.612  0.2312  0.0642 -0.7050
17158SOL    HW152502   1.825   9.074   7.536 -2.2140 -1.3573 -1.1240
17158SOL    HW252503   1.924   8.954   7.585  1.1306  1.3471 -1.0777
17159SOL     OW52504   7.463   7.276   7.161 -0.1103 -0.2535 -0.1453
17159SOL    HW152505   7.559   7.278   7.187 -0.1732  0.5813  0.0490
17159SOL    HW252506   7.417   7.200   7.207  0.3227 -0.2954  0.2190
17160SOL     OW52507   6.443   9.623   5.457 -1.3079 -0.1405  0.1907
17160SOL    HW152508   6.433   9.552   5.386  2.4028  0.4709 -1.0781
17160SOL    HW252509   6.401   9.708   5.425  1.2054  0.4219 -1.8530
17161SOL     OW52510   6.634   2.130   1.463 -0.4942  0.3069 -0.5869
17161SOL    HW152511   6.617   2.226   1.481 -0.8219  0.6322 -2.5845
17161SOL    HW252512   6.548   2.079   1.465 -0.6750  0.5156 -2.1238
17162SOL     OW52513   2.223   8.859   2.057  0.0924 -0.2212 -0.2783
17162SOL    HW152514   2.131   8.892   2.078  0.1175 -0.8870  0.9255
17162SOL    HW252515   2.270   8.835   2.142  1.0694 -0.7054 -0.9431
17165SOL     OW52516   8.949   4.010   2.593 -0.0377 -0.6352  0.1447
17165SOL    HW152517   8.860   4.011   2.640 -0.0842  2.6564  0.0675
17165SOL    HW252518   8.995   3.923   2.612 -1.4310 -0.6926  3.7188
17166SOL     OW52519   0.425   4.812   5.358  0.2645  0.0254  0.2052
17166SOL    HW152520   0.383   4.752   5.290 -2.9232  0.6307  1.5348
17166SOL    HW252521   0.448   4.900   5.316 -3.2283  1.0157  0.1884
17169SOL     OW52522   9.696   8.884   4.732  0.0505  0.0103  0.2400
17169SOL    HW152523   9.667   8.788   4.733 -0.4892  0.1430 -1.1987
17169SOL    HW252524   9.657   8.931   4.811 -0.9353 -0.6130  0.1414
17170SOL     OW52525   6.293   0.693   5.582 -0.7147  0.0574  0.0732
17170SOL    HW152526   6.369   0.665   5.640 -1.3903  0.6541  1.2698
17170SOL    HW252527   6.272   0.790   5.598 -0.6853  0.3272 -1.4270
17172SOL     OW52528   8.727   6.611   2.339 -0.0466 -0.0555  0.6054
17172SOL    HW152529   8.779   6.602   2.424 -0.6736  2.0561  1.2384
17172SOL    HW252530   8.730   6.524   2.289  1.8050 -0.7913  1.9210
17173SOL     OW52531   4.946   4.466   7.205  0.0813 -0.5141 -0.5707
17173SOL    HW152532   5.000   4.463   7.121 -1.0056  0.8411 -1.3344
17173SOL    HW252533   4.867   4.405   7.197  1.3953 -2.4346  0.5163
17174SOL     OW52534   9.853   7.495   6.659 -0.1155  0.0973 -0.1541
17174SOL    HW152535   9.812   7.516   6.571 -0.4964  0.0853  0.0177
17174SOL    HW252536   9.781   7.470   6.724  0.0256  1.4617  0.5382
17175SOL     OW52537   2.144   4.696   0.026  0.5383 -0.6879 -0.2307
17175SOL    HW152538   2.205   4.715  -0.051  1.5310 -2.2974  0.1518
17175SOL    HW252539   2.169   4.609   0.069 -2.4807 -1.7776 -0.5264
17176SOL     OW52540   3.282   3.273   3.800  0.7406 -0.3605 -0.4533
17176SOL    HW152541   3.316   3.209   3.869  0.3323 -1.5725 -1.3549
17176SOL    HW252542   3.351   3.286   3.729  1.1679  0.8990  0.1834
17177SOL     OW52543   3.585   9.412   5.068 -0.0976  0.2516  0.3763
17177SOL    HW152544   3.606   9.503   5.103 -1.3623  0.2703  1.1559
17177SOL    HW252545   3.486   9.405   5.052  0.2796 -0.2547 -1.8348
17178SOL     OW52546   6.553   5.061   1.709  0.2502 -0.3643 -0.0886
17178SOL    HW152547   6.552   5.143   1.653 -1.1851 -1.1685 -1.2964
17178SOL    HW252548   6.555   5.086   1.806 -1.0795  1.1034 -0.4228
17179SOL     OW52549   9.150   2.422   2.877  0.2848  0.2703 -0.1634
17179SOL    HW152550   9.167   2.447   2.782 -0.1404 -2.7639 -1.0789
17179SOL    HW252551   9.196   2.336   2.898 -1.2619 -0.1146  1.7977
17181SOL     OW52552   3.674   1.606   5.126  0.6590  0.3667  0.5026
17181SOL    HW152553   3.699   1.515   5.160 -0.0559 -0.2713 -0.6409
17181SOL    HW252554   3.574   1.614   5.124  0.7218  1.0601  0.2942
17182SOL     OW52555   9.720   6.439   1.105  0.0813  0.1948 -0.0816
17182SOL    HW152556   9.646   6.493   1.144 -1.0548 -1.3612 -0.0199
17182SOL    HW252557   9.768   6.390   1.178 -0.0121 -0.2371 -0.3033
17183SOL     OW52558   1.655   9.101   7.202  0.1288  0.5211  0.3400
17183SOL    HW152559   1.687   9.130   7.292 -0.2185  0.5100  0.4710
17183SOL    HW252560   1.687   9.008   7.183  4.3208  2.2249 -1.6089
17184SOL     OW52561   4.761   8.459   6.338 -0.1261  0.5147  0.3226
17184SOL    HW152562   4.735   8.370   6.376  1.6231  0.2313  0.9329
17184SOL    HW252563   4.754   8.455   6.238 -0.2490 -0.2528  0.3546
17185SOL     OW52564   4.262   9.410   2.838 -0.3482 -0.5102  0.0889
17185SOL    HW152565   4.336   9.474   2.816 -1.2687  0.7568  0.6100
17185SOL    HW252566   4.270   9.382   2.934 -0.5894 -0.2898  0.1763
17186SOL     OW52567   6.282   5.438   1.656  0.0506  0.6065  0.1372
17186SOL    HW152568   6.313   5.417   1.749  0.1335 -0.7060 -0.1845
17186SOL    HW252569   6.342   5.507   1.616  1.6053 -0.7174  0.1187
17187SOL     OW52570   3.806   7.909   1.816 -0.2098  0.3354 -0.1850
17187SOL    HW152571   3.849   7.892   1.905  0.6915  1.6232 -0.3555
17187SOL    HW252572   3.724   7.854   1.808 -0.5419  0.5286  1.6382
17188SOL     OW52573   9.307   7.058   5.865  0.5795 -0.1009  0.3427
17188SOL    HW152574   9.359   7.135   5.903  0.9467 -0.6928  1.0616
17188SOL    HW252575   9.257   7.088   5.784  1.4432  0.6694  0.0855
17190SOL     OW52576   2.745   1.035   1.151  0.2954  0.3672  0.1167
17190SOL    HW152577   2.656   1.071   1.179  0.0280 -0.1245 -0.1039
17190SOL    HW252578   2.754   0.941   1.181  0.1057 -0.0902 -1.2217
17191SOL     OW52579   8.780   6.322   0.658 -0.2239  0.1784 -0.6352
17191SOL    HW152580   8.682   6.336   0.672  0.0657  2.5244 -0.7117
17191SOL    HW252581   8.796   6.230   0.623 -2.4059 -0.1877 -0.7409
17193SOL     OW52582   9.231   1.703   7.460  0.0534  0.0782 -0.1516
17193SOL    HW152583   9.301   1.760   7.417  0.5863  0.9600  1.7964
17193SOL    HW252584   9.264   1.609   7.469  0.1846  0.0359 -1.0532
17194SOL     OW52585   2.921   0.658   2.360  0.0640 -0.3240  0.6036
17194SOL    HW152586   2.919   0.752   2.325  1.3972  0.0262  1.4695
17194SOL    HW252587   2.856   0.649   2.436 -0.1320 -0.1359  0.4593
17196SOL     OW52588   4.096   9.733   6.472  0.0621  0.2422  0.2381
17196SOL    HW152589   4.024   9.781   6.522  1.3092  0.1532  2.2062
17196SOL    HW252590   4.075   9.635   6.469  0.0976  0.2153  0.8172
17197SOL     OW52591   2.358   7.184   3.900 -0.2027  0.4781 -0.0480
17197SOL    HW152592   2.300   7.156   3.976  1.5908  2.0250  1.9630
17197SOL    HW252593   2.404   7.104   3.862 -2.4503 -0.5448 -0.6646
17198SOL     OW52594   5.115   8.608   3.615 -0.2008  0.3562  0.0650
17198SOL    HW152595   5.085   8.519   3.581 -0.5722 -0.0568  1.4641
17198SOL    HW252596   5.211   8.602   3.643 -0.6950 -0.0602  1.7195
17200SOL     OW52597   9.901   7.624   1.651  0.6184 -0.5942  0.1436
17200SOL    HW152598   9.947   7.568   1.719 -0.4550 -1.8842 -0.1686
17200SOL    HW252599   9.815   7.580   1.624 -1.6084  2.4817  1.8807
17201SOL     OW52600   5.586   0.629   6.095 -0.1507 -0.3063  0.5875
17201SOL    HW152601   5.650   0.706   6.091  0.3363 -0.7344  0.0963
17201SOL    HW252602   5.635   0.544   6.079 -0.5319 -0.8208  2.1130
17203SOL     OW52603   3.835   1.102   0.837  0.5637  0.5203  0.5187
17203SOL    HW152604   3.881   1.142   0.758  0.3776  1.7135  1.0015
17203SOL    HW252605   3.764   1.039   0.806  1.9527 -0.6814 -0.2363
17204SOL     OW52606   3.261   6.286   4.787 -0.1245 -0.1602  0.2274
17204SOL    HW152607   3.299   6.374   4.816  0.6986 -0.6574  0.6940
17204SOL    HW252608   3.222   6.239   4.866  0.6533 -0.7995  0.2405
17205SOL     OW52609   2.505   2.645   0.975 -0.7172  0.1022  0.4908
17205SOL    HW152610   2.465   2.674   0.888 -0.4301  0.7070  0.5592
17205SOL    HW252611   2.589   2.698   0.992  0.4794 -1.5886  0.0244
17206SOL     OW52612   6.794   8.271   6.434  0.7333  0.9971 -0.6041
17206SOL    HW152613   6.806   8.316   6.346 -1.2988 -0.3731 -1.6010
17206SOL    HW252614   6.820   8.175   6.427  2.1877  1.2628  0.7572
17207SOL     OW52615   3.403   0.798   0.997 -0.0976  0.3176 -0.2911
17207SOL    HW152616   3.482   0.857   1.015  1.0781 -1.3093  0.0795
17207SOL    HW252617   3.342   0.800   1.076  0.3575  0.4223  0.0658
17209SOL     OW52618   4.617   6.858   2.970  0.5155  0.4434  0.2161
17209SOL    HW152619   4.556   6.863   3.048 -1.4889 -0.1182 -1.2773
17209SOL    HW252620   4.689   6.927   2.980 -1.0380  1.9394  1.4396
17210SOL     OW52621   9.357   0.127   3.467 -0.1988  0.6512 -0.8119
17210SOL    HW152622   9.334   0.169   3.554 -0.0019 -1.1675  0.1461
17210SOL    HW252623   9.452   0.096   3.469 -0.4898 -0.2913 -1.3076
17211SOL     OW52624   2.417   3.704   6.939  0.3030 -1.0144 -0.1171
17211SOL    HW152625   2.440   3.669   6.848  0.9690  0.9308 -0.7124
17211SOL    HW252626   2.423   3.804   6.939  1.2007 -1.0391  2.3080
17212SOL     OW52627   1.927   7.013   2.142 -0.4482  0.1693  0.1424
17212SOL    HW152628   1.925   7.093   2.202 -0.8713  1.4474 -1.5230
17212SOL    HW252629   1.982   6.941   2.184  0.8487  1.7266  1.1709
17213SOL     OW52630   3.238   6.317   0.553 -0.2133 -0.3330 -0.2719
17213SOL    HW152631   3.171   6.390   0.540 -1.9327 -1.9572 -0.8298
17213SOL    HW252632   3.265   6.313   0.650 -1.5222 -0.1516  0.1129
17215SOL     OW52633   0.137   6.935   0.592 -0.5260 -0.0483 -0.0937
17215SOL    HW152634   0.118   7.027   0.559  0.2502  0.4019  0.7058
17215SOL    HW252635   0.210   6.938   0.660 -0.4923 -1.2545 -0.0649
17216SOL     OW52636   4.393   4.480   1.892  0.4147 -0.3703  0.7425
17216SOL    HW152637   4.473   4.433   1.854  1.6832  0.6922  2.0639
17216SOL    HW252638   4.349   4.533   1.819  1.5784 -0.0590  0.2490
17217SOL     OW52639   9.938   3.743   1.358 -0.4436 -0.1894  0.4697
17217SOL    HW152640   9.971   3.650   1.344 -0.8569 -0.1686 -0.7207
17217SOL    HW252641   9.901   3.751   1.451  0.3488 -0.9718  0.8664
17218SOL     OW52642   0.737   5.291   6.904  0.0196 -0.2882 -0.0239
17218SOL    HW152643   0.670   5.257   6.970 -1.0476 -0.0501 -0.9618
17218SOL    HW252644   0.796   5.359   6.947 -0.3585 -0.4853  0.8049
17219SOL     OW52645   0.884   7.521   4.092  0.4356  0.2920 -0.1108
17219SOL    HW152646   0.899   7.475   4.004  0.4323  1.2482 -0.6171
17219SOL    HW252647   0.787   7.542   4.102  0.4231  0.1002  0.1618
17220SOL     OW52648   0.152   7.971   7.887  0.5698  0.2016 -0.2883
17220SOL    HW152649   0.058   7.986   7.919  1.4116  1.7576  1.5362
17220SOL    HW252650   0.217   8.007   7.954  2.5245 -1.9805 -0.9323
17222SOL     OW52651   0.397   0.778   3.156  0.1483  0.2153  0.0557
17222SOL    HW152652   0.496   0.792   3.162 -0.1402  1.6234  2.5492
17222SOL    HW252653   0.377   0.680   3.158  1.4429 -0.0472  0.6670
17223SOL     OW52654   4.570   1.504   0.333  0.2313 -0.2930  0.7359
17223SOL    HW152655   4.478   1.544   0.330 -0.0026 -0.8987 -0.3273
17223SOL    HW252656   4.604   1.492   0.240  1.3979 -0.0728  1.1250
17224SOL     OW52657   9.858   1.797   1.578  0.4298  0.1860 -0.0810
17224SOL    HW152658   9.937   1.764   1.630  2.0230  3.4905 -0.3058
17224SOL    HW252659   9.799   1.851   1.638 -1.8067 -2.3953  0.1287
17226SOL     OW52660   4.968   3.191   1.609 -0.1833  0.5718 -0.6427
17226SOL    HW152661   4.987   3.133   1.687 -1.3543 -0.4344 -1.0906
17226SOL    HW252662   4.877   3.233   1.620  0.3127  1.6789 -0.7041
17227SOL     OW52663   4.697   0.619   7.645 -0.4718 -0.5333 -0.2889
17227SOL    HW152664   4.680   0.632   7.547  0.4834 -0.6046 -0.4758
17227SOL    HW252665   4.628   0.557   7.683 -1.4738  0.3375 -0.6820
17228SOL     OW52666   6.951   6.533   2.302 -0.3550 -0.0580 -0.0262
17228SOL    HW152667   6.966   6.434   2.292  0.1511 -0.0524  0.6277
17228SOL    HW252668   6.862   6.557   2.263  0.1379 -0.5400 -1.4518
17230SOL     OW52669   3.154   3.908   7.932 -0.0567  0.0515  0.6004
17230SOL    HW152670   3.143   3.890   7.834 -0.9238 -1.6190  0.9924
17230SOL    HW252671   3.069   3.948   7.967  0.7600  2.0349  0.3915
17232SOL     OW52672   8.001   7.192   2.268  0.0803  0.2422  0.0139
17232SOL    HW152673   7.925   7.216   2.328  0.2229 -0.8178  0.6273
17232SOL    HW252674   8.078   7.157   2.322  0.0786 -1.0683 -0.7981
17233SOL     OW52675   9.103   8.592   2.964  0.9830 -0.3930 -0.3553
17233SOL    HW152676   9.034   8.589   3.037  1.9102  0.7073  0.5729
17233SOL    HW252677   9.057   8.579   2.875 -0.2612 -0.8889  0.3405
17234SOL     OW52678   7.781   1.035   0.800 -0.4136 -0.1392 -0.4464
17234SOL    HW152679   7.767   0.963   0.868 -0.2868 -0.5800 -0.8873
17234SOL    HW252680   7.725   1.016   0.720 -0.6946  0.4739 -0.4000
17235SOL     OW52681   0.271   5.320   6.009  0.0516 -0.0793 -0.1202
17235SOL    HW152682   0.227   5.328   5.919  0.2746  0.1963 -0.2059
17235SOL    HW252683   0.273   5.224   6.037 -2.5975  0.1333  0.8854
17236SOL     OW52684   5.194   1.579   0.606 -0.5094 -0.0720 -0.5517
17236SOL    HW152685   5.149   1.490   0.615 -0.1923 -0.0569  1.4919
17236SOL    HW252686   5.282   1.567   0.559 -0.2696 -0.9137  0.0970
17237SOL     OW52687   8.720   0.982   1.468 -0.7465  0.2158 -0.4558
17237SOL    HW152688   8.777   0.942   1.539 -0.5059  1.7098  0.2030
17237SOL    HW252689   8.751   0.950   1.378 -1.6476 -2.4209  0.1416
17238SOL     OW52690   9.664   8.631   2.163 -0.9013 -0.0971 -0.3489
17238SOL    HW152691   9.680   8.544   2.209  0.8742 -0.0739 -0.8729
17238SOL    HW252692   9.622   8.696   2.226  0.0677 -0.5631  0.7857
17240SOL     OW52693   2.474   3.511   0.747  0.4049  0.0434 -0.7192
17240SOL    HW152694   2.511   3.487   0.837 -2.9601 -0.9506  0.4630
17240SOL    HW252695   2.453   3.428   0.696  1.2176  0.6055 -1.9878
17241SOL     OW52696   3.591   8.784   3.968  0.7017 -0.2330  0.0626
17241SOL    HW152697   3.494   8.767   3.952  0.8152 -1.2890  0.4281
17241SOL    HW252698   3.602   8.852   4.041  0.2335  0.7467 -0.7702
17242SOL     OW52699   2.250   1.693   7.941 -0.1879  0.3493 -0.1951
17242SOL    HW152700   2.268   1.618   7.877 -1.4644 -0.5925  0.5077
17242SOL    HW252701   2.317   1.766   7.928  0.0620 -0.1878 -2.0412
17243SOL     OW52702   0.446   0.117   3.214 -0.6100 -0.4301 -0.5307
17243SOL    HW152703   0.432   0.141   3.118 -1.8827  1.2296  0.0533
17243SOL    HW252704   0.511   0.181   3.255  0.7299 -1.7521 -0.5131
17244SOL     OW52705   6.094   7.886   3.337  0.3414  0.7148  0.2129
17244SOL    HW152706   6.103   7.972   3.388 -0.1302  0.7580  0.2218
17244SOL    HW252707   6.185   7.855   3.309  0.6550  0.4213  1.5165
17245SOL     OW52708   1.172   1.035   7.848  0.3318  0.1796  0.4781
17245SOL    HW152709   1.201   1.131   7.847 -0.8188  0.5426  1.1716
17245SOL    HW252710   1.073   1.030   7.847  0.3869 -1.0128  0.3361
17246SOL     OW52711   5.697   3.066   0.554 -0.2779 -0.3649 -0.1638
17246SOL    HW152712   5.730   2.975   0.529 -0.4391 -0.5467  0.2667
17246SOL    HW252713   5.597   3.067   0.553 -0.3210 -0.6653  1.3994
17248SOL     OW52714   8.090   4.331   5.373 -0.2557  0.1474  0.1273
17248SOL    HW152715   8.084   4.309   5.276  2.5671 -1.3442  0.2378
17248SOL    HW252716   8.158   4.402   5.388 -0.8867  0.5848  0.9770
17249SOL     OW52717   1.261   0.529   2.666  0.7490  0.3001 -0.0353
17249SOL    HW152718   1.323   0.600   2.699  1.0430  0.5295 -1.0514
17249SOL    HW252719   1.174   0.571   2.639  2.1848  0.8708 -4.1256
17250SOL     OW52720   4.586   0.888   6.093  0.0687  0.8362  0.2290
17250SOL    HW152721   4.590   0.986   6.073 -0.6209  1.3224  2.3353
17250SOL    HW252722   4.624   0.837   6.016 -0.2101  2.7150 -1.1956
17252SOL     OW52723   9.946   2.414   4.874  0.0226 -0.2104 -0.1404
17252SOL    HW152724  10.013   2.369   4.814  0.3951 -0.3722  0.3955
17252SOL    HW252725   9.875   2.350   4.899  0.5416 -0.4959  0.6066
17253SOL     OW52726   6.825   2.488   0.744  0.1324  0.1596 -0.0539
17253SOL    HW152727   6.793   2.581   0.724  0.6973  0.3863  0.0812
17253SOL    HW252728   6.841   2.479   0.842 -0.8356 -0.3782  0.0648
17254SOL     OW52729   2.416   1.497   3.512  0.1240 -0.6140  0.3856
17254SOL    HW152730   2.423   1.592   3.482  0.8854 -0.1547  1.9656
17254SOL    HW252731   2.341   1.487   3.577 -1.1541 -1.4875 -1.1913
17255SOL     OW52732   2.161   1.526   3.616  0.0769  0.3268  0.3516
17255SOL    HW152733   2.126   1.609   3.659  0.9084  0.9446 -0.1475
17255SOL    HW252734   2.109   1.447   3.649 -1.5866  1.1763 -0.1783
17256SOL     OW52735   4.700   4.296   2.563 -0.1752 -0.3866  0.1645
17256SOL    HW152736   4.745   4.236   2.498  1.0229 -0.2165  0.8118
17256SOL    HW252737   4.601   4.295   2.548  0.0541 -0.6277 -1.4044
17257SOL     OW52738   8.573   5.088   1.212  0.0793 -0.2421  0.3300
17257SOL    HW152739   8.483   5.117   1.243  0.3662  1.0353 -0.0054
17257SOL    HW252740   8.644   5.139   1.261  0.5970 -0.5730 -0.0640
17258SOL     OW52741   2.230   1.625   1.361  0.1176  0.3571  0.1236
17258SOL    HW152742   2.248   1.573   1.445  2.1812  0.7807 -0.0172
17258SOL    HW252743   2.218   1.561   1.285  2.0302  0.0149  0.0647
17259SOL     OW52744   5.835   0.962   6.472  0.1467  0.2747 -0.1534
17259SOL    HW152745   5.804   1.053   6.443 -0.9957 -0.6441 -1.9565
17259SOL    HW252746   5.865   0.965   6.567 -3.5356  1.7363  1.0400
17262SOL     OW52747   3.504   7.171   6.384 -0.0471 -0.3615  0.4086
17262SOL    HW152748   3.423   7.142   6.334 -0.2262  0.3174  0.2949
17262SOL    HW252749   3.483   7.178   6.482 -0.1344 -0.1715  0.3773
17264SOL     OW52750   0.983   9.500   5.957  0.2053  0.4409 -0.8210
17264SOL    HW152751   0.898   9.517   5.907  1.3302  1.4543 -2.4227
17264SOL    HW252752   1.032   9.586   5.969  2.1517 -0.4803 -2.0204
17265SOL     OW52753   2.286   1.290   7.190  0.1289  0.3089  0.5823
17265SOL    HW152754   2.265   1.229   7.113  2.5546  0.1401  0.0260
17265SOL    HW252755   2.339   1.368   7.157  3.5563 -1.1213  2.4362
17266SOL     OW52756   8.374   6.111   4.471 -0.0659 -0.1183  0.4577
17266SOL    HW152757   8.310   6.074   4.538  1.8544 -1.6322  1.5209
17266SOL    HW252758   8.399   6.204   4.497  0.9717 -0.8309  2.1202
17267SOL     OW52759   2.759   0.890   7.203 -0.6112  0.2205  0.0135
17267SOL    HW152760   2.807   0.857   7.122 -1.5762  1.8871 -1.2828
17267SOL    HW252761   2.825   0.909   7.276  0.2431 -1.4451 -0.3107
17268SOL     OW52762   1.934   8.026   0.932  0.2206 -0.0295  0.0907
17268SOL    HW152763   1.974   7.936   0.915  0.1498 -0.0923  0.2520
17268SOL    HW252764   1.846   8.015   0.977 -0.0063  0.1067 -0.3219
17269SOL     OW52765   8.149   5.255   3.994 -0.5265 -0.0335  0.4802
17269SOL    HW152766   8.159   5.233   3.897 -2.1743 -1.1051  0.5307
17269SOL    HW252767   8.070   5.315   4.007 -1.1995 -1.0750  1.3037
17270SOL     OW52768   7.927   0.397   4.293 -0.0441  0.2979  0.6317
17270SOL    HW152769   7.831   0.417   4.273 -0.1816 -0.1396  0.8656
17270SOL    HW252770   7.937   0.303   4.324  0.6310 -0.0335 -0.5419
17271SOL     OW52771   8.411   9.015   4.548  0.3850  0.4943 -0.1158
17271SOL    HW152772   8.477   9.078   4.589  0.9573 -0.0327 -0.2138
17271SOL    HW252773   8.318   9.045   4.569  0.6564  1.1882  0.1075
17273SOL     OW52774   7.238   9.732   7.872  0.1378 -0.7866  0.1941
17273SOL    HW152775   7.218   9.661   7.805 -0.7989 -0.6078  0.2806
17273SOL    HW252776   7.160   9.794   7.880  2.0920  2.1877 -2.2941
17274SOL     OW52777   9.407   2.715   2.592  0.6214 -0.4420 -0.4146
17274SOL    HW152778   9.435   2.752   2.681  2.1410 -1.7447 -0.3223
17274SOL    HW252779   9.354   2.631   2.607  1.1597 -0.8390 -0.7643
17275SOL     OW52780   8.070   0.269   0.590  0.2280 -0.2492  0.3426
17275SOL    HW152781   8.094   0.309   0.502 -1.5901 -0.5363 -0.2952
17275SOL    HW252782   8.147   0.215   0.624  1.4315  0.9689 -0.4153
17276SOL     OW52783   1.000   5.529   6.336 -0.3284  0.4432  0.0426
17276SOL    HW152784   0.966   5.573   6.253 -0.7225  1.2279  0.6184
17276SOL    HW252785   0.951   5.443   6.350  0.3370 -0.1168 -1.0004
17278SOL     OW52786   1.132   8.983   0.395 -0.0090  0.0696 -0.0338
17278SOL    HW152787   1.052   8.938   0.433  0.8783 -0.4720  1.2516
17278SOL    HW252788   1.173   9.042   0.465 -1.5490  3.4785 -1.8665
17280SOL     OW52789   6.513   9.608   3.252 -0.1949 -0.1719 -0.1950
17280SOL    HW152790   6.460   9.687   3.284 -0.1634  0.3927 -1.4835
17280SOL    HW252791   6.455   9.551   3.193  0.1669 -0.3918 -0.3389
17282SOL     OW52792   2.452   9.562   2.832 -0.4973  0.1633 -0.3256
17282SOL    HW152793   2.390   9.526   2.901 -0.8769 -0.4626 -0.9859
17282SOL    HW252794   2.421   9.533   2.741  0.4906  0.2415 -0.6911
17283SOL     OW52795   1.720   1.094   6.756 -0.2077  0.1206  0.6151
17283SOL    HW152796   1.734   1.175   6.699  0.0124 -0.4206 -0.1020
17283SOL    HW252797   1.661   1.118   6.833 -0.2064  0.9446  0.3698
17284SOL     OW52798   2.324   7.765   4.357 -0.1583  0.3378  0.2847
17284SOL    HW152799   2.378   7.705   4.297  0.4048  0.5801  0.5487
17284SOL    HW252800   2.340   7.741   4.452  2.4803  2.8928  0.5539
17286SOL     OW52801   3.466   7.682   4.394  0.0967 -0.0269  0.3912
17286SOL    HW152802   3.483   7.768   4.345 -1.1476 -0.2039 -0.3664
17286SOL    HW252803   3.537   7.669   4.463  0.5438  1.3931  0.2219
17287SOL     OW52804   8.266   8.821   5.284  0.1172 -0.8108 -0.0068
17287SOL    HW152805   8.281   8.865   5.372 -1.2707 -0.1908 -0.0696
17287SOL    HW252806   8.218   8.734   5.297 -0.7316 -0.3798 -0.1922
17288SOL     OW52807   5.822   9.163   3.438  0.4726 -0.6396 -0.1807
17288SOL    HW152808   5.908   9.181   3.391  0.9594  0.4370  1.0863
17288SOL    HW252809   5.838   9.099   3.514 -0.1135 -1.5750 -0.8417
17289SOL     OW52810   8.981   5.283   4.435 -0.2610  0.7410  0.2325
17289SOL    HW152811   8.885   5.285   4.406 -0.5839 -0.3466  1.1742
17289SOL    HW252812   9.032   5.219   4.377  0.2672  2.4950 -1.2931
17290SOL     OW52813   6.310   4.809   0.489  0.4473  0.1490 -0.2678
17290SOL    HW152814   6.233   4.859   0.530 -0.1098 -0.2876 -0.7710
17290SOL    HW252815   6.326   4.842   0.396 -1.7084 -2.4478 -1.6321
17291SOL     OW52816   3.503   9.283   2.166  0.7229 -0.0390 -0.2427
17291SOL    HW152817   3.520   9.320   2.074  0.9931 -0.3964 -0.3402
17291SOL    HW252818   3.589   9.282   2.217  0.3662  1.2217  0.4144
17294SOL     OW52819   4.613   5.184   1.146  0.2806  0.1028  0.1164
17294SOL    HW152820   4.612   5.090   1.114 -2.4503  0.4160 -0.8576
17294SOL    HW252821   4.570   5.243   1.077  0.9372  1.8868  1.1958
17295SOL     OW52822   4.671   8.961   2.246  0.3009 -0.0016 -0.2436
17295SOL    HW152823   4.714   9.006   2.168  0.8450 -0.3872 -0.1722
17295SOL    HW252824   4.686   9.015   2.328  0.9097 -0.2820 -0.1667
17296SOL     OW52825   9.224   0.562   6.930 -0.4669  0.2615  0.1563
17296SOL    HW152826   9.177   0.484   6.971  0.4544  0.2690  1.2246
17296SOL    HW252827   9.168   0.644   6.941 -0.0735  0.3320  1.7025
17297SOL     OW52828   0.930   4.438   3.694 -0.0805  0.0434  0.3040
17297SOL    HW152829   0.973   4.352   3.665 -0.7005 -0.7050  1.5510
17297SOL    HW252830   0.849   4.417   3.749 -2.8491  1.4117 -3.0533
17298SOL     OW52831   1.577   9.063   3.437  0.3470  0.1188  0.0009
17298SOL    HW152832   1.666   9.043   3.397 -0.0441 -0.6425 -0.4981
17298SOL    HW252833   1.505   9.024   3.380 -0.2950  0.4852  0.5496
17299SOL     OW52834   6.391   2.342   1.954 -0.1130  0.3276 -0.1269
17299SOL    HW152835   6.307   2.387   1.983 -0.1525  0.3663 -0.3011
17299SOL    HW252836   6.380   2.306   1.862 -0.4518 -1.0091  0.4332
17300SOL     OW52837   9.413   7.407   5.400 -0.4148  0.8302 -0.1908
17300SOL    HW152838   9.380   7.333   5.341  3.8229  0.9279 -2.9398
17300SOL    HW252839   9.437   7.371   5.490  0.1902 -0.8961 -1.0272
17301SOL     OW52840   2.696   7.082   3.581  0.0503 -0.1520  0.0961
17301SOL    HW152841   2.787   7.064   3.619  0.2439  0.0204 -0.2771
17301SOL    HW252842   2.685   7.180   3.564 -0.7245  0.0005  1.4320
17302SOL     OW52843   0.106   3.827   3.353 -0.5062 -0.0285 -0.0335
17302SOL    HW152844   0.067   3.848   3.263  0.5683 -0.9628 -0.7399
17302SOL    HW252845   0.032   3.808   3.418 -1.2943  0.7036 -0.6988
17303SOL     OW52846   0.431   1.291   4.559  0.5165  0.1199 -0.1779
17303SOL    HW152847   0.438   1.284   4.659 -2.3403 -1.1710 -0.0106
17303SOL    HW252848   0.382   1.374   4.535 -0.5725 -0.5809 -0.4060
17304SOL     OW52849   0.710   4.829   2.966 -0.4256 -0.2945 -0.2143
17304SOL    HW152850   0.791   4.878   2.998 -1.1866 -0.5057  2.2084
17304SOL    HW252851   0.629   4.869   3.010 -1.2054 -2.6540  0.5518
17305SOL     OW52852   1.401   1.137   1.192  0.1456 -0.3866 -0.2479
17305SOL    HW152853   1.345   1.201   1.138  1.7619  1.8591  0.6497
17305SOL    HW252854   1.391   1.159   1.289  1.0245 -1.2572  0.0410
17306SOL     OW52855   1.950   4.055   3.184 -0.5150 -0.2754  0.2889
17306SOL    HW152856   1.959   3.957   3.201 -1.5773 -0.5968 -0.9616
17306SOL    HW252857   1.865   4.089   3.224  0.2014  0.3101  1.3710
17308SOL     OW52858   5.795   1.935   6.191  0.0746  0.4802  0.4219
17308SOL    HW152859   5.803   1.911   6.094 -0.6700  2.1185 -0.0676
17308SOL    HW252860   5.854   1.876   6.245  3.0747  1.6965 -1.3955
17309SOL     OW52861   0.107   5.553   3.105 -0.4736 -0.1844 -0.1463
17309SOL    HW152862   0.039   5.593   3.167 -1.9762  0.7132 -2.3354
17309SOL    HW252863   0.070   5.470   3.064  0.5591 -0.8242  0.1935
17311SOL     OW52864   6.821   2.792   2.333  0.0213  0.6013 -0.2774
17311SOL    HW152865   6.877   2.788   2.250 -0.6510 -0.5673 -0.6809
17311SOL    HW252866   6.876   2.761   2.411  0.3310  0.6960 -0.4560
17312SOL     OW52867   2.095   6.722   5.568 -0.6623  0.0382 -0.3030
17312SOL    HW152868   2.148   6.736   5.652 -0.7241  0.2600 -0.2989
17312SOL    HW252869   2.135   6.774   5.493  0.3027 -1.4050 -0.7992
17313SOL     OW52870   9.385   5.534   3.290 -0.5168 -0.2250  0.5199
17313SOL    HW152871   9.382   5.500   3.197 -0.0025 -1.9828  1.1340
17313SOL    HW252872   9.317   5.487   3.346  0.7677 -0.8804  1.5728
17314SOL     OW52873   4.288   9.772   4.055 -0.0994  0.0636  0.2605
17314SOL    HW152874   4.330   9.840   3.995 -1.2153  1.0794  0.6077
17314SOL    HW252875   4.231   9.710   4.000  0.8325 -0.5324 -0.0422
17315SOL     OW52876   5.196   8.990   1.400 -0.0705 -0.2979  0.1794
17315SOL    HW152877   5.131   9.062   1.426 -0.7488 -1.2675  1.2214
17315SOL    HW252878   5.200   8.982   1.301  0.4982  1.6202  0.0275
17316SOL     OW52879   8.399   5.888   5.871  0.6680  0.2938  0.0040
17316SOL    HW152880   8.328   5.941   5.918  0.5062 -2.1341  2.6256
17316SOL    HW252881   8.366   5.795   5.855  1.9595  0.1481 -2.0365
17317SOL     OW52882   0.427   0.031   5.172 -0.1340  0.2873  0.5704
17317SOL    HW152883   0.350   0.095   5.169  2.1295  3.0820  0.9625
17317SOL    HW252884   0.437  -0.012   5.083 -4.5674 -3.1702  1.5182
17318SOL     OW52885   6.380   1.088   0.360 -0.1829 -0.0008 -0.6392
17318SOL    HW152886   6.427   1.015   0.311  0.6528  1.2272 -1.7157
17318SOL    HW252887   6.395   1.078   0.459 -0.3439 -1.4432 -0.7595
17320SOL     OW52888   2.692   1.339   5.409  0.0670 -0.1061 -0.1669
17320SOL    HW152889   2.681   1.414   5.474 -0.6458  0.8953 -1.4332
17320SOL    HW252890   2.717   1.256   5.459 -0.3426  0.6729  1.3733
17321SOL     OW52891   0.155   0.651   5.585 -0.2313 -0.5518 -0.4813
17321SOL    HW152892   0.169   0.575   5.649  1.4750  0.2586  0.1276
17321SOL    HW252893   0.099   0.721   5.629  0.3796 -0.2939 -0.1153
17324SOL     OW52894   0.589   3.627   6.359  0.1918  0.4476  0.4612
17324SOL    HW152895   0.503   3.590   6.394  0.4312 -1.9271 -1.2956
17324SOL    HW252896   0.662   3.612   6.426 -0.2623  0.0768  0.8703
17326SOL     OW52897   9.654   5.294   4.559  0.3994  0.7896 -0.2358
17326SOL    HW152898   9.697   5.242   4.485  1.0196  0.7940  0.1267
17326SOL    HW252899   9.591   5.234   4.609  1.3803  0.2915  0.4050
17327SOL     OW52900   1.508   1.913   1.563  0.3827 -0.2833 -0.0603
17327SOL    HW152901   1.431   1.949   1.510 -0.9581 -1.0060  1.3429
17327SOL    HW252902   1.571   1.987   1.585 -0.3180  0.4712 -0.5483
17328SOL     OW52903   3.116   8.574   7.239 -0.5439  0.1576  0.0018
17328SOL    HW152904   3.017   8.575   7.242 -0.5957 -1.1245 -0.6217
17328SOL    HW252905   3.150   8.483   7.266  0.5620  1.2376  2.3907
17330SOL     OW52906   3.400   1.677   5.083 -0.0082 -0.0276 -0.5979
17330SOL    HW152907   3.318   1.627   5.058  1.3545 -2.0764 -1.0662
17330SOL    HW252908   3.375   1.770   5.111 -2.5726 -0.9284  0.2440
17331SOL     OW52909   5.340   3.257   7.569  0.5905 -0.0501  0.7058
17331SOL    HW152910   5.313   3.246   7.473 -0.3219  0.0823  0.9496
17331SOL    HW252911   5.268   3.222   7.628 -0.4387  3.1071  1.4164
17332SOL     OW52912   1.225   7.174   0.110 -0.0858  0.4931 -0.5676
17332SOL    HW152913   1.292   7.161   0.037 -1.0795 -0.2332 -1.3553
17332SOL    HW252914   1.177   7.260   0.097 -0.2584  0.3666 -0.7661
17333SOL     OW52915   4.907   8.355   7.256  0.7091  0.3073 -0.1429
17333SOL    HW152916   4.832   8.289   7.259 -1.2228  2.4848  1.1040
17333SOL    HW252917   4.967   8.334   7.179 -1.2699 -1.3712 -1.2657
17334SOL     OW52918   4.480   5.129   0.758  0.8136  0.7032  0.4096
17334SOL    HW152919   4.398   5.117   0.702  0.3544  1.4980  0.8923
17334SOL    HW252920   4.526   5.041   0.769  1.0135  0.5760 -1.3508
17335SOL     OW52921   2.524   4.006   2.483 -0.2219  0.2136 -0.1066
17335SOL    HW152922   2.521   3.979   2.579 -1.3104  1.8616  0.3508
17335SOL    HW252923   2.440   4.055   2.459 -0.0996 -0.4581 -1.9884
17336SOL     OW52924   3.772   2.898   4.392 -0.4649  0.1582 -0.3956
17336SOL    HW152925   3.793   2.807   4.428 -0.1299  0.4736  0.2055
17336SOL    HW252926   3.777   2.896   4.292 -0.1492 -0.4058 -0.3712
17337SOL     OW52927   4.202   1.797   1.328  0.2619  0.0443 -0.1726
17337SOL    HW152928   4.177   1.876   1.273  1.1569  0.4116 -0.0618
17337SOL    HW252929   4.136   1.723   1.313  1.0198 -0.2043 -2.4488
17338SOL     OW52930   2.060   3.315   1.955  0.4957  0.2742  0.3731
17338SOL    HW152931   2.053   3.241   2.022  0.8828  0.2172  0.3527
17338SOL    HW252932   1.969   3.350   1.934  0.2267 -0.8075 -0.2980
17339SOL     OW52933   8.760   0.032   1.979  0.2903 -0.2132  0.6220
17339SOL    HW152934   8.703   0.105   1.941  0.2271  0.1092  1.3170
17339SOL    HW252935   8.807  -0.016   1.905 -1.2826 -0.8189 -0.0010
17340SOL     OW52936   2.277   3.518   0.977 -0.7582 -0.2227 -0.5434
17340SOL    HW152937   2.288   3.616   0.993  0.4654 -0.3190 -0.6858
17340SOL    HW252938   2.298   3.498   0.881  2.0432 -1.0189  0.1701
17341SOL     OW52939   9.858   9.424   5.398 -0.1028  0.7444 -0.1559
17341SOL    HW152940   9.764   9.393   5.415 -0.5073  2.3659  0.6622
17341SOL    HW252941   9.899   9.366   5.328 -2.3774  1.2005 -1.9453
17342SOL     OW52942   4.333   7.202   3.227 -0.5456  0.1929  0.0879
17342SOL    HW152943   4.319   7.294   3.190 -0.3155 -0.7464 -2.4048
17342SOL    HW252944   4.286   7.135   3.169  0.0697 -1.3497  1.3400
17344SOL     OW52945   6.188   6.109   1.758  0.4668 -0.0762  0.2826
17344SOL    HW152946   6.135   6.049   1.818  2.3508 -3.4565 -1.3439
17344SOL    HW252947   6.126   6.150   1.691 -0.8817  0.0744  1.5707
17346SOL     OW52948   5.773   9.329   2.497  0.3579 -0.0711  0.2248
17346SOL    HW152949   5.848   9.265   2.482  1.4586  0.6471  2.4767
17346SOL    HW252950   5.806   9.408   2.548 -1.7891  0.5777  0.6693
17347SOL     OW52951   1.932   1.574   6.171  0.4018 -0.0773  0.2705
17347SOL    HW152952   1.898   1.581   6.078 -0.2902 -0.7350  0.4671
17347SOL    HW252953   1.913   1.482   6.207  0.6229  0.1812  1.0673
17348SOL     OW52954   8.217   5.156   3.380  0.1081  0.1924 -0.4132
17348SOL    HW152955   8.257   5.090   3.317  0.9024  0.8695 -0.6370
17348SOL    HW252956   8.283   5.178   3.453  0.2584  1.5086 -0.9253
17351SOL     OW52957   9.774   5.001   0.778 -0.2482 -0.1169  0.3074
17351SOL    HW152958   9.856   4.982   0.724 -0.6654 -0.3460 -0.2446
17351SOL    HW252959   9.698   5.023   0.718 -0.2253  1.6012  0.8720
17352SOL     OW52960   2.150   4.387   2.535  0.0648  0.2100  0.4455
17352SOL    HW152961   2.067   4.358   2.582 -0.1761  0.4404  0.1604
17352SOL    HW252962   2.163   4.332   2.452 -0.1554  0.6202  0.1391
17353SOL     OW52963   0.209   9.463   2.328  0.5602  0.0407  0.1835
17353SOL    HW152964   0.164   9.380   2.295  2.2813 -1.1048  0.6458
17353SOL    HW252965   0.288   9.483   2.271 -0.5047  2.0552 -0.6416
17354SOL     OW52966   6.998   5.837   6.948 -0.6262 -0.2477 -0.1462
17354SOL    HW152967   6.963   5.784   7.026 -1.9549  2.7571  1.3887
17354SOL    HW252968   6.933   5.830   6.872 -1.8110  0.8113  0.7585
17355SOL     OW52969   2.490   2.189   1.011 -0.7392  0.0334 -0.3333
17355SOL    HW152970   2.509   2.114   1.074  1.5110 -0.0671 -1.0650
17355SOL    HW252971   2.468   2.153   0.921 -0.5177  0.2200 -0.4651
17356SOL     OW52972   2.441   5.253   0.280 -0.5013  0.4104 -0.3498
17356SOL    HW152973   2.429   5.325   0.349 -1.4869  0.0243 -0.1206
17356SOL    HW252974   2.452   5.296   0.190  0.4392  0.9027 -0.0060
17357SOL     OW52975   8.660   5.691   4.240  0.2416  0.2010  0.0155
17357SOL    HW152976   8.612   5.750   4.306 -2.8408 -2.4802  0.3004
17357SOL    HW252977   8.648   5.728   4.148 -0.7333  0.6194  0.3014
17358SOL     OW52978   4.616   7.398   4.211 -0.0316  0.0266  0.0803
17358SOL    HW152979   4.655   7.426   4.299  1.1006 -0.2061 -0.3319
17358SOL    HW252980   4.688   7.358   4.155 -0.2516  2.2305 -1.8338
17359SOL     OW52981   5.739   0.413   5.078 -0.0058  0.8160 -0.5486
17359SOL    HW152982   5.720   0.483   5.009  0.4701 -0.6009 -2.1541
17359SOL    HW252983   5.824   0.365   5.055 -0.7293 -0.8086  0.0686
17360SOL     OW52984   0.720   7.377   2.587 -0.3391  0.3004  0.1550
17360SOL    HW152985   0.806   7.405   2.630 -1.2650 -0.1304  2.3927
17360SOL    HW252986   0.736   7.299   2.527  0.8829  0.4197  0.3182
17361SOL     OW52987   9.945   9.012   4.705 -0.0625 -0.2067  0.2915
17361SOL    HW152988   9.856   8.972   4.727  0.5728 -1.6481  0.3027
17361SOL    HW252989  10.017   8.956   4.746  0.8797  0.5239 -0.3546
17363SOL     OW52990   7.644   6.097   7.750  0.3136  0.1857 -0.3093
17363SOL    HW152991   7.585   6.060   7.678 -0.2402 -0.2969  0.3864
17363SOL    HW252992   7.596   6.172   7.796  0.9405  0.9543 -0.8937
17364SOL     OW52993   6.244   5.573   2.386 -0.2752 -0.2238 -0.5631
17364SOL    HW152994   6.306   5.536   2.455 -0.0451 -2.0859 -1.7407
17364SOL    HW252995   6.174   5.630   2.431 -0.1641 -1.4411  1.2039
17365SOL     OW52996   2.528   5.891   0.922 -0.0436  0.4749  0.6042
17365SOL    HW152997   2.484   5.934   0.843  1.0640 -0.5840 -0.6272
17365SOL    HW252998   2.498   5.796   0.928 -0.1473  0.5641  1.4950
17366SOL     OW52999   8.637   8.543   3.011 -0.4004 -0.0263  0.3190
17366SOL    HW153000   8.541   8.521   2.994  0.2881 -1.8831 -1.2866
17366SOL    HW253001   8.647   8.580   3.103 -2.4564 -1.0924  0.9956
17367SOL     OW53002   3.318   3.846   5.409 -0.3847 -0.1244  0.4851
17367SOL    HW153003   3.397   3.870   5.464 -0.4161  0.2269  0.3779
17367SOL    HW253004   3.324   3.892   5.320 -0.5276 -0.3807  0.3444
17368SOL     OW53005   3.522   2.536   2.247 -0.6330 -0.1977  0.4428
17368SOL    HW153006   3.482   2.519   2.337  0.0450  1.5482  1.0998
17368SOL    HW253007   3.591   2.609   2.254  0.3641 -0.9375 -1.2483
17369SOL     OW53008   7.913   9.316   5.423  0.1053 -0.1708  0.4184
17369SOL    HW153009   7.816   9.337   5.410 -0.2230 -2.1722 -0.6055
17369SOL    HW253010   7.923   9.245   5.493  0.6051 -1.7832 -1.2298
17370SOL     OW53011   2.347   0.682   6.434  0.6659 -0.0412 -0.3940
17370SOL    HW153012   2.334   0.608   6.499  2.2758  1.9783  2.3542
17370SOL    HW253013   2.264   0.694   6.379 -0.1613 -2.8059  0.2090
17374SOL     OW53014   5.058   7.279   0.486 -0.9711 -0.0610  0.3249
17374SOL    HW153015   5.047   7.369   0.444 -2.0151 -1.1702 -1.8414
17374SOL    HW253016   4.968   7.243   0.512 -0.5452 -0.4208  1.3689
17375SOL     OW53017   0.631   9.173   7.626  0.1282 -0.2122 -0.4579
17375SOL    HW153018   0.581   9.243   7.677  0.5123  1.4451 -2.2869
17375SOL    HW253019   0.691   9.123   7.687 -1.8342 -0.4713  1.3027
17376SOL     OW53020   1.067   8.233   3.007 -0.5333  0.1469 -0.3148
17376SOL    HW153021   0.992   8.299   3.000 -0.3343  0.7893  2.8330
17376SOL    HW253022   1.154   8.283   3.008 -0.2942 -0.2740  0.2309
17377SOL     OW53023   3.274   0.359   1.691  0.2158  0.8177  0.4034
17377SOL    HW153024   3.352   0.422   1.685  0.2692  0.6698 -0.4440
17377SOL    HW253025   3.246   0.332   1.599  0.2067 -0.4206  0.7708
17378SOL     OW53026   6.062   1.033   5.441  0.3601  0.1020 -0.0849
17378SOL    HW153027   6.057   0.960   5.373 -1.9449 -0.2811  0.4509
17378SOL    HW253028   6.055   1.121   5.395  0.2372 -0.1101 -0.4735
17379SOL     OW53029   2.790   9.472   0.547 -0.3101 -0.5423 -0.0700
17379SOL    HW153030   2.767   9.392   0.492 -1.9250  1.7086 -2.8278
17379SOL    HW253031   2.721   9.485   0.619 -3.1846  1.3797 -3.0310
17381SOL     OW53032   6.330   0.716   7.180  0.4306 -0.1173  0.2245
17381SOL    HW153033   6.361   0.752   7.092 -0.9253  0.3537 -0.0719
17381SOL    HW253034   6.231   0.702   7.177  0.5242 -1.0835  1.3306
17382SOL     OW53035   0.267   0.031   5.827  0.4098 -0.4083  0.2773
17382SOL    HW153036   0.295   0.009   5.920 -0.8428 -1.0367  0.5233
17382SOL    HW253037   0.311  -0.031   5.763 -1.1326 -2.0187  0.7440
17383SOL     OW53038   9.904   6.063   6.164  0.1317 -0.0103  0.1558
17383SOL    HW153039   9.988   6.109   6.138 -0.0476  0.9776  1.2624
17383SOL    HW253040   9.920   6.009   6.247 -0.2263 -0.1129  0.1583
17384SOL     OW53041   3.990   5.024   2.521 -0.0690 -0.0019 -0.5274
17384SOL    HW153042   4.008   4.929   2.498 -0.5191 -0.1670 -0.2000
17384SOL    HW253043   4.060   5.082   2.480  1.1134 -0.6179  0.5930
17385SOL     OW53044   7.474   5.504   7.004  0.3074  0.4103 -0.2600
17385SOL    HW153045   7.546   5.470   7.064 -0.0406 -0.9117 -0.5709
17385SOL    HW253046   7.393   5.526   7.058 -0.3876 -1.8113 -0.3143
17387SOL     OW53047   9.189   0.841   3.945  0.1999  0.2233  0.4533
17387SOL    HW153048   9.179   0.743   3.931  0.5027  0.3062 -0.3826
17387SOL    HW253049   9.164   0.889   3.861 -0.6780  0.9034  1.1017
17388SOL     OW53050   5.709   3.258   2.661 -0.0717 -0.1510 -0.4967
17388SOL    HW153051   5.805   3.281   2.646  0.3168 -1.7854 -0.6598
17388SOL    HW253052   5.651   3.334   2.632  1.1925  1.0946  0.1647
17389SOL     OW53053   3.325   9.362   0.554  0.1573 -0.0211  0.1453
17389SOL    HW153054   3.413   9.383   0.596 -1.4431  2.5766  2.3991
17389SOL    HW253055   3.285   9.445   0.516 -1.7842 -0.9466  0.0571
17390SOL     OW53056   7.774   1.313   4.522 -0.0976 -0.2175  0.7334
17390SOL    HW153057   7.862   1.360   4.530  0.5412 -0.9645 -1.7176
17390SOL    HW253058   7.732   1.334   4.434 -1.1610 -1.9623  0.7944
17391SOL     OW53059   7.989   8.041   4.126 -0.2213  0.5039  0.4690
17391SOL    HW153060   7.918   8.000   4.183 -0.3663  0.8607  0.5477
17391SOL    HW253061   8.076   7.995   4.142 -0.1751  0.8752  1.2844
17392SOL     OW53062   1.096   4.732   4.273 -0.2433 -0.6600  0.0766
17392SOL    HW153063   1.021   4.693   4.327  0.0209 -0.5280  0.5306
17392SOL    HW253064   1.183   4.692   4.302  0.1952  1.3220  1.5041
17393SOL     OW53065   2.963   0.213   1.082 -0.0716  0.6142 -0.3827
17393SOL    HW153066   2.951   0.305   1.119 -2.3298  0.4450 -0.6356
17393SOL    HW253067   2.887   0.191   1.022 -0.0317 -1.7885  0.4000
17395SOL     OW53068   0.511   3.333   5.579 -0.6255 -0.2766  0.5430
17395SOL    HW153069   0.458   3.253   5.606 -3.4706  1.4820  0.4167
17395SOL    HW253070   0.519   3.335   5.479 -2.1250  0.4998  0.4182
17396SOL     OW53071   3.007   8.496   0.022  0.3881 -0.3288 -0.5820
17396SOL    HW153072   2.934   8.563   0.030  0.8819  0.0194  1.3292
17396SOL    HW253073   2.968   8.404   0.023 -0.3842 -0.1044 -4.3662
17397SOL     OW53074   2.884   0.918   1.574  0.0698 -0.0783  0.1570
17397SOL    HW153075   2.828   0.847   1.531 -0.2739 -0.1214  0.6833
17397SOL    HW253076   2.963   0.876   1.618 -0.7259 -0.2579  1.4452
17398SOL     OW53077   9.587   7.906   6.145  0.1573  0.1270 -0.2244
17398SOL    HW153078   9.659   7.946   6.088  0.8245 -0.0903  0.4587
17398SOL    HW253079   9.532   7.843   6.090  1.2480 -0.6361 -0.4568
17402SOL     OW53080   4.700   7.427   4.501  0.2040 -0.1203  0.6858
17402SOL    HW153081   4.660   7.519   4.492  1.6901  0.3989 -1.0581
17402SOL    HW253082   4.664   7.383   4.583  0.2285  2.4338  2.1491
17403SOL     OW53083   3.123   3.685   3.996  0.4358  0.8908 -0.2971
17403SOL    HW153084   3.194   3.615   4.003 -1.5944 -1.3577 -1.6129
17403SOL    HW253085   3.133   3.734   3.910 -0.0641  0.0781 -0.8149
17404SOL     OW53086   4.860   2.871   6.009 -0.4400  0.3942  0.4089
17404SOL    HW153087   4.896   2.952   6.054  0.4668 -0.1766  0.7370
17404SOL    HW253088   4.785   2.833   6.062 -0.7327  0.9018  0.3579
17406SOL     OW53089   4.484   0.109   7.453 -0.5664 -0.2444 -0.7286
17406SOL    HW153090   4.487   0.208   7.437 -2.7715 -0.2803 -1.5591
17406SOL    HW253091   4.503   0.061   7.368  1.1295 -0.5534 -0.1853
17407SOL     OW53092   6.675   9.116   1.916 -0.1612  0.1435 -0.1680
17407SOL    HW153093   6.675   9.211   1.884 -0.4869 -0.2709 -1.4225
17407SOL    HW253094   6.600   9.103   1.982 -0.8907  0.4528 -0.9248
17409SOL     OW53095   9.036   3.107   2.606  0.3769  0.4353 -0.6148
17409SOL    HW153096   9.056   3.202   2.583  1.3344  0.4871  0.4071
17409SOL    HW253097   9.021   3.099   2.705 -0.6471 -0.3153 -0.8185
17410SOL     OW53098   3.833   4.611   0.860  0.6603  0.2032  0.1899
17410SOL    HW153099   3.736   4.614   0.833  0.6289 -0.4031  0.2363
17410SOL    HW253100   3.888   4.656   0.789  0.4280 -0.1546 -0.2162
17412SOL     OW53101   1.413   7.920   7.047 -0.3489  0.3522  0.0850
17412SOL    HW153102   1.393   7.886   6.956  1.8031 -1.3779  0.2168
17412SOL    HW253103   1.450   8.013   7.041  1.7953 -0.5428 -1.0121
17413SOL     OW53104   8.804   8.170   0.994 -0.4728  0.3203 -0.1663
17413SOL    HW153105   8.872   8.210   0.933 -0.1040 -0.9389 -0.5960
17413SOL    HW253106   8.842   8.164   1.087  0.3969 -1.2770 -0.5957
17414SOL     OW53107   8.202   2.123   4.875 -0.5478 -0.2305 -0.4863
17414SOL    HW153108   8.119   2.069   4.892  0.0691 -1.1158 -0.2369
17414SOL    HW253109   8.184   2.191   4.804 -1.7062  0.1009  0.1249
17415SOL     OW53110   2.168   8.608   0.110 -0.2420  0.4939  0.0673
17415SOL    HW153111   2.146   8.631   0.205  0.6179 -0.3639  0.4776
17415SOL    HW253112   2.211   8.518   0.106  0.7197  0.9920 -1.0311
17416SOL     OW53113   9.919   5.333   5.404  0.1533 -0.8190  0.5700
17416SOL    HW153114   9.932   5.395   5.327 -1.7043 -1.9580 -0.6964
17416SOL    HW253115   9.847   5.370   5.464  0.2593 -0.8887  0.7427
17417SOL     OW53116   2.241   9.653   2.237 -0.3288 -0.1691  0.3471
17417SOL    HW153117   2.268   9.557   2.241  1.8184  0.4217  0.7708
17417SOL    HW253118   2.270   9.692   2.150  0.2791  0.4918  0.8335
17418SOL     OW53119   2.842   9.790   6.203 -0.3498  0.2134  0.1156
17418SOL    HW153120   2.931   9.764   6.241  0.2171  1.4150 -0.3458
17418SOL    HW253121   2.771   9.730   6.240  0.7483 -1.2525 -0.0970
17419SOL     OW53122   1.951   3.795   4.199  0.4474 -0.3840  0.1833
17419SOL    HW153123   1.963   3.836   4.290 -0.2044 -1.0723  0.5856
17419SOL    HW253124   1.913   3.703   4.209  1.0931 -0.7595 -0.7565
17420SOL     OW53125   2.209   7.429   6.081 -0.3859 -0.3839  0.6106
17420SOL    HW153126   2.246   7.465   6.167  0.0121  0.2968  0.1573
17420SOL    HW253127   2.124   7.476   6.058  0.6507  0.9933 -0.4941
17422SOL     OW53128   8.748   0.671   1.082  0.4757 -0.3367 -0.4106
17422SOL    HW153129   8.815   0.690   1.010 -1.0494  1.5881 -1.3792
17422SOL    HW253130   8.655   0.678   1.044 -0.3191 -2.3064  1.0583
17423SOL     OW53131   9.501   8.063   1.382 -0.2158  0.1443  0.0977
17423SOL    HW153132   9.441   8.140   1.404 -0.5775 -0.5839  1.6932
17423SOL    HW253133   9.446   7.987   1.349 -0.1423 -0.3983  1.2096
17424SOL     OW53134   4.341   1.928   7.341 -0.1633 -0.0743  0.8651
17424SOL    HW153135   4.278   1.880   7.403 -1.4938 -0.9154 -1.0531
17424SOL    HW253136   4.293   1.948   7.255  1.3119  2.0173  0.4927
17425SOL     OW53137   4.492   1.593   6.641  0.1025 -0.4310 -0.1286
17425SOL    HW153138   4.562   1.574   6.711  1.1266  1.3173 -0.6471
17425SOL    HW253139   4.505   1.685   6.606 -1.1398 -0.8773 -1.7999
17426SOL     OW53140   2.010   4.053   6.907  0.1609  0.1644  0.6906
17426SOL    HW153141   1.927   4.051   6.851  0.8621  0.6872 -0.3913
17426SOL    HW253142   2.023   3.964   6.951 -0.2179 -0.3584 -0.2467
17427SOL     OW53143   0.378   3.532   0.183  0.2845 -0.1543 -0.4955
17427SOL    HW153144   0.456   3.485   0.222  1.2551  0.2533 -1.9059
17427SOL    HW253145   0.381   3.526   0.083 -1.3875  0.0160 -0.5850
17428SOL     OW53146   3.442   1.936   5.274 -0.0008 -0.0973 -0.7964
17428SOL    HW153147   3.358   1.938   5.327  0.7772  0.0368  0.4619
17428SOL    HW253148   3.520   1.947   5.335  0.9142  0.1750 -1.9905
17429SOL     OW53149   2.823   7.895   7.615 -0.2320  0.0676  0.1950
17429SOL    HW153150   2.876   7.928   7.693 -1.1213  0.0306  0.8312
17429SOL    HW253151   2.784   7.973   7.566  1.3732  0.1498 -0.9759
17430SOL     OW53152   5.206   0.232   5.502 -0.3052 -0.6699  0.0567
17430SOL    HW153153   5.187   0.232   5.600 -0.2619  0.5421  0.0765
17430SOL    HW253154   5.124   0.263   5.452 -0.0571 -0.4797 -0.2324
17431SOL     OW53155   1.316   2.591   6.507 -0.6965  0.7029 -0.0583
17431SOL    HW153156   1.259   2.669   6.485 -1.0354  0.2867 -0.6887
17431SOL    HW253157   1.353   2.552   6.422  1.3167  1.5553  0.3992
17432SOL     OW53158   3.146   1.430   2.920 -0.6094  0.0145  0.3064
17432SOL    HW153159   3.116   1.480   2.839 -2.5522 -1.1160  0.3074
17432SOL    HW253160   3.220   1.367   2.895  0.7473  1.7037 -0.0039
17433SOL     OW53161   0.594   8.317   7.414  0.0575 -0.2684  0.0239
17433SOL    HW153162   0.648   8.302   7.497  0.4734  1.2174  0.0426
17433SOL    HW253163   0.529   8.391   7.430 -1.4687 -1.5393 -0.2480
17434SOL     OW53164   8.842   9.723   3.426  0.3463  0.2304  0.0529
17434SOL    HW153165   8.804   9.724   3.518 -0.8560  0.0397 -0.4355
17434SOL    HW253166   8.930   9.771   3.426 -0.8183  2.4554  0.7958
17435SOL     OW53167   4.611   9.106   3.915  0.1783 -0.5363  0.6190
17435SOL    HW153168   4.680   9.175   3.938  0.2467 -0.7839  1.1490
17435SOL    HW253169   4.524   9.151   3.896  0.7257 -0.1317 -1.0280
17436SOL     OW53170   7.927   1.436   5.159 -0.0281  0.2645  0.6164
17436SOL    HW153171   7.880   1.514   5.198 -0.6148 -0.2731  0.9946
17436SOL    HW253172   7.972   1.384   5.232 -0.5905 -0.3826  0.5122
17437SOL     OW53173   2.378   3.564   0.323 -0.1218 -0.4234 -0.0311
17437SOL    HW153174   2.438   3.644   0.324 -0.1537 -0.3985 -0.0990
17437SOL    HW253175   2.283   3.594   0.315 -0.2197 -0.4127  1.1062
17438SOL     OW53176   7.801   0.306   0.597 -0.7093 -0.3378 -0.1175
17438SOL    HW153177   7.899   0.303   0.618 -1.2903  1.7337  3.1666
17438SOL    HW253178   7.783   0.382   0.534 -0.2440 -0.5288 -0.4842
17439SOL     OW53179   8.054   7.065   7.715  0.3908 -0.1697 -0.5940
17439SOL    HW153180   8.080   7.149   7.763 -1.1577 -0.7471  1.3105
17439SOL    HW253181   8.094   6.986   7.763 -1.1676 -0.7508 -0.2356
17440SOL     OW53182   1.208   9.953   6.150 -0.8904  0.2882 -0.1878
17440SOL    HW153183   1.257  10.010   6.083  0.7072 -0.7208  0.1036
17440SOL    HW253184   1.112   9.948   6.125 -0.3648  0.1581 -2.2663
17441SOL     OW53185   9.170   5.762   4.779 -0.0288 -0.1038 -0.0337
17441SOL    HW153186   9.088   5.705   4.770  0.2268 -0.4279 -0.2961
17441SOL    HW253187   9.213   5.774   4.690 -0.7941  1.5746 -0.1935
17442SOL     OW53188   2.318   2.215   0.121 -0.5862  0.2949  0.5110
17442SOL    HW153189   2.373   2.134   0.098 -0.8291  0.7344 -1.7360
17442SOL    HW253190   2.339   2.244   0.214  1.2642 -0.9427  0.5118
17444SOL     OW53191   0.112   6.224   4.279 -0.3828  0.2981 -0.5927
17444SOL    HW153192   0.035   6.209   4.340 -0.5371 -0.8349 -1.0502
17444SOL    HW253193   0.128   6.142   4.225  1.2556  0.4583 -0.3754
17445SOL     OW53194   4.674   5.988   7.838 -0.2197  0.0972 -0.6396
17445SOL    HW153195   4.603   6.038   7.888  0.4549  0.3757  0.0355
17445SOL    HW253196   4.715   5.919   7.899 -0.2694 -0.4227 -1.1873
17446SOL     OW53197   9.048   6.892   0.834 -0.0359 -0.3770  0.1236
17446SOL    HW153198   9.061   6.795   0.813 -1.3137 -0.5373  0.0153
17446SOL    HW253199   8.993   6.901   0.918  0.2475  0.2561  0.2471
17447SOL     OW53200   1.314   0.132   6.333 -0.1852 -0.5140 -0.1839
17447SOL    HW153201   1.250   0.085   6.272 -0.4493  0.8958 -1.0042
17447SOL    HW253202   1.373   0.064   6.377 -1.6585 -1.7530 -0.0811
17448SOL     OW53203   6.775   5.213   1.806  0.3728  0.7028 -0.2669
17448SOL    HW153204   6.732   5.300   1.781 -0.2867  0.5754  0.3927
17448SOL    HW253205   6.748   5.188   1.899 -1.2673 -1.3212 -1.2369
17449SOL     OW53206   4.260   1.559   7.835 -0.3109 -0.1025 -0.1378
17449SOL    HW153207   4.216   1.574   7.923  0.2144  0.9178 -0.0378
17449SOL    HW253208   4.245   1.465   7.805 -2.1979  0.1173  0.0758
17450SOL     OW53209   2.098   9.788   4.288  0.1971  0.0793 -0.8584
17450SOL    HW153210   2.115   9.751   4.379  0.4128 -0.8722 -1.2733
17450SOL    HW253211   2.001   9.807   4.277  0.3232  1.2224 -0.0608
17451SOL     OW53212   1.202   9.102   6.222  0.0584 -0.3678  0.2559
17451SOL    HW153213   1.154   9.189   6.221  2.2817  0.9090  0.9687
17451SOL    HW253214   1.296   9.116   6.254  1.3925 -2.5471 -2.5053
17452SOL     OW53215   4.376   8.784   3.001  0.3438  0.1585  0.3898
17452SOL    HW153216   4.395   8.816   2.908  1.0721  0.9386  0.7957
17452SOL    HW253217   4.456   8.802   3.059 -0.3957  0.3950  1.3482
17453SOL     OW53218   5.978   5.439   1.075 -0.3289  0.3122  0.1966
17453SOL    HW153219   5.986   5.423   0.977  0.8577  2.1465 -0.0258
17453SOL    HW253220   5.892   5.487   1.094 -0.3642  0.3208  0.0156
17454SOL     OW53221   9.276   2.167   0.785  0.6240 -0.0254 -0.1315
17454SOL    HW153222   9.257   2.172   0.686  0.5680  2.8788 -0.0197
17454SOL    HW253223   9.333   2.244   0.812  0.6759 -0.8195  2.1131
17457SOL     OW53224   7.510   3.503   3.003 -0.5375 -0.0995 -0.2080
17457SOL    HW153225   7.552   3.533   2.918 -2.0340 -1.5287 -1.4972
17457SOL    HW253226   7.411   3.494   2.990 -0.6887 -1.1177  1.4590
17458SOL     OW53227   3.497   5.594   0.946 -0.3538 -0.0645 -0.3991
17458SOL    HW153228   3.566   5.660   0.976  0.3644 -1.2883  0.6805
17458SOL    HW253229   3.520   5.503   0.982 -2.1159 -0.6292 -0.6700
17459SOL     OW53230   1.231   2.186   0.886 -0.1571 -0.0532  0.2152
17459SOL    HW153231   1.241   2.286   0.890  1.3446 -0.1507 -0.9447
17459SOL    HW253232   1.230   2.150   0.980  2.6220  0.7400  0.5789
17461SOL     OW53233   8.207   5.693   5.239 -0.2775  0.9071 -0.0437
17461SOL    HW153234   8.284   5.713   5.300 -0.1497  3.0082 -0.8519
17461SOL    HW253235   8.124   5.679   5.294  0.2916  0.5240  0.7237
17462SOL     OW53236   4.125   8.453   2.846 -0.5536  0.0855 -0.6506
17462SOL    HW153237   4.220   8.466   2.819 -1.1602  0.6838 -2.5353
17462SOL    HW253238   4.088   8.540   2.879 -0.3406 -0.2395  0.4684
17463SOL     OW53239   2.026   1.143   5.463  0.0546  0.4722 -0.3606
17463SOL    HW153240   1.979   1.073   5.408  1.0973 -1.9717  1.7436
17463SOL    HW253241   1.960   1.207   5.500 -0.8922  0.8751 -2.6440
17464SOL     OW53242   3.943   5.326   5.011  0.0756 -0.5030  0.1784
17464SOL    HW153243   3.904   5.323   4.919  2.3589 -2.4394 -0.7888
17464SOL    HW253244   3.892   5.392   5.067 -1.8931  0.0674 -2.1950
17465SOL     OW53245   6.627   9.738   6.028  0.4394  0.5083 -0.1948
17465SOL    HW153246   6.580   9.666   5.977  2.1823 -2.5917  2.4454
17465SOL    HW253247   6.710   9.765   5.979 -0.0945  0.5681 -1.0734
17466SOL     OW53248   1.075   1.357   0.483  0.1626 -0.1148  0.3675
17466SOL    HW153249   1.067   1.389   0.577 -1.9778 -0.1364  0.2069
17466SOL    HW253250   1.081   1.258   0.481 -1.0044 -0.1839  0.4078
17468SOL     OW53251   1.262   8.918   4.384 -0.0326  0.5346 -0.2048
17468SOL    HW153252   1.271   8.905   4.482  1.0443 -0.1493 -0.3916
17468SOL    HW253253   1.297   8.838   4.336 -0.5240  0.8775 -1.1460
17470SOL     OW53254   0.848   2.848   2.506 -0.2994 -0.8560 -0.2867
17470SOL    HW153255   0.901   2.767   2.479 -0.1610 -0.7861 -0.2252
17470SOL    HW253256   0.756   2.842   2.467 -0.4139 -1.2338  0.0294
17471SOL     OW53257   1.031   6.433   1.055  0.3652 -0.4496 -0.1757
17471SOL    HW153258   1.113   6.375   1.056 -0.4688 -1.6290  1.2822
17471SOL    HW253259   1.036   6.498   1.131 -0.5140 -1.2004  0.5336
17472SOL     OW53260   0.996   9.821   4.772 -0.6056 -0.3572  0.2851
17472SOL    HW153261   1.086   9.779   4.762  0.3982  1.4850  1.4784
17472SOL    HW253262   0.990   9.867   4.861 -2.7083 -0.4110  0.2005
17473SOL     OW53263   1.898   7.797   3.597  0.6177 -0.6586 -0.0036
17473SOL    HW153264   1.860   7.721   3.650  0.2142 -0.5394 -0.1215
17473SOL    HW253265   1.939   7.762   3.513 -0.7058 -0.6226 -0.6907
17474SOL     OW53266   3.696   2.253   5.437 -0.5924 -0.2111 -0.9288
17474SOL    HW153267   3.624   2.321   5.421 -0.4205  0.1152 -0.3337
17474SOL    HW253268   3.656   2.170   5.475 -0.6612 -0.0537 -0.6591
17476SOL     OW53269   1.969   7.261   5.389  0.4484  0.1325 -0.5163
17476SOL    HW153270   2.051   7.318   5.379  0.9388 -0.4347  0.2318
17476SOL    HW253271   1.896   7.297   5.332  0.8334  1.3823 -0.2278
17479SOL     OW53272   9.173   2.631   6.940  0.1399 -0.6147 -0.4590
17479SOL    HW153273   9.239   2.615   7.013  0.0251  0.6068 -0.0822
17479SOL    HW253274   9.080   2.618   6.975 -0.0696  2.9929  0.4534
17481SOL     OW53275   0.509   4.360   6.831 -0.0567 -0.7538  0.3743
17481SOL    HW153276   0.442   4.342   6.902 -0.5101 -3.3021 -0.6288
17481SOL    HW253277   0.592   4.308   6.850  0.8374  0.6687  0.4476
17482SOL     OW53278   9.250   0.337   4.253 -0.2395 -0.1485  0.2004
17482SOL    HW153279   9.183   0.401   4.214 -0.3378  0.1224  0.7924
17482SOL    HW253280   9.203   0.254   4.284 -0.5589  0.6816  2.0321
17483SOL     OW53281   7.178   8.040   4.283 -0.4403  0.8511 -0.2254
17483SOL    HW153282   7.140   7.952   4.256  0.2679  0.1584  1.0071
17483SOL    HW253283   7.169   8.105   4.208  0.0085 -0.5742 -1.5188
17485SOL     OW53284   6.444   8.438   3.861 -0.1281  0.0536 -0.2181
17485SOL    HW153285   6.352   8.411   3.889  0.5562 -1.8174  0.3271
17485SOL    HW253286   6.482   8.368   3.801  1.0014  0.7376 -0.3156
17486SOL     OW53287   8.203   8.539   5.336  0.0235 -0.1767  0.3411
17486SOL    HW153288   8.153   8.457   5.308  0.3390  0.1799 -1.3337
17486SOL    HW253289   8.301   8.521   5.331  0.1195  0.7754 -1.5862
17487SOL     OW53290   7.125   6.319   2.296  0.0254  0.2126 -0.2090
17487SOL    HW153291   7.150   6.410   2.330  0.3929  0.4916 -1.2140
17487SOL    HW253292   7.178   6.250   2.346 -1.8958  0.3810  2.1334
17488SOL     OW53293   2.371   0.836   1.416  0.1665 -0.4370  0.5175
17488SOL    HW153294   2.394   0.854   1.511 -2.6614 -1.7765  1.4802
17488SOL    HW253295   2.358   0.922   1.368 -0.1498  0.2267  1.7782
17489SOL     OW53296   9.454   5.846   3.142  0.5377 -0.7210 -0.6382
17489SOL    HW153297   9.470   5.760   3.092  0.6791 -0.7520 -0.5392
17489SOL    HW253298   9.417   5.825   3.232 -1.1602 -0.6050 -1.2937
17490SOL     OW53299   6.969   9.070   2.590 -0.5885  0.5936 -0.3115
17490SOL    HW153300   6.911   8.993   2.564  0.4827 -0.3867  0.1631
17490SOL    HW253301   7.058   9.036   2.621 -0.0868  2.0259 -0.1444
17491SOL     OW53302   2.145   6.770   6.878  0.4314  0.2992 -0.1228
17491SOL    HW153303   2.167   6.842   6.943  0.8488  0.7218 -0.7229
17491SOL    HW253304   2.062   6.794   6.828  0.1910  0.0422  0.1497
17493SOL     OW53305   3.577   5.836   7.105  0.3471  0.2116 -0.2596
17493SOL    HW153306   3.498   5.827   7.165  0.1012  0.9210 -0.4644
17493SOL    HW253307   3.601   5.747   7.066  0.5379 -0.2668  0.9236
17494SOL     OW53308   6.280   2.323   1.151 -0.1292 -0.7270  0.0714
17494SOL    HW153309   6.275   2.366   1.061  0.1710  0.1246  0.4541
17494SOL    HW253310   6.370   2.341   1.191 -0.6735 -0.1315  1.0219
17495SOL     OW53311   9.845   4.167   0.185 -0.5614 -0.1275  0.3114
17495SOL    HW153312   9.944   4.174   0.168 -0.3531 -0.3254  1.4396
17495SOL    HW253313   9.813   4.253   0.225 -0.3108 -1.0536  2.5778
17497SOL     OW53314   1.746   4.819   2.502 -0.2546 -0.1293  0.7843
17497SOL    HW153315   1.706   4.889   2.561 -2.2001 -0.0646 -0.5650
17497SOL    HW253316   1.803   4.757   2.557  1.0496  2.1567  2.0690
17498SOL     OW53317   3.281   0.427   1.128 -0.5488  0.0997  0.1391
17498SOL    HW153318   3.282   0.476   1.215 -0.7877  1.0883 -0.4024
17498SOL    HW253319   3.297   0.329   1.144 -0.0752  0.3489  1.2361
17501SOL     OW53320   0.013   4.921   1.927  0.1712  0.8042 -0.5958
17501SOL    HW153321  -0.063   4.909   1.863  0.2629 -0.5140 -0.4620
17501SOL    HW253322  -0.016   4.977   2.004 -0.1765  1.7123 -1.3748
17502SOL     OW53323   5.870   9.675   2.325 -0.1868 -0.6244 -0.1668
17502SOL    HW153324   5.839   9.583   2.303 -2.7438 -0.0362  0.8183
17502SOL    HW253325   5.808   9.716   2.392  0.6219  2.0244 -0.9905
17504SOL     OW53326   3.236   7.379   5.626  0.0222  0.2930 -0.1624
17504SOL    HW153327   3.236   7.345   5.532  1.5506  0.3121 -0.1910
17504SOL    HW253328   3.182   7.463   5.632 -0.3859  0.0890 -0.9389
17505SOL     OW53329   5.785   9.073   6.110  0.3070 -0.3280  0.1326
17505SOL    HW153330   5.763   9.004   6.179 -0.9813 -1.4430 -1.3599
17505SOL    HW253331   5.794   9.029   6.021 -0.1227  1.3948 -0.7693
17506SOL     OW53332   2.762   6.392   4.552 -0.3053  0.0945 -0.6712
17506SOL    HW153333   2.826   6.360   4.483 -0.3137 -1.1389 -0.1096
17506SOL    HW253334   2.690   6.324   4.565 -0.1437  0.1815  0.7512
17509SOL     OW53335   4.105   7.285   0.282 -0.5800 -0.0047  0.1449
17509SOL    HW153336   4.023   7.304   0.228 -0.8402 -0.8661  0.2318
17509SOL    HW253337   4.161   7.217   0.234  0.5606  1.2836 -0.3795
17510SOL     OW53338   8.177   1.796   4.174 -0.1134 -0.1149 -0.1590
17510SOL    HW153339   8.094   1.750   4.207 -0.7142  0.3413 -1.0321
17510SOL    HW253340   8.239   1.727   4.135 -1.0806 -0.1936 -1.6112
17511SOL     OW53341   5.279   3.664   7.008 -0.0107 -0.3144  0.1617
17511SOL    HW153342   5.205   3.643   6.943 -0.0709  1.1042 -0.2615
17511SOL    HW253343   5.314   3.580   7.047 -0.6799 -1.1268 -0.9480
17513SOL     OW53344   0.484   4.907   2.076 -0.0077 -0.8388  0.3224
17513SOL    HW153345   0.478   4.826   2.135  0.8946 -2.0455 -1.2123
17513SOL    HW253346   0.413   4.903   2.006 -0.0437 -0.2285  0.3221
17514SOL     OW53347   2.105   2.898   6.682  0.1617 -0.3312 -0.2513
17514SOL    HW153348   2.063   2.837   6.749 -0.5676 -0.4629 -0.8184
17514SOL    HW253349   2.055   2.892   6.595  2.3140 -1.6819 -1.4385
17515SOL     OW53350   9.027   2.449   0.851  0.5491 -0.4223  0.3907
17515SOL    HW153351   9.031   2.537   0.804 -2.6173 -0.8659 -0.8470
17515SOL    HW253352   9.037   2.375   0.784 -0.0882 -1.0282  0.9599
17516SOL     OW53353   4.550   4.936   1.046  0.4754  0.0524  0.3234
17516SOL    HW153354   4.576   4.848   1.086 -0.4566  0.1538  1.1838
17516SOL    HW253355   4.546   4.928   0.946  1.8877 -0.4628  0.3084
17517SOL     OW53356   1.360   2.585   3.158  0.0141  0.0163 -0.0260
17517SOL    HW153357   1.270   2.596   3.202  0.1757 -1.7768  0.7981
17517SOL    HW253358   1.347   2.552   3.065 -0.1533 -1.5429  0.5379
17518SOL     OW53359   4.919   2.962   6.356 -0.0118 -0.0510  0.8183
17518SOL    HW153360   5.006   2.989   6.315 -1.0132 -2.6598 -3.2949
17518SOL    HW253361   4.861   3.042   6.368  0.6964  0.9178 -2.0246
17520SOL     OW53362   2.212   2.543   6.448 -0.6757 -0.2571 -0.1316
17520SOL    HW153363   2.258   2.552   6.536  0.4044 -0.0824 -0.7154
17520SOL    HW253364   2.126   2.493   6.461 -1.9448  2.2052  1.5031
17521SOL     OW53365   4.397   3.015   7.326  0.0433  0.1758  0.1910
17521SOL    HW153366   4.470   3.077   7.296 -1.6690  2.1835  0.0357
17521SOL    HW253367   4.435   2.949   7.391  2.0094  1.1066  0.0485
17522SOL     OW53368   5.302   2.265   2.091  0.2670  0.4513 -0.2281
17522SOL    HW153369   5.375   2.232   2.032 -0.8230 -1.4451 -0.5438
17522SOL    HW253370   5.228   2.303   2.036  0.4751  1.2525  0.0383
17523SOL     OW53371   8.417   3.474   1.478 -0.6691  0.2312  0.0537
17523SOL    HW153372   8.395   3.545   1.546  0.0886 -0.1231  0.6879
17523SOL    HW253373   8.462   3.397   1.524  2.5115  1.2182 -1.2251
17524SOL     OW53374   7.515   5.012   2.341 -0.2552 -0.3801 -0.4621
17524SOL    HW153375   7.563   4.924   2.335  0.5671  0.0739 -0.6740
17524SOL    HW253376   7.500   5.048   2.249  3.3673  1.7959 -0.2976
17525SOL     OW53377   5.145   0.751   5.923  0.4575 -0.3969 -0.2280
17525SOL    HW153378   5.127   0.712   6.014  1.4700 -1.4354 -0.4672
17525SOL    HW253379   5.243   0.767   5.911  0.1958  0.9967 -0.6468
17526SOL     OW53380   2.696   5.309   1.833  0.4649  0.6782 -0.2764
17526SOL    HW153381   2.638   5.348   1.761 -0.0126 -1.4581 -1.0750
17526SOL    HW253382   2.777   5.268   1.791  0.7965  0.5189  0.5132
17527SOL     OW53383   4.186   9.518   5.795 -0.1829 -0.3924  0.6044
17527SOL    HW153384   4.240   9.568   5.726  0.8948 -1.1149  0.9284
17527SOL    HW253385   4.229   9.430   5.814 -0.6728 -0.3457  1.9565
17529SOL     OW53386   5.407   8.964   7.540 -0.1057 -0.3067  0.5247
17529SOL    HW153387   5.466   8.884   7.547  0.9821  0.4534  0.0324
17529SOL    HW253388   5.442   9.037   7.598 -1.1171 -0.1837  0.9987
17530SOL     OW53389   1.494   7.972   5.777  0.4755 -0.2054  0.0269
17530SOL    HW153390   1.546   7.911   5.718  0.5137  1.2849 -1.5370
17530SOL    HW253391   1.419   7.922   5.819  0.5300 -1.3360 -1.1785
17531SOL     OW53392   7.961   1.039   3.415  0.1866  0.7670  0.3429
17531SOL    HW153393   7.946   1.134   3.385  0.1566 -0.2476 -2.9800
17531SOL    HW253394   7.874   0.999   3.442 -0.3413  0.6726 -1.4322
17532SOL     OW53395   8.961   0.155   5.158 -0.6025 -0.4292 -0.5874
17532SOL    HW153396   8.895   0.156   5.234  0.9915  1.5393  0.8132
17532SOL    HW253397   8.923   0.206   5.081 -0.4792  1.2593  0.4489
17533SOL     OW53398   4.006   6.731   1.277 -0.0535  0.0694 -0.4425
17533SOL    HW153399   4.082   6.669   1.296 -0.5728 -0.6357 -0.6335
17533SOL    HW253400   4.035   6.798   1.208  0.3040 -0.3858 -0.7455
17534SOL     OW53401   0.955   4.867   3.728  0.5785  0.2506  0.2622
17534SOL    HW153402   1.017   4.913   3.792  0.9570 -0.1830  0.2080
17534SOL    HW253403   0.987   4.880   3.635 -0.4024  1.5447  0.0856
17535SOL     OW53404   7.277   8.688   2.883  0.0846  0.4044 -0.0380
17535SOL    HW153405   7.192   8.636   2.895 -0.1799  0.9183  0.3144
17535SOL    HW253406   7.340   8.636   2.826 -0.8562  0.4603 -1.1375
17536SOL     OW53407   3.036   4.446   2.269  0.4589 -0.4233 -0.1815
17536SOL    HW153408   2.992   4.533   2.248  1.4965  0.1894  0.1391
17536SOL    HW253409   2.978   4.371   2.240 -0.3703  0.3834 -0.6111
17537SOL     OW53410   8.351   2.690   0.595 -0.5466  0.6125 -0.2948
17537SOL    HW153411   8.406   2.726   0.670 -0.1189  1.0405 -0.8119
17537SOL    HW253412   8.323   2.765   0.535  0.6531  0.0508 -1.5829
17538SOL     OW53413   6.661   1.446   3.742 -0.2431  0.0212  0.3539
17538SOL    HW153414   6.592   1.383   3.705  0.8024 -1.0174  0.1493
17538SOL    HW253415   6.685   1.514   3.673 -0.9654  0.3159  0.3851
17539SOL     OW53416   7.163   0.326   5.666 -0.0409 -0.0311  0.1980
17539SOL    HW153417   7.186   0.359   5.758 -0.6570  0.5961  0.1264
17539SOL    HW253418   7.115   0.397   5.616 -1.0322 -0.8942 -0.0956
17540SOL     OW53419   2.562   1.225   2.562 -0.5518  0.1783 -0.2540
17540SOL    HW153420   2.609   1.218   2.651  2.5125  0.6898 -1.7655
17540SOL    HW253421   2.573   1.138   2.513 -1.3220  0.2613 -0.5665
17542SOL     OW53422   0.207   0.057   6.757  0.0789  0.3055 -0.2835
17542SOL    HW153423   0.246   0.019   6.841  1.6835  0.2814 -1.0230
17542SOL    HW253424   0.196  -0.016   6.690 -1.1405  0.3363 -0.1270
17544SOL     OW53425   8.364   4.140   4.461 -0.3019 -0.1348 -0.2287
17544SOL    HW153426   8.380   4.112   4.367  3.4198  0.4346  0.1573
17544SOL    HW253427   8.317   4.228   4.462  1.2104  0.7240 -1.6245
17546SOL     OW53428   2.454   1.947   2.694 -0.2389  0.2432  0.2944
17546SOL    HW153429   2.457   1.918   2.790  1.6436 -1.3112 -0.1892
17546SOL    HW253430   2.375   1.906   2.649 -1.1039  0.9445  1.1734
17548SOL     OW53431   3.138   7.633   0.253 -0.0117 -0.0550  0.7898
17548SOL    HW153432   3.216   7.571   0.246 -0.0587 -0.0264 -0.0483
17548SOL    HW253433   3.054   7.582   0.236  0.0058  0.3841 -0.6696
17549SOL     OW53434   3.319   3.929   5.117  0.2819  1.1396  0.3431
17549SOL    HW153435   3.391   3.997   5.101 -0.0414  0.7493 -3.0382
17549SOL    HW253436   3.231   3.965   5.084 -0.1231 -0.3732 -0.2556
17550SOL     OW53437   9.033   6.390   7.249 -0.4009 -0.0444  0.0910
17550SOL    HW153438   8.935   6.379   7.232 -0.3297  1.8548 -1.7122
17550SOL    HW253439   9.054   6.486   7.263  0.9573 -0.6302  2.3535
17551SOL     OW53440   6.458   9.312   7.405  0.0879 -0.0271 -0.2857
17551SOL    HW153441   6.380   9.357   7.361  0.5982  2.0702  0.9014
17551SOL    HW253442   6.425   9.237   7.463 -1.0271  0.6893  0.0120
17553SOL     OW53443   0.988   2.520   2.939  0.3747 -0.1045  0.7284
17553SOL    HW153444   1.051   2.521   2.861  0.4811 -1.1941  0.7934
17553SOL    HW253445   0.894   2.521   2.906  0.4179 -1.1714  0.5696
17554SOL     OW53446   7.353   1.752   6.111  0.1942  0.7740  0.2768
17554SOL    HW153447   7.438   1.801   6.092 -0.7497  2.4000  0.1262
17554SOL    HW253448   7.296   1.751   6.029 -0.1338  0.1033  0.5083
17555SOL     OW53449   2.287   6.961   0.408 -0.2545 -0.1276  0.2637
17555SOL    HW153450   2.239   6.887   0.361  2.8683 -1.4949 -0.8958
17555SOL    HW253451   2.323   6.927   0.495 -0.7455  0.6939  0.7985
17556SOL     OW53452   1.426   6.376   5.792 -0.0078  0.0915  0.3531
17556SOL    HW153453   1.518   6.337   5.790  0.1636  0.4318  1.0965
17556SOL    HW253454   1.431   6.472   5.822 -0.6419 -0.0177  0.8330
17557SOL     OW53455   3.080   3.472   4.571 -0.2374 -0.3266  0.0627
17557SOL    HW153456   3.128   3.455   4.657  0.0193 -1.3865 -0.2763
17557SOL    HW253457   3.009   3.541   4.584  0.6252  0.4287  0.8369
17558SOL     OW53458   2.837   0.411   7.047  0.2113  0.0836  0.1104
17558SOL    HW153459   2.922   0.407   7.100  0.5523 -3.3321 -0.5519
17558SOL    HW253460   2.857   0.396   6.951 -1.0583 -0.1257 -0.1297
17560SOL     OW53461   9.895   3.203   3.934  0.0374  0.2527 -0.2333
17560SOL    HW153462   9.810   3.161   3.902  0.1175 -0.0435 -0.0667
17560SOL    HW253463   9.924   3.159   4.019  0.1866  0.5705 -0.1200
17561SOL     OW53464   1.449   9.403   2.284 -0.0277 -0.2993 -0.2879
17561SOL    HW153465   1.450   9.498   2.252 -0.7172  0.2836  1.3759
17561SOL    HW253466   1.398   9.346   2.219  1.2770  0.2435 -1.8349
17562SOL     OW53467   4.973   2.799   5.336  0.2180 -0.4644  0.1327
17562SOL    HW153468   4.967   2.897   5.356 -0.2423 -0.5214  0.2777
17562SOL    HW253469   5.059   2.780   5.287  1.0002 -0.2142  1.3944
17565SOL     OW53470   6.620   4.805   2.237 -0.1041  0.7313 -0.1375
17565SOL    HW153471   6.532   4.838   2.272 -0.5384  0.0662 -0.6106
17565SOL    HW253472   6.690   4.875   2.254 -0.7663  1.3638  0.0261
17566SOL     OW53473   2.189   2.158   7.096  0.4789 -0.5335  0.2704
17566SOL    HW153474   2.193   2.111   7.184 -0.6750 -0.3694  0.4152
17566SOL    HW253475   2.097   2.195   7.082  1.2924  1.4904  0.0523
17567SOL     OW53476   9.226   7.073   0.964 -0.7259  0.9526 -0.5015
17567SOL    HW153477   9.194   7.108   1.052 -0.0643  0.6561 -0.1354
17567SOL    HW253478   9.149   7.032   0.914 -1.2992  1.9862 -0.4901
17569SOL     OW53479   2.297   3.056   4.397 -0.1333  0.3086 -0.2397
17569SOL    HW153480   2.360   3.128   4.370 -1.4566  1.5605 -0.0811
17569SOL    HW253481   2.245   3.025   4.317 -1.3575  1.3339  0.1438
17571SOL     OW53482   6.203   0.288   5.681  0.6572 -0.2572 -0.2013
17571SOL    HW153483   6.156   0.353   5.622 -0.0955 -0.9732 -0.3969
17571SOL    HW253484   6.156   0.200   5.677  1.4675 -0.7146  0.3266
17572SOL     OW53485   8.495   2.961   6.013 -0.0290 -0.1789  0.0456
17572SOL    HW153486   8.452   2.925   5.931 -1.6530 -0.3626  0.9407
17572SOL    HW253487   8.547   2.889   6.059  0.0471 -0.3371 -0.2963
17573SOL     OW53488   7.586   8.406   5.880  0.5137  0.0908  0.0417
17573SOL    HW153489   7.659   8.436   5.819  1.6536 -0.7719  0.9533
17573SOL    HW253490   7.528   8.340   5.832  0.2831  0.8334 -0.7079
17575SOL     OW53491   1.616   7.632   6.101 -0.3423 -0.2082  0.6575
17575SOL    HW153492   1.708   7.667   6.118  0.0333 -1.6315  1.6649
17575SOL    HW253493   1.612   7.592   6.009 -0.0214  0.0780  0.5194
17576SOL     OW53494   3.756   9.154   1.258  0.2495  0.0231 -0.3361
17576SOL    HW153495   3.845   9.109   1.263 -0.6778 -1.7629  0.4562
17576SOL    HW253496   3.684   9.085   1.256 -1.2777  1.4690  2.2197
17577SOL     OW53497   3.322   5.015   6.147 -0.0756 -0.1932 -0.5671
17577SOL    HW153498   3.282   4.930   6.112  2.5831 -1.1432 -1.4494
17577SOL    HW253499   3.304   5.022   6.245  1.1029 -2.6519 -0.1339
17578SOL     OW53500   2.061   9.333   7.529  0.2315 -0.0835 -0.0481
17578SOL    HW153501   2.120   9.285   7.464  0.0296 -0.9304  0.3897
17578SOL    HW253502   2.103   9.331   7.620 -0.7178 -1.1839  0.3864
17579SOL     OW53503   1.869   3.147   2.297  0.1134  0.2814  0.2776
17579SOL    HW153504   1.913   3.191   2.376  0.3275  2.3177 -0.9557
17579SOL    HW253505   1.938   3.120   2.231 -0.1487 -0.6370  0.3613
17580SOL     OW53506   4.922   2.773   4.610  0.6395 -0.3092 -0.5730
17580SOL    HW153507   5.013   2.735   4.625  1.2413  0.8707 -1.1459
17580SOL    HW253508   4.853   2.704   4.630  1.6524 -1.1189  0.1490
17581SOL     OW53509   3.912   4.280   2.606  0.0936 -0.4532  0.2975
17581SOL    HW153510   4.003   4.323   2.613  0.7780 -1.9605  0.7465
17581SOL    HW253511   3.908   4.225   2.523  0.1917 -1.7690  1.1526
17583SOL     OW53512   2.921   7.259   4.945  0.4290 -0.6315  0.2280
17583SOL    HW153513   2.870   7.252   5.031 -0.5017 -1.5280 -0.3859
17583SOL    HW253514   2.898   7.345   4.900 -0.5002 -1.0003 -0.0120
17584SOL     OW53515   2.334   0.233   4.452  0.4242 -0.3198  0.5638
17584SOL    HW153516   2.271   0.181   4.510 -0.5001  0.0176 -0.1152
17584SOL    HW253517   2.296   0.324   4.436  2.3524  0.8147  2.3003
17585SOL     OW53518   4.826   4.747   2.562  0.4793  0.0969 -0.1781
17585SOL    HW153519   4.842   4.713   2.470 -2.0172  1.9455 -1.3365
17585SOL    HW253520   4.791   4.673   2.619  1.9519 -1.0316 -0.7092
17586SOL     OW53521   3.726   1.377   5.890 -0.4183  0.1433  0.1247
17586SOL    HW153522   3.767   1.447   5.831 -0.2324 -2.0298 -2.4015
17586SOL    HW253523   3.641   1.412   5.928  0.6572  2.4705  0.5111
17587SOL     OW53524   5.627   7.283   3.903 -0.4643  0.1069 -0.2704
17587SOL    HW153525   5.713   7.232   3.900 -0.1017  0.7078 -0.2295
17587SOL    HW253526   5.602   7.299   3.999  0.2223  1.3282 -0.2872
17588SOL     OW53527   0.326   4.483   6.082  0.3246 -0.0322 -0.4788
17588SOL    HW153528   0.387   4.547   6.129  1.2385 -1.0470 -0.2656
17588SOL    HW253529   0.381   4.419   6.028 -0.5907 -0.5744 -0.7679
17589SOL     OW53530   4.136   6.342   3.291 -0.2956 -0.0496  0.8548
17589SOL    HW153531   4.190   6.347   3.207 -1.1951  0.3705  0.2927
17589SOL    HW253532   4.196   6.348   3.371  0.2895  2.6782  0.2411
17590SOL     OW53533   0.932   4.537   2.218  0.2114  0.4698 -0.1274
17590SOL    HW153534   0.868   4.505   2.287  1.2491  0.4756  0.8662
17590SOL    HW253535   0.957   4.461   2.158 -1.3677  0.6680 -1.0598
17592SOL     OW53536   8.214   3.149   0.367  0.3486 -0.0088 -0.1896
17592SOL    HW153537   8.209   3.249   0.375 -0.5669 -0.0488 -0.2226
17592SOL    HW253538   8.271   3.112   0.441  1.5662  0.6184 -0.7866
17593SOL     OW53539   3.701   5.235   1.616  0.1570 -0.5963 -0.0979
17593SOL    HW153540   3.774   5.252   1.683 -0.4523 -0.4601  0.5433
17593SOL    HW253541   3.686   5.317   1.562 -0.1248 -0.3332  0.3732
17594SOL     OW53542   9.321   3.767   1.892  0.5654 -0.1907 -0.7556
17594SOL    HW153543   9.272   3.687   1.860  0.3734  0.1549 -1.3379
17594SOL    HW253544   9.279   3.850   1.854 -1.0878  0.4024  2.1800
17596SOL     OW53545   3.139   0.329   4.501 -0.1968 -0.0148 -1.0825
17596SOL    HW153546   3.089   0.396   4.556 -0.2244 -0.0982 -1.0057
17596SOL    HW253547   3.203   0.377   4.441  2.8581 -0.0365  1.9805
17597SOL     OW53548   4.811   3.265   5.549 -0.3152 -0.4718  0.8463
17597SOL    HW153549   4.870   3.192   5.584 -1.0023 -0.9013  1.1127
17597SOL    HW253550   4.853   3.306   5.468 -1.4812 -3.3634 -1.2850
17598SOL     OW53551   2.609   5.030   0.340 -0.1724  0.4565 -0.4665
17598SOL    HW153552   2.558   5.116   0.347  0.6956  1.1403 -2.1962
17598SOL    HW253553   2.594   4.990   0.250  2.1832  0.5981 -0.9671
17600SOL     OW53554   0.567   2.510   5.460 -0.1624  0.1916 -0.1309
17600SOL    HW153555   0.605   2.467   5.378  2.5225  0.2730  1.0037
17600SOL    HW253556   0.506   2.445   5.506  3.0155 -2.1248  0.9780
17601SOL     OW53557   8.661   1.459   4.679 -0.1530  0.1728 -0.8261
17601SOL    HW153558   8.737   1.495   4.626 -1.2568  1.0045 -1.8658
17601SOL    HW253559   8.590   1.529   4.687 -1.3290 -0.9931 -0.8856
17602SOL     OW53560   3.959   8.122   4.401 -0.0835 -1.1848 -0.0470
17602SOL    HW153561   3.944   8.191   4.330  2.1782 -1.7957 -1.1688
17602SOL    HW253562   3.872   8.095   4.441 -1.2019  0.5687 -1.2713
17605SOL     OW53563   9.297   6.913   5.206 -0.0747 -0.0341 -0.4539
17605SOL    HW153564   9.355   6.835   5.229  0.5981  0.4449 -0.5040
17605SOL    HW253565   9.202   6.891   5.225  0.2674 -0.3295  1.0227
17608SOL     OW53566   9.624   9.112   3.414 -0.0359 -0.3214 -0.3937
17608SOL    HW153567   9.676   9.192   3.443 -0.9928  0.4758 -0.8847
17608SOL    HW253568   9.604   9.056   3.495  0.0880  0.2442  0.0365
17609SOL     OW53569   9.791   3.456   1.619  0.1818  0.2022 -0.7112
17609SOL    HW153570   9.868   3.456   1.682  0.5673 -0.6436 -1.1843
17609SOL    HW253571   9.710   3.418   1.665  0.6120 -0.9675 -0.9075
17611SOL     OW53572   2.512   5.057   7.586  0.0828  0.1444 -0.1332
17611SOL    HW153573   2.451   5.034   7.661 -0.3410  0.9930 -0.2191
17611SOL    HW253574   2.564   4.975   7.560 -0.9742 -0.5725 -0.0307
17613SOL     OW53575   5.336   4.354   1.080  0.2691  0.3295  0.7433
17613SOL    HW153576   5.423   4.396   1.052 -0.6935  0.7951 -1.5979
17613SOL    HW253577   5.347   4.254   1.081 -0.1611  0.1765 -3.1605
17616SOL     OW53578   4.849   8.706   3.181  0.8084 -0.2185 -0.1425
17616SOL    HW153579   4.860   8.624   3.126  3.6412 -0.1168  0.1922
17616SOL    HW253580   4.888   8.691   3.272  2.5046  1.8669 -0.4749
17617SOL     OW53581   9.305   6.425   0.656  0.2041  0.5596  0.4238
17617SOL    HW153582   9.245   6.484   0.602 -0.0003 -0.8054 -0.8490
17617SOL    HW253583   9.398   6.462   0.656  0.5792 -0.3170 -2.2656
17618SOL     OW53584   5.397   1.476   0.964 -0.1434 -0.6814  0.0190
17618SOL    HW153585   5.298   1.467   0.959 -0.2710  0.9744 -0.8919
17618SOL    HW253586   5.422   1.529   1.045 -0.1918  1.1185 -1.1092
17620SOL     OW53587   6.836   0.615   6.289 -0.3265  0.2186 -0.3269
17620SOL    HW153588   6.912   0.626   6.225  0.4307  1.4736  0.7425
17620SOL    HW253589   6.817   0.703   6.333 -0.6860 -0.6582  1.3268
17621SOL     OW53590   1.012   1.574   3.089  0.5618  0.2467  0.7394
17621SOL    HW153591   1.010   1.671   3.063 -0.2954  0.6452  2.2376
17621SOL    HW253592   1.081   1.560   3.159 -2.2190  0.6321  3.6850
17622SOL     OW53593   2.782   6.169   6.960  0.0320  0.1021  0.4383
17622SOL    HW153594   2.865   6.211   6.997  0.7250 -0.8097 -0.0602
17622SOL    HW253595   2.738   6.233   6.897  0.6878  0.3627  0.2387
17624SOL     OW53596   3.534   1.320   7.659 -0.0433 -0.1923  0.0726
17624SOL    HW153597   3.602   1.307   7.587  0.1639 -1.9971  0.5776
17624SOL    HW253598   3.465   1.386   7.628  0.5799 -0.1967 -1.3808
17625SOL     OW53599   6.582   9.198   2.430 -0.4398  0.0630  0.5812
17625SOL    HW153600   6.563   9.103   2.404  2.2397 -0.2265 -0.4028
17625SOL    HW253601   6.624   9.200   2.521  1.9730  0.0448 -0.4897
17627SOL     OW53602   4.674   5.510   5.200  0.3140  0.3639 -0.2265
17627SOL    HW153603   4.727   5.540   5.279 -1.1356  2.0019  0.1482
17627SOL    HW253604   4.591   5.463   5.231  1.3140 -1.8630 -0.8034
17629SOL     OW53605   5.312   3.513   1.442  0.0196  0.5840 -0.1538
17629SOL    HW153606   5.231   3.568   1.465  0.3769  0.6789  0.9014
17629SOL    HW253607   5.392   3.552   1.487  0.5247  0.0250 -0.5611
17630SOL     OW53608   5.198   4.826   1.821  0.0143 -0.2468 -0.0992
17630SOL    HW153609   5.292   4.798   1.834  0.1401  0.1893 -0.0598
17630SOL    HW253610   5.143   4.748   1.792 -0.0121 -0.9144  1.7541
17631SOL     OW53611   5.661   0.007   5.878 -0.2694  0.4519 -0.1120
17631SOL    HW153612   5.731  -0.047   5.831 -1.1200 -0.7265 -0.0394
17631SOL    HW253613   5.670  -0.007   5.977  0.1817  1.2864 -0.0293
17632SOL     OW53614   8.748   3.066   2.912  0.0658 -0.0153  0.3235
17632SOL    HW153615   8.768   3.029   2.821  1.3298  0.5675  0.3557
17632SOL    HW253616   8.649   3.078   2.923 -0.0119  1.0325 -1.4194
17633SOL     OW53617   3.018   4.945   7.667  0.1792  0.4079  0.4769
17633SOL    HW153618   3.076   4.898   7.600 -1.0275  0.3274 -0.5449
17633SOL    HW253619   2.961   4.877   7.714  0.8124  0.4992  1.3843
17634SOL     OW53620   5.785   8.294   2.800  0.6159 -0.0874  0.4676
17634SOL    HW153621   5.854   8.364   2.821  1.2484 -0.3400 -0.7440
17634SOL    HW253622   5.796   8.263   2.706 -1.6173  0.3575  0.0317
17637SOL     OW53623   8.585   5.030   2.784  0.6875  0.0402  0.2134
17637SOL    HW153624   8.595   5.104   2.718 -1.7477  0.2589  0.0276
17637SOL    HW253625   8.609   5.064   2.875 -0.2967  1.0693  0.1151
17639SOL     OW53626   0.926   0.998   1.833  0.1738 -0.0435 -0.0118
17639SOL    HW153627   0.946   1.008   1.736  1.4963 -0.2768  0.2347
17639SOL    HW253628   0.872   0.915   1.848  0.4077 -0.2781 -0.4789
17640SOL     OW53629   2.463   9.927   4.344  0.3673  0.1529  0.8548
17640SOL    HW153630   2.460   9.977   4.257 -0.1483 -1.2702  0.0422
17640SOL    HW253631   2.395   9.967   4.406  1.0303  1.4520  0.7782
17641SOL     OW53632   7.814   2.554   3.116 -0.0235 -0.0267 -0.1558
17641SOL    HW153633   7.775   2.497   3.043  1.4457 -1.3495  0.0471
17641SOL    HW253634   7.785   2.649   3.104 -2.0907 -0.7093 -0.8248
17642SOL     OW53635   9.205   1.430   6.625 -0.3759 -0.3337 -0.0822
17642SOL    HW153636   9.120   1.432   6.572  0.2027  0.8021 -0.9962
17642SOL    HW253637   9.281   1.408   6.565  0.2023  0.3760  0.3796
17643SOL     OW53638   2.395   4.972   6.165 -0.4104  0.2578 -0.1113
17643SOL    HW153639   2.406   4.874   6.185 -1.0382  0.1851 -0.0964
17643SOL    HW253640   2.301   4.999   6.187  0.4803  1.4534  2.3707
17644SOL     OW53641   3.943   0.152   3.646  0.0271 -0.6059 -0.2118
17644SOL    HW153642   3.921   0.207   3.566  1.6345  0.5344  0.0993
17644SOL    HW253643   3.993   0.070   3.618  0.2832 -0.3829 -0.4020
17645SOL     OW53644   2.603   7.740   1.652  0.2194  0.2695  0.6145
17645SOL    HW153645   2.586   7.825   1.703 -1.0377 -0.0325  0.7129
17645SOL    HW253646   2.585   7.662   1.711  1.8854 -0.0742  0.6807
17646SOL     OW53647   7.239   1.368   0.885  0.4362 -0.2957  0.5390
17646SOL    HW153648   7.247   1.468   0.878  0.2433 -0.3211 -0.1075
17646SOL    HW253649   7.322   1.326   0.848 -0.7070 -0.4448 -1.9642
17647SOL     OW53650   7.911   0.924   7.122  0.5162  0.6062 -0.0128
17647SOL    HW153651   7.920   0.841   7.178 -0.2334  1.8198  1.9335
17647SOL    HW253652   8.000   0.945   7.080  1.1902 -0.1025  1.0331
17648SOL     OW53653   3.187   3.127   1.234 -0.2983 -0.0792 -0.0484
17648SOL    HW153654   3.131   3.044   1.224 -1.4185  0.6628  0.0117
17648SOL    HW253655   3.158   3.195   1.167  1.3272 -0.1050 -0.8058
17649SOL     OW53656   3.576   0.179   6.686 -0.3525  0.2261  0.2511
17649SOL    HW153657   3.580   0.215   6.593 -0.4090 -1.8117 -0.5589
17649SOL    HW253658   3.532   0.089   6.686  2.0983 -1.0337  1.8541
17650SOL     OW53659   5.751   0.577   3.651  0.0381  0.4099 -0.1323
17650SOL    HW153660   5.813   0.615   3.582 -0.2102 -0.2706 -0.7379
17650SOL    HW253661   5.656   0.589   3.621 -0.0404 -0.6974 -0.3443
17651SOL     OW53662   0.075   7.383   6.779 -1.1437 -0.3235  0.0034
17651SOL    HW153663   0.102   7.461   6.836 -0.6578 -0.1640 -0.4444
17651SOL    HW253664  -0.013   7.403   6.735  0.0389  0.8900 -1.8583
17652SOL     OW53665   2.193   4.728   1.082 -0.3226  0.7804  0.2527
17652SOL    HW153666   2.260   4.655   1.099 -0.0595  1.1370  0.7484
17652SOL    HW253667   2.238   4.817   1.091 -0.2993  0.9953 -1.7135
17653SOL     OW53668   0.054   1.749   4.970  0.0553 -0.1107  0.3943
17653SOL    HW153669   0.049   1.679   4.900 -1.4975 -1.0992  1.4630
17653SOL    HW253670  -0.035   1.793   4.980  0.9325  1.8424 -0.0616
17654SOL     OW53671   4.037   8.914   7.301  0.2330 -0.0338 -0.3939
17654SOL    HW153672   3.957   8.874   7.346 -0.0446 -0.7015 -1.4857
17654SOL    HW253673   4.084   8.974   7.366  0.4368 -1.8191  1.1462
17655SOL     OW53674   6.719   1.341   0.449 -0.6917  0.3186 -0.5041
17655SOL    HW153675   6.807   1.381   0.474 -0.0739  0.5217 -2.9173
17655SOL    HW253676   6.731   1.243   0.430 -0.8441  0.5056 -1.5692
17657SOL     OW53677   4.883   9.005   4.448  0.1564 -0.4797 -0.1638
17657SOL    HW153678   4.932   9.024   4.533  0.8447 -0.4262 -0.5670
17657SOL    HW253679   4.798   9.058   4.446 -0.6378 -1.6595  1.1787
17658SOL     OW53680   0.360   7.577   2.518 -0.4393  0.1036  0.0582
17658SOL    HW153681   0.421   7.567   2.597 -0.0877 -0.4929 -0.2778
17658SOL    HW253682   0.280   7.519   2.531  0.0029 -0.6191 -0.3789
17659SOL     OW53683   1.743   1.741   7.002 -0.0463 -0.2930 -0.0777
17659SOL    HW153684   1.748   1.678   6.925 -1.3175 -0.7624  0.1959
17659SOL    HW253685   1.725   1.833   6.969  0.3776 -0.3251 -0.3971
17660SOL     OW53686   8.016   9.667   5.799 -0.2792  0.3654 -0.3954
17660SOL    HW153687   8.009   9.574   5.763 -1.6963  0.1943  0.3049
17660SOL    HW253688   8.113   9.692   5.807  0.1089 -0.9587 -0.8020
17661SOL     OW53689   9.169   4.087   7.379 -0.3792 -0.0887 -0.2747
17661SOL    HW153690   9.189   4.030   7.299  1.9650 -0.7415  0.7611
17661SOL    HW253691   9.178   4.032   7.462  0.7993  1.4985  0.6651
17662SOL     OW53692   3.506   7.102   1.895 -0.0239  0.0839  0.0738
17662SOL    HW153693   3.452   7.093   1.979 -0.3347 -1.7953 -0.2955
17662SOL    HW253694   3.463   7.169   1.834 -0.1483  0.9796  1.1455
17663SOL     OW53695   3.921   0.897   6.009  0.8567 -0.0310  0.0262
17663SOL    HW153696   3.878   0.814   6.044  3.4936 -1.3952  0.1059
17663SOL    HW253697   4.010   0.910   6.053  1.5060  1.5709 -1.6818
17665SOL     OW53698   0.341   5.455   3.453 -0.5730 -0.0225 -0.1173
17665SOL    HW153699   0.301   5.406   3.530  0.5347  1.6115  1.5361
17665SOL    HW253700   0.313   5.551   3.455  0.1037  0.2157 -1.2878
17667SOL     OW53701   3.055   0.163   2.634  0.2168 -0.2835 -0.1735
17667SOL    HW153702   3.076   0.182   2.538 -0.4818  1.6047  0.0248
17667SOL    HW253703   2.965   0.201   2.656  0.2766 -0.9115  1.1719
17669SOL     OW53704   7.226   5.231   2.062 -0.0374  0.0221 -0.3510
17669SOL    HW153705   7.190   5.219   1.970 -3.7848  2.1543  0.7460
17669SOL    HW253706   7.200   5.153   2.119 -0.2676  0.1191 -0.3257
17670SOL     OW53707   9.634   8.727   1.873  0.1701 -0.1400 -0.4508
17670SOL    HW153708   9.581   8.680   1.801  1.0724 -2.2759  0.2260
17670SOL    HW253709   9.624   8.677   1.959  1.8869  0.4243  0.0942
17671SOL     OW53710   7.529   3.901   1.505  0.5571 -0.2495  0.1729
17671SOL    HW153711   7.443   3.899   1.454  0.2567  1.0196  0.6288
17671SOL    HW253712   7.527   3.974   1.573  2.0377 -0.1132  0.1009
17672SOL     OW53713   9.583   6.646   2.203 -0.2689  0.0822  0.6837
17672SOL    HW153714   9.646   6.724   2.194  0.5206 -0.6419 -0.1785
17672SOL    HW253715   9.555   6.615   2.112 -2.3868  0.7909  1.0723
17674SOL     OW53716   3.352   5.804   5.875  0.3368 -0.2313 -0.3883
17674SOL    HW153717   3.332   5.795   5.973  4.5344 -1.4666  0.4265
17674SOL    HW253718   3.314   5.890   5.842  0.5478  1.1830  2.8069
17675SOL     OW53719   2.605   2.673   7.082 -0.5794  0.8628 -0.3052
17675SOL    HW153720   2.581   2.699   6.988 -0.5145 -1.5412 -1.0180
17675SOL    HW253721   2.629   2.576   7.084  1.8256  1.4494  1.7599
17676SOL     OW53722   6.851   8.172   6.980  0.2091  0.4271 -0.1753
17676SOL    HW153723   6.753   8.190   6.989 -0.2210 -0.9863 -1.8174
17676SOL    HW253724   6.880   8.188   6.886  1.5472  0.7931  0.2909
17677SOL     OW53725   6.718   8.070   5.447 -0.5949 -0.1699  0.1090
17677SOL    HW153726   6.779   8.002   5.405  0.5168 -1.3314  3.4043
17677SOL    HW253727   6.771   8.147   5.480 -1.2289 -0.0182  0.7956
17678SOL     OW53728   0.339   4.515   3.347 -0.8333  0.2276  0.1797
17678SOL    HW153729   0.420   4.545   3.295  0.0657  2.1910  2.5628
17678SOL    HW253730   0.368   4.482   3.436 -2.5630 -0.4529  0.5027
17679SOL     OW53731   1.964   1.288   3.347 -0.4526 -0.1574 -0.0452
17679SOL    HW153732   1.864   1.295   3.342 -0.3569  0.6961 -0.8519
17679SOL    HW253733   2.004   1.379   3.346  0.4046 -0.5327 -1.4369
17680SOL     OW53734   8.423   8.273   1.438  0.1716  0.0636  0.2993
17680SOL    HW153735   8.412   8.179   1.407  0.2497  0.4488 -0.9183
17680SOL    HW253736   8.409   8.336   1.362  1.4085  0.9939  0.8116
17681SOL     OW53737   0.798   3.120   0.345 -0.8132  0.3172  0.0056
17681SOL    HW153738   0.894   3.118   0.373  0.1557  0.3183 -3.0696
17681SOL    HW253739   0.754   3.033   0.368  0.1989 -0.0581  0.5207
17682SOL     OW53740   7.302   5.902   1.013  0.6137  0.0566 -0.7880
17682SOL    HW153741   7.268   5.812   1.040  0.2182 -0.1052 -1.8118
17682SOL    HW253742   7.348   5.945   1.091  0.2411 -0.7591 -0.1122
17684SOL     OW53743   2.167   5.634   7.399  0.3816 -0.2615  0.8983
17684SOL    HW153744   2.175   5.639   7.299 -0.9402 -0.9665  0.7456
17684SOL    HW253745   2.184   5.725   7.438 -1.8200  0.6714 -0.1998
17685SOL     OW53746   7.109   9.092   4.555  0.2214 -0.5132  0.2375
17685SOL    HW153747   7.125   9.088   4.654  0.8778  0.8478  0.1950
17685SOL    HW253748   7.065   9.007   4.525  1.0288 -1.4063  1.5172
17686SOL     OW53749   2.870   8.480   4.949 -0.2938 -0.3664  0.5598
17686SOL    HW153750   2.927   8.556   4.919  0.5125 -1.1230  0.1746
17686SOL    HW253751   2.922   8.395   4.944 -1.9967 -1.3312 -1.5669
17687SOL     OW53752   2.160   5.801   5.064 -0.1156 -0.4300 -0.8774
17687SOL    HW153753   2.254   5.768   5.068  0.1356  0.3075 -0.4338
17687SOL    HW253754   2.142   5.860   5.143 -1.4322 -1.8010 -0.1327
17688SOL     OW53755   5.520   0.901   6.338  0.2560 -0.6053  0.2385
17688SOL    HW153756   5.517   0.813   6.385 -0.7722 -0.8585 -0.2715
17688SOL    HW253757   5.440   0.909   6.278 -0.0675  1.0048  0.8672
17691SOL     OW53758   9.235   4.339   3.132  0.3996 -0.0684 -0.0157
17691SOL    HW153759   9.195   4.415   3.184  0.5007 -1.0126  1.4851
17691SOL    HW253760   9.333   4.352   3.124  0.3700  0.1347 -0.0630
17692SOL     OW53761   7.800   9.073   6.535 -0.5275  0.4273  0.3840
17692SOL    HW153762   7.709   9.096   6.570 -0.3819  0.3240  0.8314
17692SOL    HW253763   7.840   9.153   6.490 -1.0040  0.3589 -0.1730
17694SOL     OW53764   4.042   1.847   5.133 -0.4628 -0.0058  0.6065
17694SOL    HW153765   4.141   1.847   5.125 -0.3618  0.5226  1.7252
17694SOL    HW253766   4.005   1.931   5.095 -0.5869 -0.7074 -0.8596
17695SOL     OW53767   1.940   6.598   2.579  0.5729  0.4176 -0.7296
17695SOL    HW153768   1.953   6.572   2.483 -0.8500  0.9235 -1.0775
17695SOL    HW253769   1.913   6.694   2.584 -0.8176  0.0029  0.0624
17696SOL     OW53770   5.857   1.893   0.605 -0.9956  0.1879 -0.6674
17696SOL    HW153771   5.826   1.812   0.554 -1.1225 -0.6115  0.6550
17696SOL    HW253772   5.788   1.917   0.673 -0.2232  0.4466  0.0208
17698SOL     OW53773   6.585   2.466   3.445 -0.0867 -0.5104  0.3481
17698SOL    HW153774   6.683   2.488   3.438  0.1776 -1.9648 -1.0330
17698SOL    HW253775   6.532   2.533   3.394  0.2028  0.2044  0.9828
17700SOL     OW53776   5.166   2.730   1.582  0.3156  0.2336  0.0332
17700SOL    HW153777   5.098   2.797   1.553 -0.4706 -1.0244 -1.0874
17700SOL    HW253778   5.194   2.750   1.677 -0.4833  1.6446 -0.0089
17701SOL     OW53779   9.779   1.729   4.986 -0.3434  0.0273 -0.9035
17701SOL    HW153780   9.692   1.777   4.995 -1.0368 -1.4133  0.2828
17701SOL    HW253781   9.763   1.635   4.956  0.8765  0.0205 -1.5766
17702SOL     OW53782   0.205   1.027   7.648  0.0112 -0.4732  0.4775
17702SOL    HW153783   0.118   1.036   7.697  0.3514  0.6706  0.8664
17702SOL    HW253784   0.191   0.969   7.567 -1.1322 -0.2129  0.4782
17703SOL     OW53785   7.040   9.026   7.214 -0.4682  0.1580  0.0410
17703SOL    HW153786   6.982   9.048   7.135 -0.0916  0.7559 -0.0738
17703SOL    HW253787   7.034   8.928   7.234  0.8154 -0.3308 -1.8329
17704SOL     OW53788   8.200   1.090   4.995  0.1591  0.3893  0.1039
17704SOL    HW153789   8.146   1.031   4.934  0.3893 -1.5782  1.7376
17704SOL    HW253790   8.293   1.097   4.961  0.4812 -1.3013  0.5791
17705SOL     OW53791   1.180   5.208   0.466 -0.6822 -0.6035  0.2466
17705SOL    HW153792   1.153   5.304   0.472 -0.0776 -0.5427  2.2702
17705SOL    HW253793   1.245   5.196   0.391 -0.1652  0.7207  0.4764
17706SOL     OW53794   3.545   0.530   6.949  0.7108  0.1949  0.2767
17706SOL    HW153795   3.594   0.612   6.979  1.1142 -0.1091  0.4594
17706SOL    HW253796   3.612   0.463   6.914  0.5056 -0.5477  1.2793
17710SOL     OW53797   0.704   8.904   3.290 -0.3436  0.1739  0.3558
17710SOL    HW153798   0.725   8.963   3.212  0.6732 -1.0218 -0.3078
17710SOL    HW253799   0.642   8.951   3.353 -3.4198  0.2134 -2.5241
17711SOL     OW53800   9.596   4.046   4.953 -0.2753  0.4717 -0.5659
17711SOL    HW153801   9.559   4.054   5.046 -1.2150 -1.0658 -0.7922
17711SOL    HW253802   9.695   4.056   4.956 -0.1650 -0.8685  0.7991
17712SOL     OW53803   5.428   1.880   1.385  0.2158  0.0096  0.2820
17712SOL    HW153804   5.347   1.841   1.341  1.2129 -2.0120  0.2042
17712SOL    HW253805   5.448   1.969   1.344 -0.6123 -0.5022 -1.2937
17713SOL     OW53806   6.272   0.669   5.323  0.2525 -0.2987  0.0279
17713SOL    HW153807   6.284   0.684   5.421 -2.6372  0.2618  0.3567
17713SOL    HW253808   6.256   0.572   5.305  0.3181 -0.3350  0.1672
17714SOL     OW53809   8.663   4.307   3.639  0.2385  0.8350 -0.0233
17714SOL    HW153810   8.721   4.315   3.721  0.4296 -4.6434  0.5809
17714SOL    HW253811   8.587   4.245   3.658 -1.3960  1.7485 -3.2012
17715SOL     OW53812   7.359   2.159   2.639 -0.4221 -0.5119  0.1629
17715SOL    HW153813   7.459   2.158   2.643 -0.4226  0.6572  0.6750
17715SOL    HW253814   7.324   2.066   2.631  0.7155 -0.9102 -0.1422
17716SOL     OW53815   8.447   1.642   4.754 -0.5693 -0.3827 -0.1547
17716SOL    HW153816   8.503   1.709   4.803 -0.9552 -0.1032 -0.0851
17716SOL    HW253817   8.441   1.667   4.658 -0.0541 -0.7652 -0.2854
17717SOL     OW53818   0.042   4.845   2.352  0.4505 -0.4349 -0.5098
17717SOL    HW153819   0.017   4.764   2.298  0.6774  0.4558 -1.9709
17717SOL    HW253820   0.101   4.904   2.298  0.5458  0.5655  0.6735
17718SOL     OW53821   5.243   2.752   4.519 -0.0519  0.3182 -0.0923
17718SOL    HW153822   5.194   2.798   4.444  0.2115  0.3387 -0.2502
17718SOL    HW253823   5.198   2.664   4.538  0.7346 -0.3416 -1.2297
17719SOL     OW53824   3.487   6.606   1.480 -0.6309  0.4829  0.3628
17719SOL    HW153825   3.459   6.633   1.572 -0.8361 -1.6115  0.9431
17719SOL    HW253826   3.583   6.632   1.466  0.0411 -1.0031  1.9516
17720SOL     OW53827   8.179   7.261   4.199  0.5559 -0.2780  1.1006
17720SOL    HW153828   8.197   7.162   4.198  2.8475  0.0930  1.9381
17720SOL    HW253829   8.256   7.308   4.242  1.4818  2.2949 -3.0640
17721SOL     OW53830   8.487   7.560   5.423  0.0853  0.5736 -0.1959
17721SOL    HW153831   8.404   7.605   5.390 -0.0140 -0.3133 -1.1913
17721SOL    HW253832   8.540   7.526   5.345  0.0592 -1.1934  0.5307
17722SOL     OW53833   9.959   9.500   2.814  0.2859  0.5825  0.2990
17722SOL    HW153834  10.035   9.536   2.761  0.2332  1.2721  0.6867
17722SOL    HW253835   9.873   9.536   2.778  0.1583 -0.0054  0.0102
17723SOL     OW53836   8.728   7.234   3.426 -1.0742  0.4975  0.3753
17723SOL    HW153837   8.734   7.285   3.340  0.5495 -0.3521 -0.0271
17723SOL    HW253838   8.698   7.140   3.407 -0.4369  0.2248  0.6976
17725SOL     OW53839   9.696   5.627   0.461  0.0046  0.3977 -0.2328
17725SOL    HW153840   9.704   5.683   0.378 -0.4505  1.2538  0.2989
17725SOL    HW253841   9.632   5.552   0.443 -0.2677  0.7111 -0.5926
17726SOL     OW53842   1.908   1.790   6.684  0.0933  0.2483 -0.2383
17726SOL    HW153843   1.907   1.869   6.744  1.0888 -0.9060  1.3416
17726SOL    HW253844   1.868   1.711   6.731  1.4017 -0.8113 -0.8426
17727SOL     OW53845   7.044   8.461   2.908  0.0921 -0.0435 -0.3839
17727SOL    HW153846   7.125   8.405   2.926 -0.4097 -0.1827  1.6188
17727SOL    HW253847   6.965   8.421   2.955 -0.8687  0.7885 -1.2666
17729SOL     OW53848   6.274   5.708   0.563  0.0129  0.1499  0.2360
17729SOL    HW153849   6.361   5.700   0.513 -0.7981  0.5209 -1.2487
17729SOL    HW253850   6.239   5.801   0.554  0.1623  0.4003  2.0482
17730SOL     OW53851   2.176   7.325   4.358  0.1569  0.2726  0.3621
17730SOL    HW153852   2.112   7.354   4.287 -1.3842 -1.0633  1.2041
17730SOL    HW253853   2.128   7.277   4.430  2.0046 -0.1274  1.3728
17731SOL     OW53854   4.236   5.118   4.623 -0.3067  0.5721 -0.7567
17731SOL    HW153855   4.270   5.132   4.530 -1.3218 -3.0705 -1.7812
17731SOL    HW253856   4.313   5.109   4.686  0.4619  0.1308 -1.7488
17732SOL     OW53857   8.653   2.326   2.915  0.1676  0.1125  0.0421
17732SOL    HW153858   8.602   2.412   2.921 -1.2095 -0.7228  0.6251
17732SOL    HW253859   8.733   2.330   2.974 -0.1759  0.8227  0.4636
17733SOL     OW53860   4.995   0.796   4.354  0.1156  0.0544  0.0879
17733SOL    HW153861   4.914   0.811   4.411 -0.5090 -0.8823 -0.5310
17733SOL    HW253862   4.967   0.780   4.260  1.0230 -0.2975 -0.1318
17734SOL     OW53863   0.111   4.261   1.338 -0.1197 -0.1128  0.0037
17734SOL    HW153864   0.080   4.166   1.327  2.3693 -1.1092  1.0953
17734SOL    HW253865   0.140   4.296   1.249 -2.0837  0.0329 -0.6036
17735SOL     OW53866   6.068   2.862   0.325  0.2767  0.2890  0.3583
17735SOL    HW153867   6.148   2.830   0.376  0.7304 -0.9562 -1.0752
17735SOL    HW253868   6.074   2.829   0.230 -0.4181  2.7628 -0.5681
17736SOL     OW53869   4.112   6.325   2.784  0.2078  0.0628 -0.1166
17736SOL    HW153870   4.184   6.349   2.849  0.4531  0.8029 -0.6503
17736SOL    HW253871   4.150   6.324   2.691 -0.2743 -0.3994 -0.3119
17737SOL     OW53872   5.648   6.734   0.162 -0.3114 -0.3456  0.5212
17737SOL    HW153873   5.585   6.810   0.181 -0.6749 -0.5248  0.0442
17737SOL    HW253874   5.676   6.737   0.066  1.2291  0.3348  0.9842
17738SOL     OW53875   2.663   4.670   5.848 -0.2529  0.4928  0.0754
17738SOL    HW153876   2.586   4.730   5.829 -1.0214 -0.5875 -0.2587
17738SOL    HW253877   2.633   4.575   5.848  1.0812  0.0537 -0.0747
17739SOL     OW53878   7.880   3.423   5.330 -0.1687  0.3630  0.1627
17739SOL    HW153879   7.872   3.358   5.254  0.6823  1.1988 -0.6639
17739SOL    HW253880   7.806   3.407   5.396 -1.1397 -0.1406 -1.0209
17740SOL     OW53881   1.902   9.890   1.131 -0.1822 -0.5955 -0.5663
17740SOL    HW153882   1.953   9.806   1.111  0.4728  0.1422 -2.1059
17740SOL    HW253883   1.850   9.918   1.050  0.2085  0.8924 -0.3323
17742SOL     OW53884   7.785   5.854   2.227 -0.4931  0.9334 -0.5182
17742SOL    HW153885   7.708   5.861   2.164 -2.1876 -2.3484  1.0642
17742SOL    HW253886   7.750   5.838   2.320  2.0932  0.3460  0.3770
17743SOL     OW53887   1.470   5.479   6.396  0.4373  0.0175 -0.3069
17743SOL    HW153888   1.555   5.461   6.347  1.1212  0.1325  0.8366
17743SOL    HW253889   1.422   5.556   6.352  0.1875 -1.0030 -1.8458
17746SOL     OW53890   5.987   8.939   6.561 -0.2443  0.2589  0.1983
17746SOL    HW153891   6.043   9.007   6.608 -2.4855  0.0982  3.2710
17746SOL    HW253892   6.019   8.847   6.584  0.5295  0.2054 -1.0498
17747SOL     OW53893   3.930   6.815   7.593 -0.2140 -0.6642  0.1907
17747SOL    HW153894   3.975   6.740   7.544 -0.1088 -0.4251 -0.0791
17747SOL    HW253895   3.901   6.783   7.683 -0.2385 -1.0525  0.0472
17748SOL     OW53896   9.687   5.178   7.392 -0.0239 -0.1184 -0.4693
17748SOL    HW153897   9.785   5.178   7.411 -0.1277  0.0864  0.0874
17748SOL    HW253898   9.637   5.197   7.477 -0.5544 -0.4932 -0.6986
17749SOL     OW53899   1.594   8.216   1.276  0.5137  0.3412  0.2157
17749SOL    HW153900   1.514   8.163   1.305  1.4389 -0.5379  1.1534
17749SOL    HW253901   1.597   8.301   1.328  0.2390  0.3464  0.2276
17752SOL     OW53902   7.973   4.596   1.452 -0.1543 -0.1098 -0.1455
17752SOL    HW153903   7.955   4.630   1.359  0.1786  0.2024 -0.0980
17752SOL    HW253904   8.063   4.626   1.481  0.0561 -0.8528 -0.0136
17755SOL     OW53905   5.956   4.257   0.369 -0.4348  0.0549  0.3835
17755SOL    HW153906   5.992   4.164   0.358 -0.0713  0.2329  0.0553
17755SOL    HW253907   5.861   4.259   0.339 -0.1959 -0.0281 -0.3967
17757SOL     OW53908   3.617   9.141   3.907  0.3767  0.2250 -0.2964
17757SOL    HW153909   3.530   9.101   3.879  0.9124 -0.9448 -0.3104
17757SOL    HW253910   3.643   9.105   3.997 -0.0505  1.9764  0.5647
17758SOL     OW53911   0.109   5.124   4.365  0.5618 -0.8040 -0.1080
17758SOL    HW153912   0.070   5.177   4.440  0.9889  0.7936 -0.9864
17758SOL    HW253913   0.048   5.049   4.341 -1.2610  0.7558 -0.4766
17759SOL     OW53914   2.198   1.850   1.244 -0.5741 -0.0107 -0.2149
17759SOL    HW153915   2.206   1.774   1.308  1.7223 -0.2210 -0.7078
17759SOL    HW253916   2.253   1.832   1.163  0.0455  2.1791 -0.3357
17761SOL     OW53917   8.685   5.096   7.925  0.3489  0.0457  0.0799
17761SOL    HW153918   8.591   5.073   7.899 -1.1100  1.6031  3.7153
17761SOL    HW253919   8.698   5.079   8.022  2.9724  2.6401  0.2402
17762SOL     OW53920   8.353   8.225   5.011  0.3897 -0.3981  0.0089
17762SOL    HW153921   8.276   8.162   5.000 -0.1897  0.5142 -1.3992
17762SOL    HW253922   8.376   8.265   4.922  0.2114  2.0091  1.0019
17763SOL     OW53923   3.195   9.546   5.730  0.4380 -0.3571  0.5728
17763SOL    HW153924   3.152   9.457   5.713  0.3651 -0.3649  0.7900
17763SOL    HW253925   3.294   9.533   5.740  0.4456 -0.3927  0.4471
17764SOL     OW53926   7.860   6.979   2.466  0.3869  0.0679  0.3495
17764SOL    HW153927   7.945   6.963   2.416  0.8239  2.4012  0.2869
17764SOL    HW253928   7.875   7.047   2.537 -2.0144  2.5604 -1.4018
17765SOL     OW53929   1.037   0.561   1.344  0.3586  0.0422 -0.3016
17765SOL    HW153930   1.042   0.483   1.281  0.9974 -0.8623  0.8531
17765SOL    HW253931   0.949   0.558   1.392  0.8018 -0.5440  0.4768
17766SOL     OW53932   8.960   6.640   0.180 -0.2056  0.4404  0.1774
17766SOL    HW153933   9.028   6.594   0.122 -0.7584  0.7938 -0.7544
17766SOL    HW253934   8.930   6.576   0.251  1.6381  0.5174  1.0665
17767SOL     OW53935   8.295   0.440   3.738 -0.0542  0.3628 -0.2242
17767SOL    HW153936   8.357   0.405   3.668 -1.3474  1.4421 -1.9430
17767SOL    HW253937   8.250   0.364   3.785 -0.8148 -0.3491 -2.0604
17768SOL     OW53938   3.935   6.602   4.278  0.8911 -0.2336  0.0482
17768SOL    HW153939   3.963   6.642   4.191 -0.6645 -0.2639 -0.4843
17768SOL    HW253940   3.871   6.663   4.324  0.8047 -0.7500  0.6216
17769SOL     OW53941   6.407   0.161   4.643  0.2154 -0.1376  1.0552
17769SOL    HW153942   6.329   0.110   4.678  1.0438 -1.1916  1.4077
17769SOL    HW253943   6.376   0.233   4.581 -0.9553 -1.3040  0.2707
17770SOL     OW53944   9.473   8.575   7.560  0.1853 -0.3762  0.2970
17770SOL    HW153945   9.455   8.483   7.526 -1.4690 -0.0335  0.2068
17770SOL    HW253946   9.495   8.635   7.484  0.0251 -0.4064  0.2277
17771SOL     OW53947   8.407   1.392   3.211 -0.3743  0.1615 -0.2873
17771SOL    HW153948   8.346   1.415   3.286 -0.4494 -0.2439 -0.2212
17771SOL    HW253949   8.469   1.318   3.239  0.0804  0.5053 -0.3846
17772SOL     OW53950   5.221   9.025   2.331  0.7434  0.2847  0.0705
17772SOL    HW153951   5.160   8.992   2.402  1.0630  0.5292  0.4618
17772SOL    HW253952   5.286   8.953   2.306 -0.9878 -0.6988 -1.8086
17773SOL     OW53953   6.241   8.328   6.969  0.0332 -0.0914  0.1815
17773SOL    HW153954   6.239   8.362   6.875 -0.0295  1.9325  0.9006
17773SOL    HW253955   6.313   8.374   7.020  0.0080 -1.1173  1.1703
17774SOL     OW53956   9.992   5.377   0.352  0.1635 -0.0669  0.2505
17774SOL    HW153957   9.977   5.445   0.280  0.9949  0.2911  0.4127
17774SOL    HW253958   9.954   5.289   0.323  0.3567  0.1141 -0.5658
17775SOL     OW53959   5.651   8.078   3.809  0.0112  0.6315  0.3063
17775SOL    HW153960   5.648   7.999   3.748 -1.6663  1.6758 -1.0105
17775SOL    HW253961   5.558   8.114   3.822  0.5038  1.2663  2.3981
17778SOL     OW53962   1.710   3.963   1.093  0.5186 -0.1505  0.0343
17778SOL    HW153963   1.675   3.869   1.084  1.0554 -0.5081  1.5795
17778SOL    HW253964   1.722   3.985   1.189  0.0800  1.6426 -0.3085
17780SOL     OW53965   3.803   3.900   7.608 -0.0283 -0.2746 -0.3744
17780SOL    HW153966   3.876   3.872   7.545  0.5805  0.5860 -0.0525
17780SOL    HW253967   3.814   3.850   7.695 -0.6227 -1.1497 -0.7977
17782SOL     OW53968   2.028   0.238   1.932 -0.3526  0.5242 -0.9151
17782SOL    HW153969   1.962   0.205   1.865  0.6823 -0.5472 -1.4075
17782SOL    HW253970   1.983   0.250   2.021 -1.3616  0.4726 -1.4213
17783SOL     OW53971   7.201   3.578   3.906  0.3335  0.1599 -0.2441
17783SOL    HW153972   7.298   3.600   3.891  0.9063 -0.5401  2.2661
17783SOL    HW253973   7.189   3.539   3.997 -2.6975  2.5384  0.4782
17784SOL     OW53974   4.609   9.826   4.321 -0.1887 -0.1020 -0.0896
17784SOL    HW153975   4.687   9.816   4.383  0.2182  0.8926 -0.4413
17784SOL    HW253976   4.621   9.767   4.242  0.2804  0.1664 -0.2169
17785SOL     OW53977   9.010   5.626   5.162 -0.1868  0.2457  0.4236
17785SOL    HW153978   8.945   5.591   5.231 -0.5312  1.9930  1.0281
17785SOL    HW253979   8.962   5.690   5.102  0.3798 -0.4538 -0.7740
17786SOL     OW53980   8.004   8.455   1.978 -0.6095 -0.1390 -0.3509
17786SOL    HW153981   8.034   8.371   1.934 -1.1409 -0.2753 -0.4621
17786SOL    HW253982   7.928   8.434   2.040  0.2892  0.0050  0.8211
17787SOL     OW53983   7.772   5.871   2.964  0.4993  0.6438  0.2047
17787SOL    HW153984   7.822   5.952   2.935  0.5988  0.5909  0.2303
17787SOL    HW253985   7.830   5.813   3.021  0.4050  0.5903  0.2479
17788SOL     OW53986   8.290   3.892   4.529  0.3449 -0.1909 -0.1847
17788SOL    HW153987   8.316   3.988   4.525 -1.6220  0.5161  2.2272
17788SOL    HW253988   8.191   3.884   4.516  0.1618 -1.6552  1.8727
17790SOL     OW53989   8.475   7.999   5.402 -0.1838 -0.2319  0.0617
17790SOL    HW153990   8.419   8.066   5.355 -0.5717 -1.4909 -1.3158
17790SOL    HW253991   8.564   7.992   5.356 -0.7398 -1.8127 -0.7861
17793SOL     OW53992   8.536   3.020   7.033 -0.6224  0.2656  0.6563
17793SOL    HW153993   8.570   2.932   7.065  0.2789  0.5097  0.3906
17793SOL    HW253994   8.571   3.038   6.941 -0.2896  1.1737  0.9503
17794SOL     OW53995   3.111   6.468   5.354 -0.1380  0.1492  0.2783
17794SOL    HW153996   3.090   6.536   5.284  0.0919  1.3393  1.3521
17794SOL    HW253997   3.194   6.494   5.403  1.5185 -2.3189 -1.0874
17795SOL     OW53998   3.344   8.258   3.031 -0.2634 -0.3022 -0.0902
17795SOL    HW153999   3.339   8.247   2.932  3.5072 -1.5545 -0.2531
17795SOL    HW254000   3.276   8.201   3.075 -0.3512 -1.6422 -1.9084
17796SOL     OW54001   1.091   2.943   4.556  0.2253 -0.4214 -0.0798
17796SOL    HW154002   1.158   2.972   4.487 -0.3546 -1.2531 -0.9902
17796SOL    HW254003   0.999   2.966   4.524 -0.0257 -0.5799  0.5345
17798SOL     OW54004   5.820   8.060   6.031 -0.7082  0.2768 -0.1072
17798SOL    HW154005   5.879   8.132   6.069  0.0443 -0.6274  0.4543
17798SOL    HW254006   5.869   7.973   6.031 -2.2071 -0.5910  0.8209
17799SOL     OW54007   4.323   9.497   5.405  0.2989  0.1566 -0.3169
17799SOL    HW154008   4.334   9.579   5.462  0.1987  0.5117 -0.8045
17799SOL    HW254009   4.351   9.518   5.311  1.2735 -0.6590 -0.2183
17800SOL     OW54010   5.684   0.905   6.126  0.0488 -0.1791  0.2137
17800SOL    HW154011   5.636   0.921   6.212  1.5457  2.3830  0.6291
17800SOL    HW254012   5.780   0.882   6.145 -0.0186 -1.2645 -0.7230
17801SOL     OW54013   0.318   2.505   4.344  0.5796 -0.2121 -0.1346
17801SOL    HW154014   0.363   2.438   4.286 -0.1272 -0.6525 -0.1775
17801SOL    HW254015   0.284   2.581   4.289 -0.8197 -1.0280 -0.4106
17802SOL     OW54016   4.596   9.556   1.563 -0.1718  0.0857 -0.8496
17802SOL    HW154017   4.688   9.521   1.548 -0.6636 -0.8047 -1.8049
17802SOL    HW254018   4.536   9.482   1.592 -0.7536  0.5189 -0.9216
17804SOL     OW54019   7.189   7.166   4.442 -0.2451  0.3675  0.3425
17804SOL    HW154020   7.274   7.205   4.475 -0.2499  0.1459  0.6138
17804SOL    HW254021   7.136   7.131   4.519 -0.8407  1.0145  0.2396
17805SOL     OW54022   3.664   3.205   1.024  0.3873  0.2544 -0.0121
17805SOL    HW154023   3.571   3.188   1.056 -0.0091 -0.6368 -1.6060
17805SOL    HW254024   3.670   3.298   0.988 -0.6175 -0.5537 -2.3709
17807SOL     OW54025   4.825   4.794   7.736 -0.2005 -0.4687  0.2794
17807SOL    HW154026   4.840   4.875   7.791 -0.8906 -1.0104  1.2790
17807SOL    HW254027   4.889   4.793   7.659  0.3770  0.5794  0.7437
17808SOL     OW54028   5.821   9.909   3.097 -0.2325  0.5439  0.1329
17808SOL    HW154029   5.804   9.981   3.164 -0.5293  1.1926 -0.6223
17808SOL    HW254030   5.795   9.942   3.006 -1.4561 -0.9112 -0.0783
17809SOL     OW54031   0.318   8.714   4.567  0.0930  0.2131 -0.2522
17809SOL    HW154032   0.340   8.812   4.575 -2.5781  0.8181 -0.0632
17809SOL    HW254033   0.274   8.697   4.479  3.0024 -1.3600 -1.4929
17811SOL     OW54034   1.341   0.995   2.123  0.1885 -0.0869  0.2300
17811SOL    HW154035   1.287   1.017   2.042 -0.1496 -0.0083  0.4761
17811SOL    HW254036   1.430   0.960   2.095  0.3061  0.5379 -0.1687
17812SOL     OW54037   9.116   8.282   3.474 -0.6255 -0.1195 -0.1287
17812SOL    HW154038   9.136   8.188   3.444 -0.0513  0.2757 -1.0049
17812SOL    HW254039   9.193   8.341   3.450 -0.7763  0.4881  0.8612
17814SOL     OW54040   0.909   4.895   5.459  0.1875 -0.2339 -0.2255
17814SOL    HW154041   0.864   4.969   5.508  0.5674  0.0905 -0.3634
17814SOL    HW254042   0.841   4.829   5.428 -0.0022 -0.7420  1.2253
17815SOL     OW54043   8.981   4.060   0.897 -0.3581 -0.2660 -0.5890
17815SOL    HW154044   8.896   4.113   0.886  1.1555  2.4514  0.4509
17815SOL    HW254045   8.979   4.011   0.984 -0.5054  0.5142 -0.1441
17816SOL     OW54046   1.272   1.303   7.521  0.2705 -0.3992  0.6419
17816SOL    HW154047   1.209   1.289   7.598  0.7361 -0.4344  1.0209
17816SOL    HW254048   1.220   1.327   7.439 -0.4841 -3.4951  0.1697
17819SOL     OW54049   9.942   2.374   2.001  0.1394  0.0299 -0.2416
17819SOL    HW154050   9.913   2.281   1.982  1.4309 -0.5350  0.4786
17819SOL    HW254051  10.019   2.398   1.942 -0.9295  1.0532 -1.2349
17820SOL     OW54052   9.551   6.679   4.993 -0.1213 -0.0129 -0.5056
17820SOL    HW154053   9.471   6.634   5.032 -0.3582 -1.0077 -2.0797
17820SOL    HW254054   9.539   6.685   4.893  1.2141  0.9308 -0.6085
17821SOL     OW54055   1.119   6.965   5.527 -0.4163 -0.1248 -0.1339
17821SOL    HW154056   1.088   6.945   5.620 -0.9433 -1.4892 -0.5994
17821SOL    HW254057   1.127   7.064   5.516  0.6758  0.0326  1.6912
17822SOL     OW54058   6.724   2.827   3.554  0.0772 -0.0113  0.4949
17822SOL    HW154059   6.753   2.916   3.588  1.2631 -0.5166  0.8240
17822SOL    HW254060   6.771   2.807   3.468  0.3887 -0.6429  0.8053
17823SOL     OW54061   3.498   7.448   1.269 -0.7169  0.0611  0.0726
17823SOL    HW154062   3.449   7.505   1.203 -2.1337 -0.9192  0.2598
17823SOL    HW254063   3.473   7.352   1.255  1.2336 -0.4811  0.1051
17824SOL     OW54064   7.524   7.014   6.514  0.1341  0.1079 -0.0997
17824SOL    HW154065   7.552   7.106   6.540  1.9861 -0.1809 -1.0094
17824SOL    HW254066   7.431   7.016   6.478  0.3378  1.7009 -0.5461
17825SOL     OW54067   4.157   0.103   2.917  0.6013 -0.0554  0.2194
17825SOL    HW154068   4.189   0.012   2.942  0.6558 -0.7132 -2.0892
17825SOL    HW254069   4.220   0.172   2.952  1.5685 -1.0196  0.3985
17826SOL     OW54070   2.119   8.297   6.558  0.3241  0.5768 -0.0674
17826SOL    HW154071   2.119   8.219   6.621 -0.8171  1.9197  1.6521
17826SOL    HW254072   2.080   8.376   6.604  3.6053  2.8313 -0.9514
17827SOL     OW54073   7.536   7.439   6.058  0.1357  0.2814  0.0464
17827SOL    HW154074   7.494   7.522   6.095  0.6585  0.0198  1.2356
17827SOL    HW254075   7.636   7.447   6.062  0.2735  1.0694 -3.1462
17828SOL     OW54076   3.444   4.178   5.059 -0.3285  0.0109  0.1572
17828SOL    HW154077   3.424   4.224   5.145  0.1307  1.5581 -0.5381
17828SOL    HW254078   3.539   4.195   5.033 -1.0817  1.4874 -1.7733
17830SOL     OW54079   6.804   1.478   4.514 -0.2649 -0.6670 -0.1263
17830SOL    HW154080   6.727   1.415   4.517  0.3975 -1.5354 -0.8784
17830SOL    HW254081   6.818   1.509   4.420 -0.7975  0.8906  0.2870
17831SOL     OW54082   6.801   4.707   3.059  0.2065 -0.2257 -0.1471
17831SOL    HW154083   6.890   4.750   3.076  0.4146 -0.8807  0.4131
17831SOL    HW254084   6.728   4.767   3.091  0.5082 -0.4106  0.9045
17832SOL     OW54085   6.455   8.020   5.445  0.4183  0.1482 -0.2891
17832SOL    HW154086   6.540   8.067   5.465  0.1777  0.4913 -0.0716
17832SOL    HW254087   6.472   7.921   5.440  0.8050  0.2073 -0.1511
17833SOL     OW54088   2.634   0.453   0.495  0.0094  0.7375 -0.5795
17833SOL    HW154089   2.594   0.384   0.435  1.1633 -0.2301 -0.2447
17833SOL    HW254090   2.604   0.436   0.589 -2.1352  2.4997 -0.8931
17835SOL     OW54091   3.439   8.508   0.521 -0.1853 -0.3326 -0.2989
17835SOL    HW154092   3.526   8.538   0.561 -0.5178  0.3877 -0.1137
17835SOL    HW254093   3.431   8.544   0.428  0.3439 -1.5615 -0.8253
17836SOL     OW54094   4.183   6.671   3.767 -0.0279 -0.4382 -0.6029
17836SOL    HW154095   4.092   6.645   3.735  0.1371 -1.5391 -0.2027
17836SOL    HW254096   4.175   6.738   3.841 -0.5566 -1.3748  0.1948
17838SOL     OW54097   5.145   3.950   6.975  0.0815  0.2096  0.2375
17838SOL    HW154098   5.169   4.045   6.996  0.1625  0.3315 -0.3907
17838SOL    HW254099   5.203   3.888   7.028 -0.8117  0.5035  1.5877
17839SOL     OW54100   7.732   8.145   7.284 -0.1893 -0.3225 -0.7271
17839SOL    HW154101   7.675   8.226   7.269 -0.4926 -0.4921 -0.4765
17839SOL    HW254102   7.716   8.079   7.210  1.3691  0.5829 -1.9344
17840SOL     OW54103   6.490   7.501   3.321 -0.3603 -0.1313  0.3369
17840SOL    HW154104   6.471   7.437   3.396 -0.8456 -0.8248 -0.3786
17840SOL    HW254105   6.570   7.556   3.345  0.2543 -1.2136  0.8286
17842SOL     OW54106   0.954   5.352   4.361  0.0785 -0.0617 -0.0723
17842SOL    HW154107   0.857   5.332   4.349  0.2453 -0.8340 -0.1514
17842SOL    HW254108   0.968   5.451   4.357 -0.7003  0.0541 -0.0782
17844SOL     OW54109   1.533   9.324   3.530 -0.2917  0.3894  0.0799
17844SOL    HW154110   1.565   9.360   3.617 -3.0029  2.1945  0.3932
17844SOL    HW254111   1.589   9.246   3.503  1.1311  0.3501  2.9936
17845SOL     OW54112   3.601   9.899   5.418 -0.3394 -0.2858 -0.0875
17845SOL    HW154113   3.612   9.960   5.340 -0.8887  0.6058  0.5249
17845SOL    HW254114   3.674   9.830   5.417  2.0329  2.1163  0.8241
17846SOL     OW54115   6.679   9.330   5.066 -0.3835  0.2689  0.1126
17846SOL    HW154116   6.710   9.303   4.975 -1.6582  1.3882 -0.6707
17846SOL    HW254117   6.744   9.394   5.106 -1.5592  2.5129 -1.4722
17847SOL     OW54118   0.937   4.249   5.771 -0.1643 -0.1748 -0.5771
17847SOL    HW154119   0.925   4.153   5.795 -1.9017 -0.2420 -1.6633
17847SOL    HW254120   1.034   4.268   5.754  0.0676 -1.9368 -1.2308
17848SOL     OW54121   0.749   0.928   4.417 -0.4700  0.2774 -0.1478
17848SOL    HW154122   0.710   1.002   4.473 -2.0736  0.1124 -1.0003
17848SOL    HW254123   0.846   0.917   4.439 -0.6570  1.3798  1.3324
17850SOL     OW54124   3.593   8.076   1.933  0.0177  0.5739  0.3393
17850SOL    HW154125   3.496   8.053   1.941  0.8863 -3.0051  1.4818
17850SOL    HW254126   3.615   8.097   1.838 -1.6685  0.4185 -0.1025
17851SOL     OW54127   6.838   8.433   7.414 -0.0603  0.3562  0.1512
17851SOL    HW154128   6.780   8.375   7.471  1.7985 -1.4949  0.2022
17851SOL    HW254129   6.871   8.510   7.468  0.1423 -0.3448  1.0443
17852SOL     OW54130   7.638   9.199   5.903 -0.1896 -0.1910 -0.1165
17852SOL    HW154131   7.657   9.220   5.807 -0.4780 -0.5325 -0.2471
17852SOL    HW254132   7.698   9.255   5.962  0.2503 -0.2578 -0.4999
17854SOL     OW54133   3.324   6.066   7.148 -0.2100  0.0578  0.1285
17854SOL    HW154134   3.266   6.148   7.156 -0.2299  0.0283  0.2835
17854SOL    HW254135   3.317   6.012   7.232 -0.8261 -0.5188 -0.3003
17855SOL     OW54136   1.377   9.804   4.909 -0.2316  0.3939  0.1434
17855SOL    HW154137   1.395   9.824   5.005  1.4881 -0.3484 -0.0047
17855SOL    HW254138   1.446   9.847   4.852 -0.7964  0.1940 -0.7124
17856SOL     OW54139   7.899   6.209   7.830  0.3838  0.1751  0.1727
17856SOL    HW154140   7.820   6.189   7.772  0.7687  0.8823 -0.6050
17856SOL    HW254141   7.875   6.193   7.926 -0.4513 -0.3964 -0.1253
17858SOL     OW54142   1.535   6.884   3.699 -0.1126 -0.1367 -0.2114
17858SOL    HW154143   1.468   6.877   3.626  0.1982 -1.1711 -0.4118
17858SOL    HW254144   1.489   6.878   3.788 -0.6597  2.6397 -0.2799
17859SOL     OW54145   7.681   8.425   1.055 -0.1487  0.5489  0.1345
17859SOL    HW154146   7.760   8.367   1.032 -0.7785 -0.8173  1.3406
17859SOL    HW254147   7.712   8.519   1.068  1.1236  0.2307 -0.4246
17861SOL     OW54148   0.368   6.079   3.565 -0.0838 -0.1453  0.6897
17861SOL    HW154149   0.438   6.017   3.529 -0.2353  0.6573 -1.0295
17861SOL    HW254150   0.377   6.086   3.664  1.3780 -1.1421  0.6364
17862SOL     OW54151   1.974   3.221   6.518  0.1668 -0.7689  0.2244
17862SOL    HW154152   2.030   3.230   6.436  0.1457 -2.6857 -0.0238
17862SOL    HW254153   2.032   3.222   6.599  0.3000 -0.1182  0.1255
17865SOL     OW54154   5.081   9.398   3.296  0.1067  0.9575 -0.3403
17865SOL    HW154155   5.137   9.333   3.244  1.3335  1.5882  0.2112
17865SOL    HW254156   5.132   9.434   3.373 -1.1709  1.2738  0.3825
17866SOL     OW54157   3.786   3.878   5.706 -0.3630 -0.2443 -0.2675
17866SOL    HW154158   3.856   3.949   5.700 -1.3256  0.5293 -3.3498
17866SOL    HW254159   3.766   3.859   5.802  3.7371 -0.2214  0.7156
17867SOL     OW54160   9.409   7.814   7.536  0.4666  0.2176  0.2470
17867SOL    HW154161   9.400   7.749   7.612  1.8390  0.7642  0.9121
17867SOL    HW254162   9.490   7.871   7.552  1.3025 -0.2496 -2.0824
17869SOL     OW54163   0.725   0.826   2.404  0.8338 -0.7362  0.0882
17869SOL    HW154164   0.740   0.855   2.309  0.0382 -0.3696  0.0694
17869SOL    HW254165   0.743   0.903   2.466  0.1904 -0.6304  0.1467
17870SOL     OW54166   1.816   9.035   3.328  0.0618  0.1574  0.1829
17870SOL    HW154167   1.871   9.074   3.402 -0.9913  2.3552 -0.1435
17870SOL    HW254168   1.875   9.001   3.256  1.0571 -0.3425  1.2240
17871SOL     OW54169   7.683   2.769   2.464 -0.0996  0.1247  0.2895
17871SOL    HW154170   7.722   2.699   2.523  3.1878  1.9477  0.3737
17871SOL    HW254171   7.693   2.742   2.369 -0.7975 -0.4783  0.3813
17873SOL     OW54172   3.891   8.371   2.699 -0.1569  0.0653  0.2641
17873SOL    HW154173   3.890   8.274   2.677 -0.2426  0.1675 -0.1730
17873SOL    HW254174   3.981   8.396   2.733  0.2787  0.1323 -0.9403
17874SOL     OW54175   9.220   7.124   5.619 -0.5480 -0.1159 -0.3229
17874SOL    HW154176   9.136   7.070   5.630  0.6459 -2.0344 -0.4558
17874SOL    HW254177   9.271   7.090   5.541  1.1727 -0.0567  0.7588
17877SOL     OW54178   9.191   6.634   1.094 -0.1061  0.9708  0.1228
17877SOL    HW154179   9.182   6.598   1.002 -1.4343  0.1960  0.5451
17877SOL    HW254180   9.101   6.654   1.132  0.3573  0.4008  1.5902
17878SOL     OW54181   8.467   6.809   4.374  0.2756  0.0188 -0.3668
17878SOL    HW154182   8.504   6.873   4.307  1.8260  0.3792  0.8108
17878SOL    HW254183   8.506   6.828   4.464 -3.0307  0.6295  1.0107
17880SOL     OW54184   0.727   4.875   3.407  0.1005 -0.0027  0.0419
17880SOL    HW154185   0.818   4.908   3.432  0.1211 -0.3596  0.4478
17880SOL    HW254186   0.672   4.866   3.490 -0.1608 -0.2103 -0.1550
17881SOL     OW54187   9.227   3.079   4.157 -0.5315 -0.2867 -0.3046
17881SOL    HW154188   9.259   3.075   4.252 -0.6783 -2.0241 -0.3219
17881SOL    HW254189   9.128   3.094   4.155 -0.5094 -0.1319 -0.1893
17882SOL     OW54190   1.815   8.314   2.454  0.3251 -0.3366 -0.4455
17882SOL    HW154191   1.738   8.250   2.454  0.8537 -0.9730 -1.0778
17882SOL    HW254192   1.784   8.404   2.424 -0.4337 -0.2745  0.5021
17883SOL     OW54193   0.637   4.303   3.083 -0.1909  0.3538  0.2650
17883SOL    HW154194   0.730   4.312   3.117 -0.1255  1.0788 -0.0843
17883SOL    HW254195   0.579   4.260   3.153  0.7531 -1.6206 -0.1391
17884SOL     OW54196   9.842   7.423   0.114 -0.3747 -0.0329  0.2500
17884SOL    HW154197   9.811   7.517   0.130  1.1025  0.9290 -2.4069
17884SOL    HW254198   9.933   7.411   0.153 -0.1228 -0.0461 -0.3422
17885SOL     OW54199   6.824   7.171   2.857 -0.7947 -0.1130 -0.4059
17885SOL    HW154200   6.853   7.085   2.815  1.8619 -0.8206  2.7657
17885SOL    HW254201   6.904   7.228   2.875 -2.1021  1.1815  1.4592
17886SOL     OW54202   3.226   6.919   1.219 -0.3321  0.3308 -0.2468
17886SOL    HW154203   3.261   7.002   1.263  0.7181  0.2141 -0.8338
17886SOL    HW254204   3.138   6.938   1.176 -0.4979  0.9175  0.3552
17887SOL     OW54205   3.492   1.448   2.640 -0.0026 -0.3149 -0.2977
17887SOL    HW154206   3.417   1.511   2.659  1.5669  0.7923  2.4461
17887SOL    HW254207   3.578   1.499   2.635  0.8050 -1.7690 -1.8758
17888SOL     OW54208   7.921   2.227   0.634 -0.4005 -0.6276 -0.0094
17888SOL    HW154209   8.014   2.257   0.655  0.6566 -3.5375 -0.2668
17888SOL    HW254210   7.884   2.175   0.711 -1.0180 -1.2592 -0.7164
17889SOL     OW54211   0.648   0.164   5.962  0.3433  0.1042 -0.1467
17889SOL    HW154212   0.680   0.173   5.868  1.2301 -0.1579  0.1261
17889SOL    HW254213   0.666   0.071   5.995 -1.5750 -0.3330 -0.3049
17892SOL     OW54214   4.007   1.265   5.212 -0.0263 -0.1203  0.4137
17892SOL    HW154215   3.965   1.201   5.146 -1.3132  0.0166  1.0837
17892SOL    HW254216   4.009   1.222   5.302  1.6402 -0.2627  0.3172
17893SOL     OW54217   8.828   3.461   1.706 -0.3286 -0.1409 -0.3041
17893SOL    HW154218   8.890   3.409   1.648  0.3094 -0.3964  0.6020
17893SOL    HW254219   8.741   3.411   1.715 -0.6320  0.1470 -1.4475
17895SOL     OW54220   8.987   3.241   5.992  0.5370  0.0124  0.3593
17895SOL    HW154221   8.900   3.217   6.035  0.7176 -0.1105  0.6559
17895SOL    HW254222   8.971   3.272   5.899  0.0403  1.2883  0.8645
17896SOL     OW54223   3.315   8.921   5.721 -0.5238 -0.3473 -0.1209
17896SOL    HW154224   3.410   8.896   5.708 -0.3458 -0.6028  1.5768
17896SOL    HW254225   3.281   8.968   5.639  0.3154 -2.4826 -1.7307
17898SOL     OW54226   2.356   5.675   3.170  0.1645  0.2177 -0.0591
17898SOL    HW154227   2.449   5.692   3.202  1.2024 -0.1234 -2.7121
17898SOL    HW254228   2.319   5.758   3.128  0.4194 -0.4476 -1.6507
17899SOL     OW54229   2.190   5.546   0.345  0.4780 -0.5783  0.9538
17899SOL    HW154230   2.126   5.469   0.353 -0.3900 -0.0578 -0.7777
17899SOL    HW254231   2.284   5.512   0.355  0.1391 -1.9915 -0.5086
17901SOL     OW54232   1.422   8.646   4.561 -0.1954 -0.6041 -0.2890
17901SOL    HW154233   1.381   8.724   4.608  0.5546 -0.3495 -0.0615
17901SOL    HW254234   1.431   8.569   4.624 -2.4532 -1.4530 -0.9116
17902SOL     OW54235   4.570   0.005   1.155  0.0570 -0.3238  0.1791
17902SOL    HW154236   4.527  -0.014   1.066 -0.9123  0.5008  0.4577
17902SOL    HW254237   4.522   0.081   1.199 -0.1691 -1.4593  1.9187
17903SOL     OW54238   1.136   8.959   6.934  0.1555  0.0029 -0.0554
17903SOL    HW154239   1.185   9.046   6.932  1.0950 -0.5024  0.7150
17903SOL    HW254240   1.078   8.952   6.853  0.0160  1.3731 -0.0871
17904SOL     OW54241   8.565   3.479   7.799 -0.1770  0.5288 -0.3076
17904SOL    HW154242   8.589   3.563   7.749  0.7026 -0.0479 -0.8548
17904SOL    HW254243   8.570   3.401   7.738  3.2666 -0.5328  1.1767
17905SOL     OW54244   2.921   0.180   5.392  0.3330  0.5548 -0.3980
17905SOL    HW154245   2.932   0.230   5.306 -0.5983  0.6479 -0.4708
17905SOL    HW254246   2.846   0.114   5.383 -0.0103  0.8182  0.4469
17906SOL     OW54247   8.308   3.276   7.653  0.0745  0.0510 -0.4763
17906SOL    HW154248   8.239   3.238   7.715  0.2009 -0.5274 -0.6907
17906SOL    HW254249   8.313   3.220   7.570 -0.2122  0.9126 -1.0909
17907SOL     OW54250   3.423   1.105   1.350 -0.1697  0.2056  0.1450
17907SOL    HW154251   3.384   1.104   1.442 -0.9297 -0.1082 -0.1691
17907SOL    HW254252   3.387   1.183   1.299 -1.4492 -0.8330 -0.5806
17908SOL     OW54253   6.650   6.169   0.963 -0.5898 -0.5047  0.2903
17908SOL    HW154254   6.717   6.211   0.901 -0.4024 -0.3268  0.6119
17908SOL    HW254255   6.613   6.086   0.921 -1.3139  0.2435 -0.5452
17909SOL     OW54256   3.907   8.059   7.069 -0.3951  0.2456 -0.0254
17909SOL    HW154257   3.904   8.151   7.030  0.7878 -0.3731 -1.6330
17909SOL    HW254258   4.002   8.027   7.071 -0.6263 -0.4093  1.8262
17910SOL     OW54259   7.529   2.293   1.385  0.4903 -0.5060  0.6739
17910SOL    HW154260   7.453   2.230   1.399  0.6695 -0.7093  0.7319
17910SOL    HW254261   7.607   2.244   1.347  0.1185 -0.0247 -0.7390
17913SOL     OW54262   2.275   7.567   7.305 -0.4409  0.1543 -0.2011
17913SOL    HW154263   2.246   7.473   7.321  0.8742 -0.1171  0.5864
17913SOL    HW254264   2.295   7.580   7.208 -0.9281 -0.2899 -0.3620
17914SOL     OW54265   1.105   7.742   4.353 -0.6630  0.1825 -0.1953
17914SOL    HW154266   1.067   7.650   4.365  0.2399 -0.0287  1.1723
17914SOL    HW254267   1.080   7.776   4.263  0.2288 -2.0078 -1.3248
17915SOL     OW54268   8.403   5.150   1.597 -0.4610  0.5025  0.3407
17915SOL    HW154269   8.415   5.245   1.624  1.5311  0.3726 -0.0181
17915SOL    HW254270   8.331   5.144   1.527  0.5704  1.9615 -0.8756
17916SOL     OW54271   9.130   4.480   1.558 -0.3576  0.2591 -0.4479
17916SOL    HW154272   9.137   4.573   1.593  1.3222 -0.1558  0.4076
17916SOL    HW254273   9.082   4.480   1.470  0.6416  2.0738 -1.0220
17917SOL     OW54274   0.236   4.992   7.012 -0.3506  0.5607  0.4434
17917SOL    HW154275   0.335   4.979   7.004 -0.5751 -0.4740 -0.6768
17917SOL    HW254276   0.203   4.949   7.096  0.3289  1.9929  1.4711
17918SOL     OW54277   4.512   0.258   0.898  0.1352  0.5026 -0.8928
17918SOL    HW154278   4.541   0.304   0.982  1.3926 -0.2104 -0.9243
17918SOL    HW254279   4.535   0.316   0.820  2.8339 -0.6608 -1.0165
17919SOL     OW54280   1.222   4.161   0.495  0.5614 -0.0291 -0.1903
17919SOL    HW154281   1.190   4.111   0.415 -3.3192  1.2766  0.4273
17919SOL    HW254282   1.320   4.145   0.508  0.6145 -2.7288 -3.3439
17920SOL     OW54283   1.212   0.180   1.807 -0.1831 -0.0472 -0.4091
17920SOL    HW154284   1.174   0.233   1.732 -2.3677 -0.5735  0.2812
17920SOL    HW254285   1.239   0.241   1.882 -1.3462  0.2042 -0.1915
17921SOL     OW54286   5.698   3.068   1.201 -0.4625  0.0521  0.9689
17921SOL    HW154287   5.638   3.074   1.281 -0.3367 -0.3448  1.0922
17921SOL    HW254288   5.674   2.989   1.146 -1.1881  0.8770  0.0845
17923SOL     OW54289   3.456   3.786   2.212  0.3463 -0.0847  0.2834
17923SOL    HW154290   3.409   3.874   2.220 -1.7210 -0.6356 -4.4929
17923SOL    HW254291   3.399   3.714   2.251  0.5661  0.2170  1.1793
17924SOL     OW54292   8.396   6.806   7.755 -0.2426  0.4536 -0.3963
17924SOL    HW154293   8.488   6.767   7.754 -1.0287 -1.4650 -0.2702
17924SOL    HW254294   8.371   6.835   7.663 -0.2387 -0.8013 -0.8005
17925SOL     OW54295   3.032   3.896   4.194  0.0090  0.4040  0.0321
17925SOL    HW154296   3.060   3.866   4.103 -1.6458 -1.6019  0.1395
17925SOL    HW254297   3.045   3.821   4.259 -1.3991  0.9091  0.9151
17926SOL     OW54298   2.039   6.751   1.575  0.4487 -0.3833  0.3888
17926SOL    HW154299   2.039   6.849   1.555  1.6194 -0.3819  0.3290
17926SOL    HW254300   2.025   6.700   1.490 -0.2523 -0.2646  0.4334
17927SOL     OW54301   1.009   4.107   0.918  0.1518 -0.5266 -0.2108
17927SOL    HW154302   0.996   4.205   0.933 -0.9365 -0.6073 -0.5869
17927SOL    HW254303   1.076   4.072   0.983  0.6207  0.4844 -0.1364
17928SOL     OW54304   6.256   2.527   3.832 -0.1283 -0.0759  0.8017
17928SOL    HW154305   6.338   2.485   3.794 -0.6462 -1.1224  0.8078
17928SOL    HW254306   6.274   2.623   3.854  0.5501  0.1847 -0.8571
17930SOL     OW54307   7.647   9.759   3.821  0.5956  0.9185  0.7567
17930SOL    HW154308   7.719   9.745   3.888 -1.3035  0.3730  2.7576
17930SOL    HW254309   7.614   9.854   3.826  0.9274  1.0759  0.0756
17932SOL     OW54310   7.173   3.756   0.816  0.4058 -0.2783 -0.4995
17932SOL    HW154311   7.256   3.766   0.871  0.4355 -1.0322 -0.3961
17932SOL    HW254312   7.110   3.831   0.835  0.0983 -0.9188  1.1109
17933SOL     OW54313   0.286   9.623   6.780 -0.1163  0.0481 -0.0179
17933SOL    HW154314   0.215   9.572   6.829 -0.0568 -0.2466 -0.2427
17933SOL    HW254315   0.339   9.561   6.723 -0.4452  0.4473 -0.7729
17935SOL     OW54316   6.668   4.473   0.184 -0.2678  0.3627 -0.7576
17935SOL    HW154317   6.612   4.511   0.258  1.6747 -1.6087  1.8092
17935SOL    HW254318   6.643   4.377   0.170  0.8888  0.1164 -1.1508
17936SOL     OW54319   7.464   0.667   1.666  0.3407  0.1239 -0.1239
17936SOL    HW154320   7.409   0.688   1.747 -0.5309  1.8814 -1.1377
17936SOL    HW254321   7.428   0.585   1.623 -1.8458  1.4908 -1.0174
17938SOL     OW54322   1.757   2.471   0.250  0.1068 -0.4457 -0.9592
17938SOL    HW154323   1.784   2.476   0.346  4.6383  1.8518 -2.2272
17938SOL    HW254324   1.729   2.562   0.219  4.0714  0.0887 -3.1978
17940SOL     OW54325   4.939   9.290   7.773  0.6751 -0.1197  0.4767
17940SOL    HW154326   4.876   9.362   7.745  1.1869 -0.0764 -0.5751
17940SOL    HW254327   4.974   9.310   7.865 -0.7364 -0.0834  1.0236
17941SOL     OW54328   3.594   6.181   6.445 -0.1448 -0.2937 -0.4492
17941SOL    HW154329   3.670   6.188   6.509 -1.2427 -0.0460  0.8788
17941SOL    HW254330   3.541   6.098   6.464  0.6633 -1.2687 -2.3601
17943SOL     OW54331   0.029   8.248   5.352 -0.3844  0.0886 -0.6484
17943SOL    HW154332   0.035   8.316   5.279  0.2663 -1.1001 -1.7250
17943SOL    HW254333  -0.038   8.178   5.327 -0.7777  0.1191  0.2853
17944SOL     OW54334   1.935   2.900   7.802  0.4994 -0.3573  0.2817
17944SOL    HW154335   1.975   2.982   7.762  0.3541 -0.7581 -0.7001
17944SOL    HW254336   1.837   2.913   7.814  0.5621 -0.1913  0.6499
17945SOL     OW54337   8.201   8.059   7.618  0.2340  0.3303 -0.1734
17945SOL    HW154338   8.118   8.090   7.573  0.1326  0.0516 -0.1748
17945SOL    HW254339   8.276   8.121   7.596  0.4093 -0.3405 -1.4974
17946SOL     OW54340   0.495   6.599   1.505  0.5988 -0.0159 -0.1692
17946SOL    HW154341   0.463   6.651   1.426 -0.6426  3.1485  2.2985
17946SOL    HW254342   0.594   6.610   1.514  1.0327 -1.8564 -2.2412
17947SOL     OW54343   1.152   7.320   4.566 -0.3606  0.2130 -0.3257
17947SOL    HW154344   1.247   7.341   4.545 -0.3690  0.8210  0.2392
17947SOL    HW254345   1.093   7.361   4.496 -0.1757 -0.8045 -1.1061
17948SOL     OW54346   2.796   3.241   7.702  0.1760 -0.4685 -0.0304
17948SOL    HW154347   2.750   3.195   7.778  1.4610 -2.0474 -0.1565
17948SOL    HW254348   2.752   3.328   7.683 -1.1911 -0.8206  1.4432
17949SOL     OW54349   4.587   1.156   6.021  0.1778  0.5281 -0.2044
17949SOL    HW154350   4.516   1.166   5.951  1.6078  1.6915 -1.5227
17949SOL    HW254351   4.586   1.236   6.080 -0.4731 -0.0708  0.6098
17950SOL     OW54352   9.819   6.873   6.328  0.4946 -0.2287 -0.3189
17950SOL    HW154353   9.799   6.812   6.252 -1.2174  0.5393 -0.5084
17950SOL    HW254354   9.739   6.879   6.388  0.9224  1.1747  0.1310
17951SOL     OW54355   3.840   5.972   0.390  0.4097 -0.3985  0.2056
17951SOL    HW154356   3.913   5.904   0.390  0.9545  0.1728 -0.6509
17951SOL    HW254357   3.774   5.950   0.461  0.5615 -1.8387 -0.0779
17952SOL     OW54358   9.843   7.393   7.217  0.1455 -0.0339  0.7517
17952SOL    HW154359   9.855   7.294   7.209  0.1393 -0.0777  1.2724
17952SOL    HW254360   9.755   7.412   7.261  0.2549  0.1959  0.8743
17953SOL     OW54361   8.695   4.004   2.698 -0.5794  0.0909  0.0179
17953SOL    HW154362   8.722   4.016   2.794  0.2051 -2.5567  0.1665
17953SOL    HW254363   8.601   3.969   2.694  0.0891 -1.7758 -0.0593
17955SOL     OW54364   1.014   5.480   2.805 -0.5738  0.7851 -0.0255
17955SOL    HW154365   1.025   5.387   2.770 -3.8198  0.2851  0.1582
17955SOL    HW254366   1.007   5.479   2.904  1.9711  1.5352  0.1987
17956SOL     OW54367   0.603   6.658   6.344  1.0844 -0.5182 -0.6784
17956SOL    HW154368   0.664   6.624   6.416  1.6785  1.1827 -0.3490
17956SOL    HW254369   0.594   6.589   6.272  1.4395 -1.7592  0.4534
17957SOL     OW54370   0.065   2.754   1.072 -0.1283 -0.1263 -0.1233
17957SOL    HW154371   0.144   2.703   1.106 -0.1268  0.1214  0.2489
17957SOL    HW254372   0.015   2.795   1.149  1.3399  2.6048 -0.5498
17959SOL     OW54373   5.383   4.957   2.253 -0.2514 -0.7432  0.4441
17959SOL    HW154374   5.477   4.986   2.235 -0.2493 -0.8405  0.2999
17959SOL    HW254375   5.372   4.862   2.225 -0.5273 -0.5845  0.0177
17960SOL     OW54376   9.185   5.724   2.190 -0.1074 -0.5638 -0.2021
17960SOL    HW154377   9.205   5.633   2.226  1.4165 -1.0797 -2.2707
17960SOL    HW254378   9.159   5.716   2.094  1.7118  1.3445 -0.8784
17961SOL     OW54379   3.567   2.663   6.792  0.9868  0.0455 -0.1424
17961SOL    HW154380   3.509   2.641   6.870 -0.9183 -1.6828 -1.9587
17961SOL    HW254381   3.590   2.761   6.793 -0.9384  0.5051  1.2908
17962SOL     OW54382   0.290   9.303   1.168 -0.3414 -0.6005 -0.2942
17962SOL    HW154383   0.192   9.288   1.159 -0.0281 -2.0170 -1.4894
17962SOL    HW254384   0.317   9.380   1.109 -0.8966  0.4928  0.8643
17963SOL     OW54385   1.153   0.310   1.571 -0.2467  0.6825  0.2998
17963SOL    HW154386   1.226   0.317   1.502 -0.4772 -0.4649 -0.0763
17963SOL    HW254387   1.084   0.245   1.539 -0.9845  1.0932  1.0619
17964SOL     OW54388   5.295   2.224   0.162  0.4556 -0.9882 -0.2714
17964SOL    HW154389   5.300   2.307   0.218 -0.1558 -0.1825 -1.3700
17964SOL    HW254390   5.331   2.244   0.070  1.0410 -2.1624 -0.2997
17965SOL     OW54391   1.841   3.043   5.995  0.0687  0.2781 -0.0182
17965SOL    HW154392   1.930   3.085   5.979  0.2488 -0.6274 -1.4825
17965SOL    HW254393   1.836   3.011   6.090 -0.0330  3.4333  1.0740
17966SOL     OW54394   9.570   1.536   1.244  0.9310 -0.2188 -0.7124
17966SOL    HW154395   9.617   1.590   1.313  0.7639  0.7950 -1.3809
17966SOL    HW254396   9.542   1.448   1.283  0.6895  0.4083  0.5444
17967SOL     OW54397   9.732   3.614   5.057  0.0525  0.5245 -0.1046
17967SOL    HW154398   9.831   3.627   5.046  0.0190  0.8755  0.0191
17967SOL    HW254399   9.692   3.695   5.100 -0.3987  0.6780 -0.7997
17968SOL     OW54400   7.211   0.074   3.579  0.1779  0.3751  0.2408
17968SOL    HW154401   7.116   0.045   3.584 -0.1952  1.3174 -1.1148
17968SOL    HW254402   7.269   0.008   3.627 -0.7966 -1.8681 -1.6209
17969SOL     OW54403   8.556   6.980   3.452  0.0785  0.4044  0.3439
17969SOL    HW154404   8.471   6.932   3.429 -0.0785  0.3870  0.9508
17969SOL    HW254405   8.631   6.915   3.457  0.9999  0.9231 -4.3614
17970SOL     OW54406   4.599   2.907   5.099 -0.0396  0.4194  0.2805
17970SOL    HW154407   4.679   2.863   5.058 -2.6455 -2.0028 -2.3601
17970SOL    HW254408   4.579   2.864   5.187  1.0013  0.4777  0.5633
17972SOL     OW54409   0.030   1.706   1.788 -0.1208  0.7266 -0.1425
17972SOL    HW154410   0.022   1.711   1.888 -0.0931  2.2786 -0.2034
17972SOL    HW254411   0.115   1.660   1.763 -0.1967  0.2046  0.5389
17973SOL     OW54412   1.418   5.066   4.647 -0.1222  0.0563 -0.0861
17973SOL    HW154413   1.501   5.058   4.593 -0.0056 -1.2669  0.2590
17973SOL    HW254414   1.358   4.987   4.628 -1.0318  0.6871  0.1064
17974SOL     OW54415   9.929   4.500   1.208  0.3627  0.4716  0.1042
17974SOL    HW154416   9.855   4.434   1.222  0.4058  0.0424 -1.5771
17974SOL    HW254417   9.992   4.466   1.138  2.3301  0.7113  1.7106
17977SOL     OW54418   7.359   0.990   4.794  1.0275 -0.4863  0.4754
17977SOL    HW154419   7.359   0.999   4.894  0.5360  0.2921  0.4048
17977SOL    HW254420   7.299   0.914   4.768  1.9463 -1.3482  0.8231
17978SOL     OW54421   9.761   1.873   1.868  0.4986 -0.0719 -0.5330
17978SOL    HW154422   9.675   1.825   1.883  0.4016  0.2713  0.0088
17978SOL    HW254423   9.835   1.807   1.855 -0.0880 -0.4023 -2.4954
17979SOL     OW54424   2.226   8.104   3.638 -0.4069 -0.4606 -0.0667
17979SOL    HW154425   2.192   8.198   3.634 -0.3296 -0.3806  1.0167
17979SOL    HW254426   2.256   8.076   3.547  0.6268  0.9423 -0.1747
17980SOL     OW54427   8.625   2.986   0.698  0.4885 -0.1356 -0.8416
17980SOL    HW154428   8.691   2.927   0.652 -1.0524 -0.6419 -2.4381
17980SOL    HW254429   8.665   3.020   0.784  2.5223 -1.0237 -1.4103
17981SOL     OW54430   3.000   8.480   6.362 -0.5487 -0.0849  0.0467
17981SOL    HW154431   3.000   8.557   6.427 -1.8166 -0.0743  0.0481
17981SOL    HW254432   2.943   8.503   6.284  2.2256  0.5425 -1.8853
17982SOL     OW54433   9.785   0.412   5.956 -0.8611 -0.1586 -0.3900
17982SOL    HW154434   9.741   0.367   5.878 -1.7452 -1.1585  0.6833
17982SOL    HW254435   9.859   0.355   5.990  1.1408  1.3715 -1.9847
17983SOL     OW54436   2.251   5.054   5.662 -0.4579 -0.0369 -0.6412
17983SOL    HW154437   2.252   5.143   5.707 -0.0496  0.3451 -1.3945
17983SOL    HW254438   2.158   5.015   5.665 -0.1563 -0.6152  1.6687
17986SOL     OW54439   5.866   0.473   5.815  0.1583 -0.7468 -0.0245
17986SOL    HW154440   5.838   0.486   5.720  1.2528 -0.9645 -0.3758
17986SOL    HW254441   5.792   0.430   5.866 -1.2098  1.2027 -0.2991
17988SOL     OW54442   4.215   8.652   5.771  0.1840  0.1934 -0.3243
17988SOL    HW154443   4.232   8.624   5.865 -0.7457  0.3847 -0.0887
17988SOL    HW254444   4.301   8.673   5.726  0.5115  2.2861  1.1849
17989SOL     OW54445   2.048   7.262   4.002 -0.6136 -0.6641 -0.1225
17989SOL    HW154446   2.007   7.322   4.071  0.9669 -0.5284  0.7282
17989SOL    HW254447   2.012   7.285   3.912  0.0810  1.6777  0.1697
17990SOL     OW54448   9.618   9.649   5.527  0.0262  0.3232 -0.4167
17990SOL    HW154449   9.614   9.742   5.563  2.2755 -0.2429  1.4098
17990SOL    HW254450   9.583   9.585   5.596  2.4707 -0.5756  0.0371
17991SOL     OW54451   1.636   4.657   0.313  0.1742  0.5942  0.1199
17991SOL    HW154452   1.564   4.656   0.243  1.1746  0.7645 -0.9322
17991SOL    HW254453   1.719   4.698   0.274  1.4343 -1.3271  0.7259
17992SOL     OW54454   4.358   7.100   3.977  0.0313 -1.0041  0.0260
17992SOL    HW154455   4.326   7.007   3.960 -2.2689 -0.3212  0.4949
17992SOL    HW254456   4.305   7.165   3.923  0.1114  0.2253  1.3765
17993SOL     OW54457   9.272   8.209   1.443 -0.0379 -0.2035  0.0126
17993SOL    HW154458   9.203   8.275   1.470  0.9709  1.5169 -1.5251
17993SOL    HW254459   9.250   8.173   1.352  1.3553  0.7331 -0.7009
17996SOL     OW54460   1.620   5.139   2.233 -0.0123 -0.3431 -0.1245
17996SOL    HW154461   1.588   5.143   2.327 -0.7773 -0.6242 -0.3678
17996SOL    HW254462   1.589   5.220   2.183  1.8643  0.6666  0.3102
17997SOL     OW54463   4.350   2.260   4.299 -1.1180 -0.1469  0.1714
17997SOL    HW154464   4.374   2.212   4.383 -1.9654 -0.1954  0.3874
17997SOL    HW254465   4.402   2.346   4.293  0.2466 -0.9637 -0.1132
17998SOL     OW54466   9.846   5.229   5.891  0.5218  0.5371 -0.6350
17998SOL    HW154467   9.847   5.327   5.913  2.1747  0.6448 -1.1547
17998SOL    HW254468   9.916   5.209   5.823 -0.3349 -0.8920 -1.1189
17999SOL     OW54469   8.934   4.129   1.393  0.0485 -0.1322  0.1142
17999SOL    HW154470   8.991   4.195   1.345  0.8070 -1.3820 -0.7393
17999SOL    HW254471   8.973   4.038   1.384 -0.8171 -0.6746  1.5305
18000SOL     OW54472   2.545   8.446   0.159 -0.1463  0.3230 -0.4886
18000SOL    HW154473   2.630   8.428   0.209  0.3379  0.8419 -1.1071
18000SOL    HW254474   2.547   8.539   0.122 -1.5507  0.7966  0.5874
18001SOL     OW54475   0.702   2.207   7.378  0.0473 -0.1133 -0.6947
18001SOL    HW154476   0.717   2.235   7.472 -0.0577 -0.2086 -0.6491
18001SOL    HW254477   0.786   2.218   7.326  0.6982 -1.9950 -0.0931
18003SOL     OW54478   3.640   0.634   3.519 -0.0648  0.6365 -0.6419
18003SOL    HW154479   3.700   0.715   3.517 -0.3742  0.8517 -2.0732
18003SOL    HW254480   3.695   0.552   3.507  0.2872  0.5877  1.1156
18004SOL     OW54481   2.390   3.843   3.864  0.4966 -0.1750  0.2835
18004SOL    HW154482   2.356   3.754   3.895 -1.1310  0.0513 -0.8088
18004SOL    HW254483   2.380   3.910   3.938 -0.8729 -0.2665  0.1981
18005SOL     OW54484   9.089   5.036   5.198  0.1573  0.1206  0.0902
18005SOL    HW154485   9.028   4.986   5.136 -1.7260  1.3940  0.8859
18005SOL    HW254486   9.166   4.977   5.223  1.3187 -0.2076 -3.9248
18007SOL     OW54487   2.539   8.866   1.692 -0.1742 -0.0814 -0.2395
18007SOL    HW154488   2.457   8.909   1.729  0.8166  1.3674  0.2637
18007SOL    HW254489   2.619   8.895   1.743  0.8273 -0.4914 -1.5412
18008SOL     OW54490   6.121   9.983   3.966  0.0248  0.0731 -0.3704
18008SOL    HW154491   6.095  10.066   4.016  1.0338 -0.6926  1.4645
18008SOL    HW254492   6.220   9.980   3.956 -0.0547 -0.6221 -0.9652
18009SOL     OW54493   9.471   2.936   6.719 -0.0305  0.0228 -0.3012
18009SOL    HW154494   9.513   3.006   6.776 -1.1628  1.0507 -0.7164
18009SOL    HW254495   9.390   2.898   6.765 -0.5440  0.3622 -0.9083
18010SOL     OW54496   3.012   4.164   3.453 -0.5879 -0.3136 -0.0740
18010SOL    HW154497   3.033   4.130   3.362  0.4025 -1.9339  0.7375
18010SOL    HW254498   2.923   4.210   3.452 -1.2530 -1.6047 -1.5315
18011SOL     OW54499   2.036   7.677   6.535  0.0503  0.0914  0.4500
18011SOL    HW154500   1.954   7.721   6.570 -0.2308 -0.6995  0.7963
18011SOL    HW254501   2.034   7.580   6.557  0.5260 -0.1572 -0.5460
18013SOL     OW54502   3.594   3.849   4.645 -0.0273  0.7002  0.5640
18013SOL    HW154503   3.581   3.771   4.583  1.9451  1.0310 -0.3135
18013SOL    HW254504   3.551   3.829   4.733 -1.3056 -0.5249 -0.3033
18014SOL     OW54505   1.959   9.123   2.960 -0.2790  0.1414  0.0068
18014SOL    HW154506   1.887   9.172   3.009 -0.2631 -1.3882  1.6207
18014SOL    HW254507   1.918   9.053   2.901 -0.1838  0.4222 -0.3963
18015SOL     OW54508   5.871   1.545   0.389 -0.5985 -0.0598 -0.5003
18015SOL    HW154509   5.789   1.504   0.429 -0.7797  0.0839 -0.7276
18015SOL    HW254510   5.859   1.644   0.381 -0.1692  0.0408  0.0258
18016SOL     OW54511   2.978   9.778   6.990 -0.2249 -0.5865 -0.3223
18016SOL    HW154512   2.905   9.710   6.990 -0.4511 -0.3424 -0.5563
18016SOL    HW254513   2.988   9.817   7.081 -0.1286 -0.8931 -0.1987
18017SOL     OW54514   9.173   9.198   5.591  0.2835  0.0066 -0.0760
18017SOL    HW154515   9.091   9.141   5.581  0.4858 -0.5209  1.1554
18017SOL    HW254516   9.161   9.282   5.539  0.1551 -1.3246 -2.2489
18018SOL     OW54517   9.813   0.754   1.748  0.1994  0.4459  0.4118
18018SOL    HW154518   9.842   0.662   1.774  1.4434  0.3663 -1.1509
18018SOL    HW254519   9.893   0.807   1.718 -0.7948  1.3356 -0.7419
18019SOL     OW54520   8.893   3.327   6.365 -0.1473  0.6696  0.6595
18019SOL    HW154521   8.971   3.390   6.362  0.3971 -0.0005  0.8838
18019SOL    HW254522   8.847   3.336   6.453  1.6463 -1.3077  1.8585
18020SOL     OW54523   9.260   8.377   2.965  0.5261  0.5114 -0.4980
18020SOL    HW154524   9.214   8.466   2.960 -0.0314  0.2055 -0.8985
18020SOL    HW254525   9.261   8.345   3.059 -0.1610  0.4787 -0.5001
18024SOL     OW54526   4.513   3.720   7.749 -0.0823 -0.1228  0.1051
18024SOL    HW154527   4.577   3.643   7.748  1.0168  0.7641 -2.0424
18024SOL    HW254528   4.459   3.719   7.664 -2.0936 -0.1593  1.3447
18025SOL     OW54529   7.432   5.225   0.046  0.1680  0.1575 -0.0686
18025SOL    HW154530   7.460   5.141   0.092  0.4027 -0.0920 -0.6517
18025SOL    HW254531   7.345   5.257   0.083 -0.6316 -1.1223 -0.8058
18027SOL     OW54532   9.861   0.610   3.580  0.1970 -0.5840  0.8216
18027SOL    HW154533   9.957   0.586   3.597 -0.0601 -2.1602  0.1748
18027SOL    HW254534   9.836   0.584   3.486 -0.9306 -0.4412  1.0734
18028SOL     OW54535   9.120   5.884   5.052 -0.8167 -0.4472  0.4067
18028SOL    HW154536   9.137   5.831   4.969 -1.3718 -1.2792  0.8199
18028SOL    HW254537   9.023   5.908   5.056 -0.9022 -0.9313  1.1275
18029SOL     OW54538   7.102   9.008   3.033  0.0353 -0.4754 -1.0131
18029SOL    HW154539   7.153   9.088   3.066 -0.8464 -0.5799  0.6282
18029SOL    HW254540   7.010   9.036   3.008 -0.9574 -1.3415  1.5615
18030SOL     OW54541   2.583   7.232   5.577 -0.5097 -0.3036 -0.3448
18030SOL    HW154542   2.496   7.194   5.610  0.9114 -2.6220  0.8707
18030SOL    HW254543   2.656   7.207   5.640  1.1486  1.1800 -1.6345
18033SOL     OW54544   5.696   6.011   1.273 -0.6270  0.0519  0.2908
18033SOL    HW154545   5.642   5.955   1.337 -1.3419  0.5089  0.0897
18033SOL    HW254546   5.746   5.951   1.210 -1.9523 -0.3520 -0.3853
18034SOL     OW54547   3.612   1.849   2.551 -0.4335  0.2691  0.1668
18034SOL    HW154548   3.550   1.892   2.616  0.4697  2.1173 -0.1467
18034SOL    HW254549   3.666   1.779   2.598 -0.5346  0.8469  1.1560
18036SOL     OW54550   3.493   6.059   3.999 -0.4584 -0.0413 -0.0592
18036SOL    HW154551   3.502   5.988   3.930  1.3601 -0.8777  1.0046
18036SOL    HW254552   3.459   6.018   4.085  0.4171  0.4041  0.5018
18037SOL     OW54553   3.322   8.329   4.319  0.1711  0.2232 -0.4486
18037SOL    HW154554   3.263   8.256   4.284 -0.5377  0.7365 -0.3411
18037SOL    HW254555   3.393   8.349   4.252 -0.5828  0.5116 -1.1718
18041SOL     OW54556   9.562   5.605   6.820 -0.1480  0.2528  0.3321
18041SOL    HW154557   9.594   5.510   6.812 -1.8555 -0.1884 -1.7141
18041SOL    HW254558   9.514   5.617   6.907  1.2032 -0.3800  1.1934
18042SOL     OW54559   6.780   7.099   4.535  0.4795  0.6432 -0.0584
18042SOL    HW154560   6.700   7.041   4.545 -0.9664  2.7298  0.6540
18042SOL    HW254561   6.795   7.119   4.438 -1.0662  1.9096 -0.0397
18043SOL     OW54562   4.004   8.521   6.674  0.2502 -0.1505 -0.0537
18043SOL    HW154563   3.920   8.467   6.667  0.1597  0.0424 -0.5016
18043SOL    HW254564   4.076   8.479   6.619  0.5101 -0.4323  0.5002
18044SOL     OW54565   7.209   7.456   5.356  0.7637  0.3871 -0.7360
18044SOL    HW154566   7.153   7.376   5.378  0.7258  0.8180  0.8107
18044SOL    HW254567   7.159   7.517   5.295  0.1774 -0.0175 -0.6594
18045SOL     OW54568   5.050   3.016   2.362 -0.4739  0.5280 -0.0763
18045SOL    HW154569   4.982   3.035   2.291 -0.5996 -0.5228 -0.2491
18045SOL    HW254570   5.109   3.096   2.375 -0.0152  0.5040 -1.8545
18046SOL     OW54571   8.271   8.485   2.517  0.0204  0.5267 -0.7789
18046SOL    HW154572   8.340   8.466   2.587 -1.6307 -0.7664  0.5315
18046SOL    HW254573   8.303   8.451   2.429  1.3687  0.5708 -0.3170
18047SOL     OW54574   8.187   7.762   0.546  0.2076 -0.3958 -0.4740
18047SOL    HW154575   8.096   7.795   0.574  0.7150  0.1850  0.5287
18047SOL    HW254576   8.205   7.674   0.591  0.7143  0.1753  0.4631
18048SOL     OW54577   3.026   4.271   5.264 -0.2184 -0.2201  0.1286
18048SOL    HW154578   3.104   4.332   5.250 -0.5847  0.1460 -0.3313
18048SOL    HW254579   3.018   4.208   5.187 -0.5414 -0.0775  0.0453
18050SOL     OW54580   4.853   0.015   6.727  0.0906 -0.3706 -0.0457
18050SOL    HW154581   4.792  -0.051   6.682 -0.8577  0.8114 -0.5252
18050SOL    HW254582   4.846   0.004   6.826 -0.7866 -0.3543 -0.1016
18051SOL     OW54583   7.131   0.259   7.273  0.3136 -0.2298  0.0885
18051SOL    HW154584   7.062   0.321   7.235 -1.2382 -1.2272  1.2055
18051SOL    HW254585   7.196   0.234   7.202  1.1317  2.8791 -0.3151
18052SOL     OW54586   5.558   1.732   4.731  0.1966  0.4469  0.4491
18052SOL    HW154587   5.561   1.800   4.804  2.5433  1.7807 -0.8316
18052SOL    HW254588   5.487   1.757   4.665 -0.0358  0.7596  0.8184
18054SOL     OW54589   2.613   4.784   2.431 -0.4447 -0.0638 -0.8215
18054SOL    HW154590   2.576   4.845   2.362 -0.8595  1.1635  0.4636
18054SOL    HW254591   2.686   4.831   2.481 -1.3547 -0.2968  0.7572
18055SOL     OW54592   1.039   4.700   7.116 -0.0010  0.2242  0.6095
18055SOL    HW154593   0.963   4.740   7.065 -1.3052 -0.4803  1.9722
18055SOL    HW254594   1.053   4.751   7.200  2.3523  1.5710 -0.5493
18059SOL     OW54595   7.963   3.759   0.436 -0.4947 -0.4442  0.2289
18059SOL    HW154596   8.013   3.716   0.361 -0.9042 -1.5852  0.5965
18059SOL    HW254597   7.989   3.716   0.522 -2.4535 -1.4093  0.3675
18060SOL     OW54598   9.825   9.432   2.474 -0.1915 -0.0492 -0.4423
18060SOL    HW154599   9.798   9.515   2.524  0.3354 -0.3518  0.3445
18060SOL    HW254600   9.875   9.371   2.535 -1.6052 -1.4819 -0.6919
18061SOL     OW54601   0.616   7.864   7.585 -0.1223  0.0170 -0.0263
18061SOL    HW154602   0.713   7.884   7.572  0.1409 -0.2544  1.4443
18061SOL    HW254603   0.604   7.811   7.669 -1.4826 -0.4426 -0.5037
18062SOL     OW54604   6.451   1.920   0.890 -0.3036  0.8424  0.1391
18062SOL    HW154605   6.520   1.878   0.831  1.3741  1.0600  1.8617
18062SOL    HW254606   6.376   1.956   0.835 -0.2258 -1.5544 -1.6111
18063SOL     OW54607   0.667   1.205   1.047  0.4032  0.0542 -0.6498
18063SOL    HW154608   0.683   1.292   1.000  1.8528  0.4044  0.4590
18063SOL    HW254609   0.736   1.138   1.018  0.4014 -0.1720 -0.1444
18064SOL     OW54610   9.196   1.229   5.897 -0.7174  0.0600 -0.3895
18064SOL    HW154611   9.280   1.214   5.845 -0.2210 -0.8335  0.6608
18064SOL    HW254612   9.142   1.145   5.899 -0.5378 -0.0304  0.8885
18065SOL     OW54613   9.362   5.295   6.343 -0.3381  0.3636 -0.0901
18065SOL    HW154614   9.400   5.379   6.383 -1.0001  0.9114 -0.6026
18065SOL    HW254615   9.299   5.319   6.269  0.3517 -0.6178 -1.0142
18066SOL     OW54616   3.619   2.935   4.816  0.2292 -0.8590  0.0391
18066SOL    HW154617   3.549   2.996   4.854  2.7116  0.8383  2.0482
18066SOL    HW254618   3.599   2.841   4.844 -1.7552 -0.5328 -0.2177
18067SOL     OW54619   0.476   7.862   1.314  0.2579  0.1140 -0.4621
18067SOL    HW154620   0.563   7.815   1.322  0.2836  0.1504 -0.5323
18067SOL    HW254621   0.429   7.860   1.402  0.7958  1.0071 -0.1544
18068SOL     OW54622   6.875   9.557   7.698  0.3501 -0.3558 -0.1094
18068SOL    HW154623   6.914   9.649   7.689  0.7996 -0.5002  0.3258
18068SOL    HW254624   6.927   9.506   7.766  0.1386 -0.9530 -0.3945
18069SOL     OW54625   3.640   5.836   7.809 -0.0185  0.0318 -0.2326
18069SOL    HW154626   3.608   5.875   7.722 -1.1477  3.4651  1.6367
18069SOL    HW254627   3.565   5.834   7.874  1.6260  0.7926  1.7543
18070SOL     OW54628   8.419   3.385   1.899 -0.4184  0.3241 -0.5931
18070SOL    HW154629   8.343   3.321   1.891 -1.3607  1.1624  1.4336
18070SOL    HW254630   8.402   3.464   1.840 -0.6991  0.1234 -0.7862
18072SOL     OW54631   1.561   1.506   1.221 -0.2297  0.2610 -0.5551
18072SOL    HW154632   1.472   1.465   1.240 -0.0432 -0.0629 -0.3899
18072SOL    HW254633   1.569   1.592   1.273 -0.5069  0.3688 -0.6888
18074SOL     OW54634   8.050   3.164   1.080 -0.4554 -0.3404  0.4177
18074SOL    HW154635   8.038   3.226   1.002  0.7383  0.1539  0.6285
18074SOL    HW254636   8.135   3.185   1.127  0.1674 -2.4046  0.2635
18075SOL     OW54637   7.389   9.898   1.816 -0.1465  0.9098 -0.4209
18075SOL    HW154638   7.382   9.803   1.846  2.9454  1.5264  2.5331
18075SOL    HW254639   7.299   9.930   1.787 -1.2305 -2.8939 -1.5509
18076SOL     OW54640   0.470   5.972   7.082  0.1465  0.0876 -0.7323
18076SOL    HW154641   0.534   6.049   7.086  0.3684 -0.0733 -1.1374
18076SOL    HW254642   0.390   5.992   7.138  0.4060  0.4272 -0.4819
18077SOL     OW54643   2.321   5.475   1.894  0.7796 -0.2086 -0.4564
18077SOL    HW154644   2.348   5.569   1.871 -0.0442  0.3596  0.8610
18077SOL    HW254645   2.235   5.476   1.945  0.5444 -1.7151 -0.7900
18078SOL     OW54646   0.098   8.388   3.139  0.5431  0.3835  0.3407
18078SOL    HW154647   0.063   8.482   3.142  0.9443  0.6230 -1.8801
18078SOL    HW254648   0.078   8.347   3.050  0.7807 -1.4946  1.1194
18079SOL     OW54649   4.070   3.181   5.806  0.3822  0.1175 -0.4332
18079SOL    HW154650   4.138   3.213   5.872  0.2277 -0.0875 -0.1753
18079SOL    HW254651   4.104   3.194   5.713  0.6946  0.1884 -0.3070
18080SOL     OW54652   8.333   7.863   0.034  0.1294 -0.0432  0.4018
18080SOL    HW154653   8.306   7.808  -0.044 -0.9904  0.5307  0.3666
18080SOL    HW254654   8.399   7.933   0.005  0.6037 -0.5746  0.2059
18081SOL     OW54655   0.393   4.090   0.088  0.3218 -0.0198  0.4025
18081SOL    HW154656   0.397   4.116   0.184  1.8886  1.7562 -0.1173
18081SOL    HW254657   0.362   3.995   0.081 -2.3159  0.6008  2.5062
18082SOL     OW54658   4.182   4.293   6.500  0.5315  0.4409 -0.0476
18082SOL    HW154659   4.149   4.385   6.478  1.3530  0.9681  0.9118
18082SOL    HW254660   4.109   4.227   6.484 -0.9951  1.5824  1.9979
18083SOL     OW54661   4.820   8.348   6.704  0.9515 -0.0963 -0.6060
18083SOL    HW154662   4.812   8.436   6.656 -0.4307  0.0014 -0.2275
18083SOL    HW254663   4.758   8.281   6.661  1.5354 -0.7066 -0.5025
18084SOL     OW54664   1.813   6.714   0.072 -0.0903  0.2425  0.4045
18084SOL    HW154665   1.872   6.750   0.000 -0.4793  1.9307  0.9269
18084SOL    HW254666   1.848   6.740   0.161  0.3822 -1.8362  0.8625
18085SOL     OW54667   5.850   5.028   0.434 -0.1947  0.6099 -0.2898
18085SOL    HW154668   5.928   5.059   0.487 -1.2673  2.6667  0.1312
18085SOL    HW254669   5.838   4.929   0.447  1.0098  0.6623  1.3672
18086SOL     OW54670   1.232   0.192   0.903 -0.5593 -0.3396  0.9501
18086SOL    HW154671   1.185   0.274   0.870 -0.5515 -0.6903  0.0359
18086SOL    HW254672   1.309   0.219   0.961 -1.3961  0.2545  1.7788
18087SOL     OW54673   9.654   2.578   6.710 -0.6455  0.1183 -1.1641
18087SOL    HW154674   9.702   2.616   6.631 -0.7161 -1.4499 -1.9669
18087SOL    HW254675   9.671   2.636   6.790  1.8033  0.1146 -1.6495
18088SOL     OW54676   2.627   5.663   6.079 -0.2320  1.0521  0.0027
18088SOL    HW154677   2.534   5.693   6.099 -0.2713  1.8750 -1.3419
18088SOL    HW254678   2.656   5.701   5.991  1.0139 -0.0016 -0.0598
18089SOL     OW54679   3.044   3.231   7.814  0.9024 -0.1264 -0.0933
18089SOL    HW154680   3.116   3.226   7.745  0.6032  3.3077 -0.7799
18089SOL    HW254681   2.955   3.243   7.769  0.0279 -2.9928  0.7848
18090SOL     OW54682   1.070   1.815   7.340 -0.0362 -0.1907 -0.2455
18090SOL    HW154683   1.075   1.715   7.343 -1.7056 -0.2684  0.1987
18090SOL    HW254684   1.014   1.848   7.416  0.2266  1.0625 -0.5864
18091SOL     OW54685   9.988   2.141   4.261 -0.2448  0.0797  0.4888
18091SOL    HW154686  10.062   2.102   4.207 -0.7580  0.7202 -0.6988
18091SOL    HW254687  10.024   2.214   4.319  0.3503 -0.7734  1.2185
18093SOL     OW54688   6.508   5.217   2.379  0.6467  0.0156 -0.7732
18093SOL    HW154689   6.429   5.193   2.323  0.1304  2.0553 -0.9393
18093SOL    HW254690   6.564   5.285   2.330  1.7969 -0.4354 -0.0960
18095SOL     OW54691   2.176   0.980   6.021  0.8059 -0.4205 -0.1292
18095SOL    HW154692   2.119   0.975   5.939 -1.1471  1.7346  1.0326
18095SOL    HW254693   2.224   1.068   6.023 -0.6735  0.3920  1.9394
18096SOL     OW54694   1.483   0.906   3.224  0.0710 -0.1613 -0.4687
18096SOL    HW154695   1.531   0.988   3.192  1.8506 -0.6977  0.8139
18096SOL    HW254696   1.485   0.903   3.324 -0.2399 -1.6404 -0.5006
18097SOL     OW54697   2.281   7.884   3.828  0.2944  0.2052  0.3745
18097SOL    HW154698   2.337   7.954   3.784  1.1024 -0.4460  0.3501
18097SOL    HW254699   2.185   7.900   3.807  0.7039 -0.4763 -2.2467
18098SOL     OW54700   2.613   1.265   4.469 -0.0299 -0.5737 -0.3003
18098SOL    HW154701   2.529   1.211   4.473 -0.2334 -0.0885  2.6598
18098SOL    HW254702   2.595   1.358   4.499  0.9352  0.4421 -2.6796
18099SOL     OW54703   8.270   5.661   1.542 -0.1140  0.1170 -0.7616
18099SOL    HW154704   8.215   5.705   1.471  0.3290 -0.0790 -1.2325
18099SOL    HW254705   8.356   5.710   1.553 -0.3052  0.3101 -0.1634
18100SOL     OW54706   8.304   6.878   3.470 -0.0180  0.1386  0.3907
18100SOL    HW154707   8.250   6.816   3.413  2.3043 -1.0189 -0.6305
18100SOL    HW254708   8.272   6.872   3.565 -0.7597 -1.5622  0.0498
18101SOL     OW54709   3.258   9.153   6.188  0.0662 -0.2817  0.6178
18101SOL    HW154710   3.286   9.245   6.160 -1.3642 -0.0154  0.0091
18101SOL    HW254711   3.261   9.146   6.287  2.3190 -0.2873  0.5792
18103SOL     OW54712   2.849   2.972   6.443  0.2370  0.9926 -0.6937
18103SOL    HW154713   2.829   3.062   6.481  0.5404  0.2716  1.2538
18103SOL    HW254714   2.813   2.901   6.504  1.9939 -0.2201 -1.0045
18104SOL     OW54715   1.773   6.043   0.221  0.4636 -0.8737 -0.0304
18104SOL    HW154716   1.812   5.971   0.278  1.0940 -0.6629 -0.1981
18104SOL    HW254717   1.844   6.083   0.164  1.2873  3.3446  3.6545
18105SOL     OW54718   3.433   0.280   7.167  0.3633  0.7631  0.2898
18105SOL    HW154719   3.526   0.253   7.144 -0.9844 -1.7619 -2.5949
18105SOL    HW254720   3.391   0.326   7.088 -1.5944 -0.3380  0.6529
18107SOL     OW54721   0.068   9.651   7.516 -1.2016  0.2412 -0.1325
18107SOL    HW154722   0.143   9.642   7.452 -1.4136  0.8456 -0.4779
18107SOL    HW254723   0.038   9.747   7.519 -3.4840 -0.3701 -1.7659
18108SOL     OW54724   8.350   7.372   5.594  0.3162 -0.2571 -0.0277
18108SOL    HW154725   8.402   7.398   5.675 -0.4165  0.6037  0.1789
18108SOL    HW254726   8.397   7.407   5.512 -0.0795  0.7872  0.1789
18110SOL     OW54727   2.499   3.638   2.802  0.2928  0.2671  0.3415
18110SOL    HW154728   2.546   3.574   2.742  1.2303  1.8408 -0.6253
18110SOL    HW254729   2.401   3.615   2.806  0.6020 -1.1567 -0.0431
18111SOL     OW54730   0.061   4.535   5.977  0.7817  0.0949  0.2225
18111SOL    HW154731   0.080   4.601   5.905  0.6876  0.1192  0.2191
18111SOL    HW254732   0.146   4.493   6.008  0.7717 -0.2551 -0.2284
18112SOL     OW54733   1.042   6.157   0.771 -0.2214  0.6478  0.1927
18112SOL    HW154734   1.132   6.199   0.756 -0.2138  1.1974  1.6871
18112SOL    HW254735   1.017   6.166   0.868 -3.0448  2.7777 -0.6650
18113SOL     OW54736   9.406   6.429   0.988  0.3673 -0.2529 -0.0111
18113SOL    HW154737   9.410   6.529   0.985  0.1463 -0.2908 -1.7073
18113SOL    HW254738   9.457   6.391   0.911  0.9098 -1.4788  0.9237
18115SOL     OW54739   4.490   8.042   5.179  0.2045 -0.3970 -0.3678
18115SOL    HW154740   4.460   7.971   5.114  2.2623 -1.0034 -0.7135
18115SOL    HW254741   4.567   8.092   5.139 -0.3467  1.1224  0.4617
18116SOL     OW54742   9.814   1.109   5.874  0.2127  0.2400 -0.6365
18116SOL    HW154743   9.773   1.197   5.849 -0.6738  0.3646  1.1808
18116SOL    HW254744   9.795   1.042   5.802  0.1381  1.3083 -1.6229
18118SOL     OW54745   4.573   2.453   5.166 -0.2817  0.3112 -0.0145
18118SOL    HW154746   4.653   2.509   5.190 -0.4109  0.4491  0.1018
18118SOL    HW254747   4.548   2.396   5.244 -0.6979  0.7538  0.1813
18119SOL     OW54748   3.092   2.068   0.609  0.5337  0.2812 -0.0695
18119SOL    HW154749   3.189   2.068   0.588  0.7290  1.8538  0.7947
18119SOL    HW254750   3.075   2.012   0.690  0.5596 -0.8856 -0.8541
18120SOL     OW54751   9.813   7.295   4.167  0.6346 -0.0133  0.1300
18120SOL    HW154752   9.735   7.246   4.206  0.6508 -0.9002 -0.9388
18120SOL    HW254753   9.876   7.320   4.240  0.2749 -0.9557  0.7704
18121SOL     OW54754   7.889   5.432   3.995 -0.1513 -0.1187  0.3720
18121SOL    HW154755   7.904   5.513   4.052  1.3802  0.3462 -0.6624
18121SOL    HW254756   7.795   5.399   4.008 -0.2785  0.8497  2.0276
18122SOL     OW54757   8.465   6.346   4.500  0.8841  0.0384  0.0390
18122SOL    HW154758   8.498   6.426   4.449 -1.3055  1.9393  1.4896
18122SOL    HW254759   8.522   6.332   4.581  0.4603  0.9825  0.5111
18123SOL     OW54760   6.624   8.846   6.056 -0.2360 -0.1824  0.6957
18123SOL    HW154761   6.621   8.920   6.122 -0.0175  0.2539  0.2224
18123SOL    HW254762   6.713   8.845   6.010 -0.6161 -0.0447 -0.0680
18125SOL     OW54763   1.264   4.611   5.430  0.1737  0.0060  0.8074
18125SOL    HW154764   1.235   4.520   5.401  1.0175 -0.3971  1.1896
18125SOL    HW254765   1.342   4.640   5.375 -1.5268  1.5003 -0.8910
18128SOL     OW54766   0.757   5.970   6.349  0.4888 -0.4763  0.3720
18128SOL    HW154767   0.781   5.904   6.420 -1.7664 -1.8090 -0.0639
18128SOL    HW254768   0.830   5.974   6.281  1.7060 -0.7473  1.6415
18129SOL     OW54769   4.633   4.583   0.866  0.0984 -0.0636  0.1785
18129SOL    HW154770   4.609   4.616   0.958 -1.9085 -0.4328 -0.1926
18129SOL    HW254771   4.555   4.594   0.805  1.2416 -0.3333 -1.3717
18130SOL     OW54772   3.434   4.888   2.463 -0.5643 -0.0021 -0.1730
18130SOL    HW154773   3.384   4.803   2.481 -0.4111 -0.4094 -1.6277
18130SOL    HW254774   3.404   4.927   2.376  0.8978  0.2987 -0.5546
18131SOL     OW54775   3.292   0.788   0.286  0.6040  0.2205 -0.7965
18131SOL    HW154776   3.357   0.768   0.359  0.5698  1.5938 -0.3817
18131SOL    HW254777   3.199   0.766   0.316  0.6087  0.6273 -0.4807
18133SOL     OW54778   8.967   5.136   7.391  0.5754 -0.6310 -0.2985
18133SOL    HW154779   8.967   5.214   7.329  1.2867 -0.4477 -0.0638
18133SOL    HW254780   8.872   5.111   7.412  0.3501  0.6069  0.1875
18134SOL     OW54781   6.501   8.296   2.371  0.1339  0.3641 -0.1563
18134SOL    HW154782   6.569   8.360   2.335  1.0665 -1.5343 -1.9224
18134SOL    HW254783   6.547   8.215   2.407 -1.0808  0.1120  0.8486
18135SOL     OW54784   4.254   6.682   0.403 -0.2119  0.0372  0.2779
18135SOL    HW154785   4.251   6.678   0.303 -0.8032  0.0293  0.2938
18135SOL    HW254786   4.344   6.652   0.435  0.5337  1.5968 -0.3209
18137SOL     OW54787   1.571   1.985   5.118 -0.4151  0.8481  0.1706
18137SOL    HW154788   1.588   2.059   5.184  0.2037  1.6860 -0.9119
18137SOL    HW254789   1.600   1.898   5.157 -1.1763  1.1550  1.4796
18138SOL     OW54790   8.286   8.860   4.807 -0.2005  0.1104 -0.5243
18138SOL    HW154791   8.288   8.912   4.892  2.5547 -1.5612  0.5130
18138SOL    HW254792   8.277   8.922   4.730  0.9296  1.9722  0.7941
18139SOL     OW54793   4.352   1.908   6.695  0.7254 -0.1617 -0.2141
18139SOL    HW154794   4.418   1.892   6.622  1.4972  2.9385 -0.2474
18139SOL    HW254795   4.389   1.974   6.761 -1.5834  0.2184  0.7697
18140SOL     OW54796   0.162   6.097   6.011  0.4694  1.0605 -0.4366
18140SOL    HW154797   0.261   6.105   6.016  0.4611  0.4107  0.8362
18140SOL    HW254798   0.138   6.016   5.957  0.6671 -0.1508  1.2412
18141SOL     OW54799   3.375   1.913   6.374 -0.4284  0.6675 -0.3633
18141SOL    HW154800   3.304   1.980   6.398 -0.6414  0.2542  0.1787
18141SOL    HW254801   3.411   1.872   6.458 -1.5395 -1.1757 -0.7691
18142SOL     OW54802   4.555   9.181   3.377  0.0295  0.0400 -0.1465
18142SOL    HW154803   4.459   9.206   3.381 -0.1906 -1.0341  1.7397
18142SOL    HW254804   4.564   9.085   3.352  0.5762  0.0185  0.1126
18143SOL     OW54805   9.174   8.847   2.663  0.1034  0.2104 -0.2080
18143SOL    HW154806   9.247   8.869   2.598 -0.8139  0.2826 -1.2425
18143SOL    HW254807   9.089   8.891   2.633 -0.8505 -1.5381 -0.1666
18144SOL     OW54808   8.760   4.426   3.891  0.3192  0.0435  0.0219
18144SOL    HW154809   8.837   4.484   3.916 -0.8796  1.4596  0.5531
18144SOL    HW254810   8.679   4.483   3.876 -0.8665 -1.4919  0.4111
18145SOL     OW54811   1.985   2.073   5.344  0.6960 -0.1556  0.2919
18145SOL    HW154812   2.077   2.033   5.343  0.7294 -0.0543 -0.9553
18145SOL    HW254813   1.991   2.170   5.323  0.3677  0.0112  0.9444
18146SOL     OW54814   6.811   7.362   7.009 -0.8252 -0.0909  0.1634
18146SOL    HW154815   6.840   7.375   6.914  2.0693  1.3050  1.1876
18146SOL    HW254816   6.813   7.265   7.031  1.0588 -0.2134 -0.4541
18147SOL     OW54817   3.885   3.189   2.499 -0.0985  0.2301 -0.2750
18147SOL    HW154818   3.940   3.194   2.416 -0.5148  0.3595 -0.5499
18147SOL    HW254819   3.864   3.282   2.531 -0.6847  0.1855 -0.5297
18148SOL     OW54820   9.471   5.384   5.341 -0.2031  0.0481  0.1433
18148SOL    HW154821   9.391   5.325   5.350 -0.7123  0.3354 -2.0420
18148SOL    HW254822   9.443   5.470   5.297  1.1223  0.5671  0.3088
18149SOL     OW54823   2.074   8.865   7.539  0.0570 -0.8795 -0.3230
18149SOL    HW154824   2.145   8.891   7.605 -0.2490  0.8214 -0.6474
18149SOL    HW254825   2.053   8.768   7.550  2.0750 -1.2915  0.1055
18150SOL     OW54826   3.550   3.842   0.066  0.3104 -0.2133  0.4568
18150SOL    HW154827   3.504   3.778   0.004 -0.1828 -0.6412  1.2598
18150SOL    HW254828   3.587   3.792   0.144  1.2231  0.2808  0.3534
18151SOL     OW54829   2.842   1.922   1.485  0.0197  0.3148 -0.1659
18151SOL    HW154830   2.935   1.959   1.480 -0.1734  0.7799 -0.3121
18151SOL    HW254831   2.803   1.943   1.575  0.7023 -1.4299  0.5669
18152SOL     OW54832   0.688   9.896   6.015  0.0559 -0.5123 -0.2151
18152SOL    HW154833   0.607   9.852   5.978 -0.1903  0.6320 -1.0247
18152SOL    HW254834   0.770   9.857   5.971 -0.0998 -0.8861 -0.1794
18153SOL     OW54835   0.284   3.577   5.083 -0.9550 -0.2313 -0.1246
18153SOL    HW154836   0.328   3.645   5.024 -1.8426 -0.1659 -0.7353
18153SOL    HW254837   0.291   3.607   5.178 -0.1478  0.0316 -0.2621
18154SOL     OW54838   1.043   4.003   3.412  0.0897  0.2315 -0.3851
18154SOL    HW154839   1.076   3.931   3.472 -0.3910  0.8035  0.5797
18154SOL    HW254840   1.036   3.968   3.319 -0.0221 -0.9263  0.0467
18155SOL     OW54841   6.208   2.298   1.501  0.1070  0.3329  0.0190
18155SOL    HW154842   6.115   2.261   1.499 -0.1286  0.9169 -0.0037
18155SOL    HW254843   6.242   2.309   1.407 -0.1673  1.0209 -0.0023
18156SOL     OW54844   5.363   6.161   1.012 -0.5030  0.0488 -0.1544
18156SOL    HW154845   5.439   6.129   0.954 -2.6204 -1.0798 -2.3937
18156SOL    HW254846   5.335   6.088   1.074 -0.5345  0.0618 -0.1537
18157SOL     OW54847   2.839   2.494   6.501 -0.1872  0.5226 -0.0462
18157SOL    HW154848   2.747   2.497   6.461 -0.1768 -1.2624 -0.2485
18157SOL    HW254849   2.903   2.455   6.434  0.1430 -0.9779  1.1276
18158SOL     OW54850   3.274   7.369   7.023 -0.2480  0.6358 -0.6215
18158SOL    HW154851   3.180   7.400   7.033 -1.7607 -2.6872 -3.5356
18158SOL    HW254852   3.319   7.367   7.112 -3.3177  1.0302  0.9788
18159SOL     OW54853   7.905   0.780   6.075 -0.5014 -0.2693  0.1754
18159SOL    HW154854   7.990   0.822   6.044 -0.9823  0.5760 -0.0179
18159SOL    HW254855   7.892   0.692   6.028  0.5748 -0.7008  0.6890
18160SOL     OW54856   8.765   6.560   2.608 -0.3501 -0.0281  0.4483
18160SOL    HW154857   8.761   6.650   2.650 -0.5097 -0.3721  1.1934
18160SOL    HW254858   8.739   6.491   2.676 -1.3272 -0.5362 -0.4243
18161SOL     OW54859   1.155   2.191   6.429 -0.6213  0.2381 -0.1219
18161SOL    HW154860   1.067   2.231   6.404 -1.2235 -1.5316 -0.8660
18161SOL    HW254861   1.203   2.161   6.347  2.4097  4.5776 -0.1217
18162SOL     OW54862   1.661   6.506   7.557 -0.0801 -0.1633 -0.2452
18162SOL    HW154863   1.673   6.596   7.598  0.8973 -0.3905 -0.0168
18162SOL    HW254864   1.747   6.456   7.561 -0.4142 -0.8216 -1.0611
18163SOL     OW54865   2.615   0.214   1.843 -0.8475  0.0185  0.1180
18163SOL    HW154866   2.710   0.195   1.866 -0.8971 -1.2773 -0.6723
18163SOL    HW254867   2.567   0.128   1.827 -1.2012  0.7772 -3.2004
18164SOL     OW54868   4.563   1.760   1.576  0.7073 -0.3292 -0.2177
18164SOL    HW154869   4.547   1.680   1.634 -1.1629  1.2125  1.5077
18164SOL    HW254870   4.505   1.836   1.608 -0.3405  0.6048 -4.1192
18165SOL     OW54871   7.546   8.882   4.362 -0.1204 -0.5725  0.4553
18165SOL    HW154872   7.584   8.965   4.321  0.2025 -2.1259 -2.5135
18165SOL    HW254873   7.458   8.903   4.404  0.3123  1.4148  0.4189
18166SOL     OW54874   7.158   0.885   5.210  0.5581  0.3518 -0.3044
18166SOL    HW154875   7.186   0.882   5.306  0.2320 -0.2672 -0.2300
18166SOL    HW254876   7.205   0.813   5.159  2.1299  1.8131 -0.9856
18167SOL     OW54877   2.024   8.722   1.163  0.3493  0.2183  0.4259
18167SOL    HW154878   2.022   8.755   1.068  0.4041  0.9737  0.6895
18167SOL    HW254879   1.986   8.629   1.166 -1.5809  0.9800 -0.0217
18168SOL     OW54880   8.518   8.231   2.544  0.1987  0.4267  0.0686
18168SOL    HW154881   8.481   8.255   2.455 -1.2478 -0.2017  0.4902
18168SOL    HW254882   8.457   8.165   2.589  0.4377  1.4170  1.8891
18169SOL     OW54883   1.977   4.140   0.053  0.6212 -0.0095 -0.2724
18169SOL    HW154884   1.993   4.146   0.151  0.0214  0.6437 -0.2145
18169SOL    HW254885   1.997   4.229   0.010 -1.5376  0.4327 -0.3859
18170SOL     OW54886   3.182   5.425   1.500 -0.1515 -0.3326  0.2810
18170SOL    HW154887   3.240   5.506   1.501 -0.3103 -0.2004 -0.6979
18170SOL    HW254888   3.224   5.352   1.555  1.7023 -0.7594 -1.6381
18172SOL     OW54889   5.608   3.929   2.051 -0.1556  0.1788  0.4731
18172SOL    HW154890   5.639   3.944   1.957 -1.9864  1.3197  0.0145
18172SOL    HW254891   5.512   3.899   2.050 -0.1591  0.0746  1.9820
18173SOL     OW54892   7.454   0.773   6.460  0.1859 -0.4899 -0.3422
18173SOL    HW154893   7.391   0.780   6.537  0.0964  1.0847 -0.5278
18173SOL    HW254894   7.449   0.857   6.406  3.0383  0.0554  0.1264
18174SOL     OW54895   2.600   0.802   5.998  0.0100 -0.3852 -0.0739
18174SOL    HW154896   2.640   0.890   5.973 -0.4937  0.0984  0.8200
18174SOL    HW254897   2.509   0.816   6.037 -0.5503 -1.3934 -1.0025
18176SOL     OW54898   8.366   3.823   3.262 -0.2804 -0.0135  0.6156
18176SOL    HW154899   8.457   3.833   3.222 -0.5097 -1.7143 -0.3904
18176SOL    HW254900   8.297   3.855   3.197 -0.4541  0.5702  1.0801
18179SOL     OW54901   3.636   3.021   7.636  0.1544  0.0884  0.6336
18179SOL    HW154902   3.724   3.069   7.640 -0.4099  1.0779  1.2258
18179SOL    HW254903   3.624   2.967   7.718 -0.2020  0.6852  0.9779
18180SOL     OW54904   9.508   6.334   3.630 -0.6737 -0.3176  0.7050
18180SOL    HW154905   9.525   6.276   3.550  1.5107  1.4551 -0.1830
18180SOL    HW254906   9.595   6.372   3.662 -1.9961  2.0635  1.5533
18181SOL     OW54907   1.884   6.814   6.397 -0.0566  0.7625  0.0389
18181SOL    HW154908   1.966   6.818   6.453 -0.1325  0.0271  0.1990
18181SOL    HW254909   1.806   6.849   6.449 -0.1868 -0.2151  0.4984
18182SOL     OW54910   2.193   0.528   7.491  0.0442  0.5603  0.3574
18182SOL    HW154911   2.243   0.614   7.490  1.5090 -0.2661 -2.0394
18182SOL    HW254912   2.181   0.497   7.585  4.3698  0.6508  1.0344
18183SOL     OW54913   9.967   9.253   0.247 -0.3589 -0.4925 -0.4998
18183SOL    HW154914  10.011   9.209   0.168 -0.9700 -3.7184  0.8789
18183SOL    HW254915  10.033   9.260   0.321  0.8017  4.3419 -1.8217
18184SOL     OW54916   7.556   8.758   7.479 -0.2569  0.4559  0.1681
18184SOL    HW154917   7.604   8.692   7.537 -0.0871 -0.9369 -1.5060
18184SOL    HW254918   7.458   8.748   7.492 -0.2321 -0.1388 -0.0828
18185SOL     OW54919   2.966   2.351   4.417 -0.0275 -0.1550  0.1163
18185SOL    HW154920   3.057   2.315   4.437 -0.5363 -0.4823  1.9311
18185SOL    HW254921   2.956   2.441   4.459 -0.3384  0.1368 -0.5763
18186SOL     OW54922   8.691   3.031   1.959 -0.0940  0.5709 -0.6868
18186SOL    HW154923   8.714   2.950   2.013 -1.1821  0.4446 -0.4101
18186SOL    HW254924   8.774   3.085   1.944  0.7037 -0.7461 -1.1290
18187SOL     OW54925   0.220   8.182   1.540  0.5822 -0.1128 -0.1410
18187SOL    HW154926   0.218   8.141   1.450  1.0593 -0.2878 -0.0725
18187SOL    HW254927   0.221   8.282   1.532  0.2368 -0.1244 -0.3193
18188SOL     OW54928   4.953   7.411   0.920 -0.0211 -0.3162 -0.0343
18188SOL    HW154929   4.975   7.372   1.010  5.2362 -0.4445 -1.2209
18188SOL    HW254930   4.999   7.499   0.910 -1.1444  0.0281 -2.3607
18189SOL     OW54931   7.429   6.941   3.761  0.3392  0.0500 -0.1158
18189SOL    HW154932   7.522   6.975   3.771  0.2599  0.3510 -0.4080
18189SOL    HW254933   7.408   6.929   3.664  0.7390 -1.8448 -0.0043
18190SOL     OW54934   7.178   2.681   1.713 -0.0887 -0.0438 -0.5439
18190SOL    HW154935   7.175   2.708   1.616  0.7330  0.9349 -0.3017
18190SOL    HW254936   7.085   2.665   1.745 -0.3110 -1.3004 -1.7477
18191SOL     OW54937   2.222   1.081   7.025 -0.3642 -0.0993  0.5261
18191SOL    HW154938   2.155   1.078   6.951 -0.0564  0.8899  0.1932
18191SOL    HW254939   2.194   1.020   7.099 -0.3507 -1.5859 -0.6776
18194SOL     OW54940   9.216   1.367   0.388  0.3162  0.6306 -0.2950
18194SOL    HW154941   9.234   1.269   0.400 -0.5022  0.7673  2.5449
18194SOL    HW254942   9.126   1.379   0.346  0.3600  0.1618 -0.5293
18195SOL     OW54943   2.645   0.370   1.278  0.3290 -0.5420 -0.1066
18195SOL    HW154944   2.642   0.303   1.352 -1.0247  0.4770  0.7897
18195SOL    HW254945   2.737   0.407   1.270  0.2354  0.1684  1.8414
18196SOL     OW54946   2.065   4.048   5.507  0.2173  0.2844  0.2810
18196SOL    HW154947   1.973   4.069   5.542  0.6609  1.2079  0.9013
18196SOL    HW254948   2.065   3.955   5.470 -1.3607  0.7817 -1.0521
18198SOL     OW54949   9.025   1.912   4.988  0.1411 -0.0886 -0.3244
18198SOL    HW154950   9.098   1.894   5.054 -1.0370 -1.9071  0.5456
18198SOL    HW254951   8.989   2.004   5.002  0.4085 -0.1823  1.1050
18199SOL     OW54952   7.800   5.879   5.858 -0.0235  0.0510  0.0276
18199SOL    HW154953   7.828   5.873   5.954 -0.6947 -0.0311  0.2221
18199SOL    HW254954   7.710   5.923   5.853 -0.3813 -0.7462 -0.4986
18201SOL     OW54955   6.816   1.799   5.614 -0.6207  0.2012  0.3828
18201SOL    HW154956   6.728   1.816   5.659  0.2335  1.5430  1.6001
18201SOL    HW254957   6.842   1.703   5.628 -1.4277  0.0392  0.8410
18202SOL     OW54958   1.921   6.099   3.186  0.2120 -0.5085 -0.0176
18202SOL    HW154959   1.934   6.065   3.279  0.2896 -1.3679 -0.3351
18202SOL    HW254960   1.906   6.198   3.188 -0.1850 -0.5832  0.9390
18203SOL     OW54961   5.303   4.977   1.012  0.3660  0.5717 -0.5055
18203SOL    HW154962   5.318   4.975   0.913  0.1710 -0.5887 -0.5241
18203SOL    HW254963   5.216   5.022   1.032 -0.3192 -0.5172 -0.9713
18205SOL     OW54964   7.785   3.054   0.651 -0.2024 -0.5313 -0.2732
18205SOL    HW154965   7.848   3.008   0.588  2.0035 -0.4356  1.7957
18205SOL    HW254966   7.806   3.152   0.653 -0.1321 -0.5702  0.7821
18207SOL     OW54967   8.291   2.164   5.658  0.4154  0.3991  0.5884
18207SOL    HW154968   8.224   2.113   5.714  0.9514  0.6252  1.4500
18207SOL    HW254969   8.353   2.099   5.614  0.2337  0.2372  0.5647
18208SOL     OW54970   7.548   6.833   2.744  0.2428 -0.2563  0.0674
18208SOL    HW154971   7.544   6.828   2.843  2.1521  1.4000  0.2366
18208SOL    HW254972   7.591   6.750   2.708  0.5896 -0.3419  0.6790
18209SOL     OW54973   1.302   9.226   1.279  0.2579  0.0104  0.1113
18209SOL    HW154974   1.269   9.132   1.274 -1.5654  0.5569  1.4236
18209SOL    HW254975   1.226   9.289   1.269  1.1410  1.3211  1.3644
18210SOL     OW54976   7.428   6.455   2.190  0.4579  0.0914 -0.0674
18210SOL    HW154977   7.499   6.524   2.205  1.1523 -0.6014 -0.1535
18210SOL    HW254978   7.470   6.368   2.163 -0.2632 -0.9946  2.2303
18211SOL     OW54979   2.855   5.491   5.819 -0.0013 -0.4770 -0.7483
18211SOL    HW154980   2.823   5.446   5.902  1.5826  0.2316  0.2829
18211SOL    HW254981   2.821   5.442   5.739 -1.2110 -1.4133  0.3141
18213SOL     OW54982   5.964   3.301   2.562 -0.0260 -0.0109 -0.1171
18213SOL    HW154983   6.032   3.351   2.509 -0.5856  0.8077 -0.0730
18213SOL    HW254984   5.980   3.315   2.660 -0.8005  0.9283 -0.1190
18214SOL     OW54985   9.478   1.158   5.837  0.0079 -0.5175 -0.5120
18214SOL    HW154986   9.488   1.084   5.904  0.7791  1.2222  1.3506
18214SOL    HW254987   9.559   1.216   5.840 -1.3622  1.4473 -0.6481
18215SOL     OW54988   3.447   7.246   2.569  0.0756  0.2146  0.1956
18215SOL    HW154989   3.530   7.280   2.524  0.5141 -0.8443  0.1821
18215SOL    HW254990   3.470   7.221   2.663 -0.4686  0.8832  0.5088
18216SOL     OW54991   0.435   9.799   3.821  0.1037  0.0855 -0.2633
18216SOL    HW154992   0.358   9.856   3.849  0.1232  0.8777 -1.7843
18216SOL    HW254993   0.518   9.831   3.867  0.2091  1.6293 -1.4779
18218SOL     OW54994   9.626   4.124   3.117  0.3153  0.6195  0.0682
18218SOL    HW154995   9.708   4.130   3.173  0.6540  0.7656 -0.4402
18218SOL    HW254996   9.599   4.216   3.087 -1.0713  0.7652  1.7172
18219SOL     OW54997   6.984   4.659   2.315  0.1765  0.5901  0.2672
18219SOL    HW154998   6.957   4.689   2.406 -0.7466  0.5038  0.0320
18219SOL    HW254999   7.076   4.693   2.294  0.5785  0.2222  1.3965
18220SOL     OW55000   3.563   3.648   7.373 -0.1921 -0.4460  0.1498
18220SOL    HW155001   3.528   3.559   7.346  0.6666 -0.3421 -1.3852
18220SOL    HW255002   3.659   3.640   7.401 -0.8041 -0.3910  2.3073
18221SOL     OW55003   1.893   6.984   5.346  0.5125  0.2044  0.3578
18221SOL    HW155004   1.937   7.064   5.388  0.7383 -0.2267  0.9530
18221SOL    HW255005   1.795   7.000   5.341  0.4562  0.1984  1.2235
18222SOL     OW55006   6.023   1.194   3.803  0.1903 -0.2600 -0.0510
18222SOL    HW155007   6.008   1.262   3.875 -0.5395  0.2977 -0.7123
18222SOL    HW255008   5.954   1.206   3.731  0.8750 -0.8316 -0.8185
18223SOL     OW55009   9.457   8.980   2.580 -0.0779 -0.2892 -0.2334
18223SOL    HW155010   9.413   9.063   2.548  0.1757 -0.0724 -0.0193
18223SOL    HW255011   9.478   8.989   2.678  0.1169 -0.5317 -0.2522
18224SOL     OW55012   3.331   4.853   4.783 -0.0359  0.4403 -0.6186
18224SOL    HW155013   3.366   4.898   4.865  0.1090  0.3381 -0.6232
18224SOL    HW255014   3.231   4.851   4.786 -0.0952  1.9137 -1.2438
18225SOL     OW55015   5.725   8.876   4.660  0.2863 -0.2570  0.0778
18225SOL    HW155016   5.661   8.951   4.646 -0.7976 -0.9214  1.3464
18225SOL    HW255017   5.808   8.892   4.606 -0.6669  0.9419 -1.0676
18226SOL     OW55018   3.548   7.051   0.946  0.7144 -0.2683  0.4236
18226SOL    HW155019   3.629   7.095   0.907  1.2919  0.0888  1.9980
18226SOL    HW255020   3.483   7.030   0.873  0.9728  2.0643 -0.5045
18227SOL     OW55021   7.830   1.327   2.053  0.1089  0.3881 -0.3159
18227SOL    HW155022   7.901   1.365   1.994 -2.6627  3.1038 -2.0354
18227SOL    HW255023   7.755   1.293   1.998 -0.7581 -0.7901  1.5358
18228SOL     OW55024   3.798   1.561   5.690 -0.1362  0.2681 -0.3215
18228SOL    HW155025   3.861   1.638   5.678  1.1904 -0.9707 -1.7007
18228SOL    HW255026   3.769   1.528   5.600  0.8719 -2.0665  0.1680
18229SOL     OW55027   9.487   7.489   1.106  0.1885  0.3786 -0.1368
18229SOL    HW155028   9.400   7.483   1.057  0.6760 -0.2248 -0.9471
18229SOL    HW255029   9.553   7.426   1.064  0.3711 -0.7884  1.8217
18230SOL     OW55030   5.286   1.340   0.310  0.2110  0.3356  0.8789
18230SOL    HW155031   5.304   1.265   0.246 -2.6176  1.3699 -1.2533
18230SOL    HW255032   5.204   1.319   0.364  1.8579  0.0425  3.3481
18231SOL     OW55033   4.283   0.105   0.811  0.1775 -0.4334 -0.2371
18231SOL    HW155034   4.361   0.160   0.839 -0.9481  0.5311  1.0842
18231SOL    HW255035   4.289   0.085   0.713  1.6101  0.3728 -0.3270
18234SOL     OW55036   1.521   0.948   4.476 -0.0754 -0.8093 -0.0013
18234SOL    HW155037   1.616   0.918   4.487  0.3868  0.3995 -0.5808
18234SOL    HW255038   1.470   0.929   4.560  1.6743  2.0579  1.8041
18236SOL     OW55039   7.378   3.730   3.695 -0.6534 -0.1281  0.3385
18236SOL    HW155040   7.445   3.775   3.636 -0.3368 -1.3049 -0.1980
18236SOL    HW255041   7.298   3.789   3.705  0.2907  1.1234  0.6793
18237SOL     OW55042   8.448   8.338   0.857 -0.2187  0.2005  0.4062
18237SOL    HW155043   8.522   8.406   0.852 -0.6322  0.5091 -2.5817
18237SOL    HW255044   8.362   8.384   0.879 -0.1149  0.3238  0.5591
18238SOL     OW55045   9.194   2.634   2.313  0.0795 -0.7224  0.4965
18238SOL    HW155046   9.288   2.639   2.347  0.6906  0.7776 -1.3184
18238SOL    HW255047   9.152   2.724   2.321  0.4371 -0.1468 -3.1550
18240SOL     OW55048   8.605   2.117   1.656  0.0821 -0.0226 -0.0406
18240SOL    HW155049   8.538   2.044   1.642 -0.1105  0.1266  0.0847
18240SOL    HW255050   8.561   2.193   1.704  0.3085  0.1303 -0.0726
18242SOL     OW55051   3.457   7.319   5.758  0.0568  0.0985  0.1851
18242SOL    HW155052   3.436   7.311   5.856 -0.7607 -1.5729 -0.1004
18242SOL    HW255053   3.372   7.327   5.707  0.4175 -0.3092 -0.4864
18243SOL     OW55054   8.646   3.376   5.542  0.0257 -0.2501 -0.1970
18243SOL    HW155055   8.635   3.369   5.443 -0.4886 -0.6724 -0.1123
18243SOL    HW255056   8.656   3.285   5.582 -1.8245 -0.2357  0.3635
18244SOL     OW55057   3.840   1.069   2.260  0.2553  0.4579  0.2298
18244SOL    HW155058   3.776   1.016   2.317  0.6274  2.4115  2.5393
18244SOL    HW255059   3.794   1.151   2.227  1.0569  1.0026  0.4715
18245SOL     OW55060   1.727   2.804   7.174  0.2519  0.5092  0.1593
18245SOL    HW155061   1.755   2.736   7.105  0.3962  0.4354  0.2915
18245SOL    HW255062   1.656   2.765   7.232 -1.3277  1.2495 -1.2094
18246SOL     OW55063   7.463   7.846   4.260  0.4325 -0.0887  0.6160
18246SOL    HW155064   7.412   7.929   4.235 -1.0401 -0.1104  3.3442
18246SOL    HW255065   7.519   7.816   4.182 -1.0782  1.9215 -1.2981
18248SOL     OW55066   7.590   8.640   6.832  0.2242  0.2784 -0.3975
18248SOL    HW155067   7.666   8.622   6.771  0.9729  0.0411  0.5936
18248SOL    HW255068   7.624   8.656   6.925 -0.9563 -0.4090  0.1744
18249SOL     OW55069   8.511   2.375   0.671 -0.3337  0.4867  0.0497
18249SOL    HW155070   8.506   2.343   0.577  2.7897  1.9235 -0.6724
18249SOL    HW255071   8.545   2.302   0.730  1.1456  0.6425 -0.5849
18250SOL     OW55072   5.205   0.768   4.525 -0.6600 -0.1786  0.0741
18250SOL    HW155073   5.133   0.757   4.456  0.8713 -0.0632 -1.5655
18250SOL    HW255074   5.289   0.724   4.492  0.4055  0.8652  1.3825
18251SOL     OW55075   9.137   3.078   6.680 -0.4963 -0.0013  0.4886
18251SOL    HW155076   9.174   3.010   6.744  0.0971 -0.6089 -0.4929
18251SOL    HW255077   9.070   3.034   6.620  0.3468  0.1312 -0.5669
18252SOL     OW55078   7.798   7.509   6.050  0.0176 -0.0518  0.0294
18252SOL    HW155079   7.849   7.589   6.082 -0.7895  0.2305  0.6520
18252SOL    HW255080   7.859   7.447   6.002  0.4571  1.4163 -1.3626
18253SOL     OW55081   1.767   0.059   6.983  0.2307  0.5100 -0.8230
18253SOL    HW155082   1.715   0.108   6.913 -0.4614  0.9036 -0.0412
18253SOL    HW255083   1.815  -0.018   6.941 -0.1986  0.7306 -1.7257
18255SOL     OW55084   2.229   9.593   4.165  0.1728  0.3230 -0.0014
18255SOL    HW155085   2.184   9.668   4.214 -0.4971  1.9038 -2.8744
18255SOL    HW255086   2.160   9.540   4.116  1.0032  0.2671 -1.1422
18259SOL     OW55087   7.678   8.107   2.241  0.1579  0.0207 -0.3648
18259SOL    HW155088   7.720   8.108   2.332  0.3459  0.2524 -0.4536
18259SOL    HW255089   7.639   8.197   2.222 -1.7129 -0.6139  0.3278
18260SOL     OW55090   7.213   5.710   2.042 -0.7749 -0.0057  0.1120
18260SOL    HW155091   7.194   5.807   2.056  0.1636  0.0548  1.0081
18260SOL    HW255092   7.310   5.693   2.056 -1.0601 -1.2032  0.6584
18261SOL     OW55093   8.415   6.635   2.132  0.5558 -0.1054  0.6068
18261SOL    HW155094   8.398   6.552   2.079  0.5116  0.0942  0.3030
18261SOL    HW255095   8.432   6.711   2.069  1.0817  0.0135  0.8863
18262SOL     OW55096   9.514   6.101   0.628  0.3074 -0.3572 -0.3648
18262SOL    HW155097   9.451   6.024   0.617  0.8885 -0.7491 -0.9927
18262SOL    HW255098   9.545   6.105   0.723 -0.3487 -0.4031 -0.1431
18263SOL     OW55099   5.007   0.322   5.351 -0.1270 -0.4908  0.6062
18263SOL    HW155100   4.983   0.283   5.262 -0.5429  0.9182  0.0840
18263SOL    HW255101   4.926   0.326   5.408 -0.4861  1.2571  0.0062
18264SOL     OW55102   9.220   8.683   1.120 -0.1944  0.7578 -0.1830
18264SOL    HW155103   9.222   8.607   1.055 -0.3568  1.1203 -0.6146
18264SOL    HW255104   9.296   8.745   1.102  0.2723  0.3948  0.5380
18266SOL     OW55105   1.569   0.372   0.131 -0.0913  0.0587 -0.4536
18266SOL    HW155106   1.597   0.468   0.124  1.8849 -0.5582 -1.5143
18266SOL    HW255107   1.531   0.343   0.043 -1.0991 -0.0054  0.0061
18267SOL     OW55108   2.802   5.988   0.559  0.0255 -0.1601  0.2448
18267SOL    HW155109   2.801   6.087   0.546  1.7442 -0.0632  0.7708
18267SOL    HW255110   2.725   5.962   0.618  1.9578  1.4008  3.5946
18268SOL     OW55111   7.662   7.855   3.810 -0.4035  0.0898  0.1757
18268SOL    HW155112   7.562   7.857   3.805 -0.3501  1.0011 -0.5161
18268SOL    HW255113   7.700   7.913   3.739  0.6413 -0.8217 -0.0141
18269SOL     OW55114   7.746   0.615   2.802  0.7799 -0.2500  0.4192
18269SOL    HW155115   7.783   0.523   2.789 -1.1208 -0.6852 -2.2958
18269SOL    HW255116   7.664   0.610   2.858 -0.3951 -0.4806 -1.2909
18270SOL     OW55117   9.201   4.298   3.609 -0.1352  0.2942  0.0287
18270SOL    HW155118   9.106   4.313   3.581  0.2671  0.5057 -1.2578
18270SOL    HW255119   9.262   4.343   3.544  0.8651 -0.3400  0.5212
18271SOL     OW55120   3.532   8.209   5.420  0.6317  0.3938 -0.3143
18271SOL    HW155121   3.495   8.301   5.436 -0.2693  0.0290 -0.2822
18271SOL    HW255122   3.546   8.196   5.322 -1.2543 -0.1957 -0.5189
18272SOL     OW55123   7.581   8.939   2.404  0.3478 -0.1422 -0.3943
18272SOL    HW155124   7.599   8.940   2.502 -0.5187 -1.2991 -0.2234
18272SOL    HW255125   7.530   9.021   2.379  0.6008  0.1739  0.1075
18273SOL     OW55126   6.547   5.014   0.816 -0.0832  0.0549  0.0248
18273SOL    HW155127   6.628   4.961   0.842  0.1722 -0.4866 -1.7639
18273SOL    HW255128   6.465   4.964   0.842  0.0650  1.9536  4.5612
18274SOL     OW55129   0.720   4.812   4.155  0.0472 -0.3213  0.1617
18274SOL    HW155130   0.622   4.812   4.172 -0.0333 -0.8099 -0.3077
18274SOL    HW255131   0.763   4.736   4.205  0.2945  0.3540  0.9849
18275SOL     OW55132   3.769   9.394   2.536 -0.2798 -0.3120  0.6935
18275SOL    HW155133   3.701   9.341   2.587  0.7997 -2.5500 -0.1125
18275SOL    HW255134   3.858   9.386   2.581 -0.0250  0.5207  0.3446
18276SOL     OW55135   9.606   3.101   1.305  0.1480 -0.4399  0.0599
18276SOL    HW155136   9.626   3.199   1.294 -0.1669 -0.5061 -1.2519
18276SOL    HW255137   9.688   3.054   1.337 -0.0465  0.4352  1.9258
18277SOL     OW55138   3.044   4.781   6.817  0.5769  0.3559 -0.1981
18277SOL    HW155139   2.955   4.746   6.789 -0.3643  1.0619  1.8480
18277SOL    HW255140   3.106   4.705   6.835 -0.4964 -0.2264  1.1308
18278SOL     OW55141   1.102   8.573   4.557  0.0601  0.7184 -0.4444
18278SOL    HW155142   1.043   8.619   4.490  1.3077 -0.4924 -2.4207
18278SOL    HW255143   1.198   8.587   4.532  0.5183 -0.3759  0.6777
18279SOL     OW55144   8.850   0.889   1.245  0.0498  0.4286  0.0700
18279SOL    HW155145   8.795   0.828   1.189  0.4812 -0.4778  0.6169
18279SOL    HW255146   8.941   0.899   1.204 -0.3323  1.4725 -0.5311
18280SOL     OW55147   7.912   8.682   7.717 -0.3658  0.1502  0.2364
18280SOL    HW155148   7.999   8.730   7.699  0.0662  0.4094  2.7415
18280SOL    HW255149   7.924   8.584   7.701  0.1660  0.2786 -0.1721
18281SOL     OW55150   6.613   8.302   4.842 -0.0597 -0.3484 -0.3094
18281SOL    HW155151   6.577   8.237   4.775  1.1380 -1.2327 -0.0983
18281SOL    HW255152   6.678   8.364   4.798  1.0160 -1.1734  0.1105
18282SOL     OW55153   3.334   4.249   3.413 -0.5577  0.0779  0.5663
18282SOL    HW155154   3.280   4.296   3.483  0.1331  0.1136  1.0783
18282SOL    HW255155   3.286   4.167   3.383 -0.4296 -0.4483  1.7691
18283SOL     OW55156   0.434   4.827   4.150 -0.2072 -0.3847  0.1877
18283SOL    HW155157   0.408   4.886   4.227 -0.8280 -1.2862  0.6724
18283SOL    HW255158   0.464   4.884   4.074  0.0114  0.5364  0.9445
18284SOL     OW55159   7.591   5.676   5.152 -0.2421  0.2210  0.1791
18284SOL    HW155160   7.582   5.654   5.054  0.7636  0.5806 -0.0068
18284SOL    HW255161   7.517   5.736   5.180 -1.5097 -1.2418  0.0422
18285SOL     OW55162   2.224   7.114   1.741  0.5609 -0.4827 -0.4228
18285SOL    HW155163   2.153   7.080   1.803 -0.2589 -1.2067 -1.7283
18285SOL    HW255164   2.195   7.202   1.703 -0.1141 -1.2706 -1.7457
18286SOL     OW55165   5.337   1.915   5.580  0.6712 -0.0147  0.6143
18286SOL    HW155166   5.255   1.940   5.528  0.8917  1.1142  0.7992
18286SOL    HW255167   5.419   1.939   5.527  0.8872 -0.5452  0.7030
18287SOL     OW55168   0.079   3.101   0.343  0.0428  0.0685 -0.4357
18287SOL    HW155169   0.133   3.152   0.410  0.9547 -0.3790 -0.8116
18287SOL    HW255170   0.100   3.003   0.351 -0.7180 -0.1089 -0.5876
18289SOL     OW55171   5.100   3.807   1.332  0.0438  0.1894  0.2585
18289SOL    HW155172   5.110   3.906   1.335 -0.9018  0.3450 -1.2664
18289SOL    HW255173   5.120   3.769   1.422  0.0681  1.7904  0.9505
18290SOL     OW55174   0.295   1.701   1.427  0.0092  0.0905  0.8316
18290SOL    HW155175   0.252   1.614   1.451  0.0365 -0.4066 -0.8458
18290SOL    HW255176   0.381   1.683   1.378 -0.4779  1.0315 -0.4003
18291SOL     OW55177   8.662   0.741   7.052  0.0809  0.2387  0.1585
18291SOL    HW155178   8.597   0.673   7.085  0.6067 -2.3637 -3.8098
18291SOL    HW255179   8.613   0.812   7.000  0.1583 -0.5953 -1.0721
18292SOL     OW55180   7.488   2.381   2.435 -0.1151 -0.1062  0.4268
18292SOL    HW155181   7.575   2.407   2.476  0.1812 -3.3769  2.0221
18292SOL    HW255182   7.413   2.413   2.494  0.2063 -1.7317  1.7537
18293SOL     OW55183   0.320   6.650   6.317 -0.3274  0.2520  0.1924
18293SOL    HW155184   0.264   6.570   6.334  0.7662 -0.3666  1.0039
18293SOL    HW255185   0.407   6.641   6.366 -1.1761  3.0619  2.3947
18295SOL     OW55186   8.761   2.565   5.604  0.0560 -0.5732 -0.0586
18295SOL    HW155187   8.687   2.632   5.601 -0.7606 -1.3742  1.5792
18295SOL    HW255188   8.782   2.535   5.511  0.3527  1.8469 -0.8080
18297SOL     OW55189   1.320   7.366   6.341 -0.3759  0.2529 -0.1640
18297SOL    HW155190   1.292   7.461   6.357  0.6096  0.7991 -1.6104
18297SOL    HW255191   1.266   7.305   6.399 -2.3214  1.5430 -0.5769
18298SOL     OW55192   4.978   5.818   2.134 -0.5775  0.0886 -0.2510
18298SOL    HW155193   5.047   5.784   2.198  1.3093 -0.7507 -2.6666
18298SOL    HW255194   4.902   5.857   2.186  1.2285  0.1424  2.4962
18299SOL     OW55195   9.223   2.015   4.249  0.4850 -0.4946  0.3570
18299SOL    HW155196   9.238   2.083   4.321 -1.1049  1.2811 -0.9569
18299SOL    HW255197   9.309   2.001   4.199  1.8292 -2.3715  3.0699
18302SOL     OW55198   2.251   9.186   7.406 -0.2272 -0.8035  0.2395
18302SOL    HW155199   2.312   9.194   7.485  0.8365  1.2086 -0.7461
18302SOL    HW255200   2.305   9.184   7.322 -1.5046  2.0025 -0.7203
18304SOL     OW55201   3.309   4.256   1.894  0.4207  0.7278 -0.2043
18304SOL    HW155202   3.356   4.200   1.826  0.1675  0.8041 -0.4427
18304SOL    HW255203   3.228   4.209   1.928 -0.4380  1.4215 -1.2513
18305SOL     OW55204   3.969   4.064   5.518 -0.1994  0.0119  0.3144
18305SOL    HW155205   3.885   4.050   5.465 -0.7262  0.2651  1.0734
18305SOL    HW255206   4.030   4.125   5.469 -0.9145  0.6764  0.2502
18306SOL     OW55207   3.872   7.626   5.180  0.4051 -0.3794  0.3252
18306SOL    HW155208   3.779   7.661   5.189  0.6168  0.5346 -0.8688
18306SOL    HW255209   3.870   7.528   5.159 -0.2407 -0.6783  1.7300
18307SOL     OW55210   6.771   9.925   6.625 -0.0661 -0.3196 -0.4221
18307SOL    HW155211   6.809  10.005   6.579  2.1193 -1.2953 -0.3502
18307SOL    HW255212   6.680   9.948   6.660 -0.2174  1.5779 -1.9227
18310SOL     OW55213   3.906   0.155   5.104 -0.0510 -0.4639  0.0885
18310SOL    HW155214   3.934   0.063   5.079  0.8068 -0.3699  0.6566
18310SOL    HW255215   3.892   0.209   5.021  0.3766 -0.8396 -0.2341
18311SOL     OW55216   0.060   2.162   7.516  0.4075  0.3179 -0.4485
18311SOL    HW155217   0.098   2.252   7.493  0.1556  0.3747 -0.6494
18311SOL    HW255218   0.075   2.143   7.613 -1.1812  1.3964  0.0349
18313SOL     OW55219   0.603   7.449   0.142 -0.3772  0.3413 -0.6884
18313SOL    HW155220   0.546   7.389   0.086 -1.5434  0.2565  0.5678
18313SOL    HW255221   0.549   7.527   0.174  0.2852  0.4271  0.2659
18314SOL     OW55222   0.170   4.319   0.478  0.0444  0.1984 -0.5126
18314SOL    HW155223   0.127   4.396   0.526 -1.8352 -0.3579 -1.2632
18314SOL    HW255224   0.142   4.233   0.520  2.9523 -0.1011  0.9777
18315SOL     OW55225   1.293   8.852   4.662  0.2946 -0.0634 -0.1206
18315SOL    HW155226   1.358   8.917   4.700  0.1882  0.0379 -0.1109
18315SOL    HW255227   1.214   8.845   4.723  0.3369 -0.2516 -0.0890
18316SOL     OW55228   0.192   5.067   5.098 -0.5167 -0.0178  1.0102
18316SOL    HW155229   0.123   5.107   5.158 -2.9667 -0.7083 -1.2889
18316SOL    HW255230   0.194   4.968   5.111 -1.2142 -0.1962 -0.1946
18317SOL     OW55231   2.521   5.131   1.567 -0.6831 -0.1405  0.1556
18317SOL    HW155232   2.476   5.065   1.507 -1.6921  0.0278  0.7158
18317SOL    HW255233   2.452   5.183   1.617  0.0991  1.4405 -0.3723
18318SOL     OW55234   0.765   8.235   1.052 -0.0303 -0.0084  0.3184
18318SOL    HW155235   0.862   8.208   1.057  0.5762  1.9299 -0.4483
18318SOL    HW255236   0.708   8.160   1.086  1.7939 -0.8270  1.6967
18321SOL     OW55237   2.311   7.598   5.380 -0.4364 -0.8657  0.0141
18321SOL    HW155238   2.213   7.593   5.358 -1.4411  0.4002  3.8531
18321SOL    HW255239   2.357   7.656   5.312 -2.0751 -2.3513 -2.4716
18322SOL     OW55240   8.806   1.584   7.252 -0.5471 -0.0044  0.0733
18322SOL    HW155241   8.875   1.519   7.282  2.4844  2.8615 -0.4323
18322SOL    HW255242   8.796   1.580   7.153  0.3247  0.9607 -0.0522
18323SOL     OW55243   6.931   9.770   6.396 -0.2085 -0.8978 -0.5462
18323SOL    HW155244   6.887   9.819   6.472  0.0679  1.0102 -1.5944
18323SOL    HW255245   7.022   9.739   6.425 -0.6538 -1.3833  0.3481
18324SOL     OW55246   0.555   1.421   1.277  0.0748 -0.0237 -0.0509
18324SOL    HW155247   0.547   1.470   1.190  1.8775  0.2241 -0.0818
18324SOL    HW255248   0.576   1.325   1.259 -0.3211 -0.1443  0.1090
18325SOL     OW55249   7.428   2.235   3.637  0.0107 -0.3538 -0.5037
18325SOL    HW155250   7.401   2.251   3.732 -1.5237 -0.1645 -0.9636
18325SOL    HW255251   7.498   2.164   3.634  5.0692  4.1864  1.3691
18326SOL     OW55252   0.661   1.334   2.406 -0.2922 -0.2035  0.1574
18326SOL    HW155253   0.678   1.330   2.307  2.2840 -0.0330  0.5619
18326SOL    HW255254   0.567   1.363   2.422 -1.2132 -1.7251 -2.2504
18328SOL     OW55255   3.999   2.463   2.155 -0.2536 -0.0278 -0.4547
18328SOL    HW155256   4.010   2.510   2.243 -0.5786 -0.6934 -0.0607
18328SOL    HW255257   3.991   2.365   2.170  1.1444 -0.2879 -1.3394
18329SOL     OW55258   1.681   3.629   6.323 -0.4192 -0.4950 -0.1798
18329SOL    HW155259   1.613   3.561   6.299  0.0981 -0.0503 -3.0595
18329SOL    HW255260   1.724   3.664   6.240  1.5045  1.0925  1.4357
18332SOL     OW55261   1.168   2.406   0.306  0.3639  0.1210  0.5311
18332SOL    HW155262   1.171   2.311   0.275 -0.1378  0.1416  0.4186
18332SOL    HW255263   1.261   2.435   0.331  0.9071  0.3349 -1.6399
18333SOL     OW55264   1.315   4.397   1.534 -0.0794  0.4387 -0.5290
18333SOL    HW155265   1.265   4.451   1.467 -0.8640 -0.7459 -0.9294
18333SOL    HW255266   1.412   4.419   1.529 -0.2056  0.7970 -1.6454
18335SOL     OW55267   8.465   2.062   2.933 -0.0908 -0.4236  0.1633
18335SOL    HW155268   8.550   2.113   2.918  0.4811  0.0039  4.2970
18335SOL    HW255269   8.390   2.126   2.947 -0.2305 -0.7744  1.0043
18336SOL     OW55270   5.493   9.352   6.791 -0.1341 -0.2445 -0.2727
18336SOL    HW155271   5.463   9.332   6.885  0.2122  0.5540  0.0169
18336SOL    HW255272   5.486   9.270   6.735 -2.8629 -0.0989 -0.2040
18337SOL     OW55273   4.794   0.327   4.346 -0.5556 -0.3534 -0.0494
18337SOL    HW155274   4.706   0.373   4.333 -0.7620 -0.3114  1.4245
18337SOL    HW255275   4.779   0.235   4.381 -0.0115 -0.3997  0.0604
18339SOL     OW55276   1.406   3.585   4.191  0.3677 -0.1154  0.0235
18339SOL    HW155277   1.480   3.538   4.143 -0.3786 -0.9464 -0.3301
18339SOL    HW255278   1.341   3.518   4.225 -0.6836  0.6568 -0.4446
18340SOL     OW55279   2.596   6.951   2.587 -0.1474  0.2051  0.4332
18340SOL    HW155280   2.606   6.852   2.589  0.3902  0.2494  0.0275
18340SOL    HW255281   2.685   6.994   2.599 -0.4754  0.6459  1.2930
18341SOL     OW55282   2.909   5.819   5.106  0.2349  0.4297 -0.9283
18341SOL    HW155283   2.901   5.807   5.006  1.9470 -0.8093 -0.9441
18341SOL    HW255284   2.942   5.734   5.146 -0.5768  0.8904  0.7349
18342SOL     OW55285   6.891   7.609   4.162  0.2051  0.5459  0.3121
18342SOL    HW155286   6.919   7.513   4.161  2.0046  1.0485 -1.4765
18342SOL    HW255287   6.795   7.616   4.134  1.3244 -0.4264 -4.1436
18343SOL     OW55288   1.184   1.348   2.074  0.5129  0.1788 -0.2358
18343SOL    HW155289   1.120   1.412   2.031  0.0928  1.0137  1.6068
18343SOL    HW255290   1.160   1.254   2.047 -0.9459  0.5503 -0.2598
18344SOL     OW55291   5.105   8.862   5.766 -0.2009 -0.1865 -0.2564
18344SOL    HW155292   5.073   8.936   5.825  0.0524 -0.2811  0.0045
18344SOL    HW255293   5.172   8.807   5.816 -0.0647 -0.3306 -0.5969
18345SOL     OW55294   4.957   8.999   1.844  0.3500  0.6036  0.3098
18345SOL    HW155295   4.968   9.097   1.833  1.5857  0.3179 -1.2512
18345SOL    HW255296   5.008   8.951   1.771 -0.6616 -1.1629  0.7320
18346SOL     OW55297   3.001   7.067   2.229  0.4196 -0.4255  0.4160
18346SOL    HW155298   2.999   7.166   2.218 -0.0438 -0.6656 -2.0702
18346SOL    HW255299   2.908   7.030   2.220  0.4685 -1.0216  2.1692
18347SOL     OW55300   5.811   9.261   1.847 -0.1218 -0.2941  0.2084
18347SOL    HW155301   5.740   9.201   1.884 -0.3249 -0.2054 -0.0353
18347SOL    HW255302   5.875   9.285   1.919 -0.4577 -0.2073  0.4789
18348SOL     OW55303   3.669   2.280   7.021 -0.7621 -0.5142 -0.2593
18348SOL    HW155304   3.677   2.274   7.121 -0.1737  0.2622 -0.2518
18348SOL    HW255305   3.614   2.360   6.998 -3.5716 -2.4542 -0.4808
18349SOL     OW55306   7.716   8.064   5.222 -0.1469  0.4379  0.2362
18349SOL    HW155307   7.709   8.104   5.313  1.5807  1.7105 -0.1568
18349SOL    HW255308   7.810   8.031   5.208 -1.0026 -1.9492 -0.2136
18350SOL     OW55309   9.231   6.992   6.135 -0.2057 -0.4196  0.3607
18350SOL    HW155310   9.252   6.994   6.037 -0.0439 -2.0226  0.3560
18350SOL    HW255311   9.244   7.083   6.173  1.2451 -0.1182 -0.7945
18351SOL     OW55312   9.848   5.802   4.515 -0.4780  0.3646 -0.0515
18351SOL    HW155313   9.829   5.888   4.563  0.2743  1.3080 -1.4105
18351SOL    HW255314   9.886   5.822   4.425 -0.7248 -1.3981 -0.5663
18352SOL     OW55315   2.762   5.503   6.652 -0.1536  0.0786  0.5132
18352SOL    HW155316   2.834   5.573   6.658  0.7157 -0.6649 -0.9119
18352SOL    HW255317   2.738   5.473   6.744 -1.4548  3.1423  1.2380
18353SOL     OW55318   8.535   6.067   1.523 -0.0285 -0.5801  0.2794
18353SOL    HW155319   8.565   6.079   1.618  0.6476  1.6397 -0.2018
18353SOL    HW255320   8.446   6.109   1.510 -0.1988 -1.0314 -0.0426
18354SOL     OW55321   5.213   0.004   2.335  0.9073  0.4433  0.4719
18354SOL    HW155322   5.210   0.102   2.357  0.6719  0.3759  0.7427
18354SOL    HW255323   5.292  -0.037   2.381  1.3364  0.6190 -0.1055
18355SOL     OW55324   1.033   4.427   7.159 -0.3901  0.3010  0.0598
18355SOL    HW155325   1.069   4.520   7.144 -0.6958  0.4702  0.3798
18355SOL    HW255326   0.954   4.431   7.219  1.2487 -0.4332  2.3460
18357SOL     OW55327   0.636   5.739   3.206  0.2598 -0.1770  0.0687
18357SOL    HW155328   0.720   5.687   3.219  1.2016  0.8361 -1.7974
18357SOL    HW255329   0.572   5.685   3.151  0.6231  0.0377 -0.5556
18358SOL     OW55330   8.698   7.020   5.100  0.6098  0.0847 -0.0350
18358SOL    HW155331   8.636   7.098   5.095 -1.7087 -1.7597 -0.8544
18358SOL    HW255332   8.649   6.941   5.137  2.4233 -1.4525 -0.8298
18359SOL     OW55333   2.428   7.714   0.383  0.6718 -0.5901 -0.2960
18359SOL    HW155334   2.504   7.690   0.443 -0.6720  0.2251  1.7928
18359SOL    HW255335   2.352   7.651   0.398 -0.1916  0.4823 -0.0821
18361SOL     OW55336   6.348   9.812   1.479  0.3413  0.8012  0.3945
18361SOL    HW155337   6.395   9.726   1.464 -0.6532  0.8369 -3.1571
18361SOL    HW255338   6.251   9.795   1.498 -0.2104  1.1782 -1.9722
18364SOL     OW55339   0.556   4.620   6.547  0.8968 -0.6253  0.6293
18364SOL    HW155340   0.588   4.685   6.478  2.4309  0.0344  1.9396
18364SOL    HW255341   0.457   4.606   6.536  1.0249 -0.1453 -1.3613
18365SOL     OW55342   3.183   7.807   4.737 -0.5043  0.0010 -0.2262
18365SOL    HW155343   3.275   7.770   4.733 -0.4334  0.1301  0.1678
18365SOL    HW255344   3.183   7.900   4.700 -0.4716  0.0087 -0.2063
18366SOL     OW55345   3.987   1.805   2.948 -0.7011  0.2828 -0.1311
18366SOL    HW155346   4.005   1.898   2.918 -0.5447  0.3870  0.2785
18366SOL    HW255347   3.970   1.804   3.047 -0.3618 -0.1680 -0.0731
18367SOL     OW55348   0.801   3.152   5.353  0.0109 -0.1211 -0.1335
18367SOL    HW155349   0.757   3.064   5.369 -1.0572  0.4410  0.0955
18367SOL    HW255350   0.782   3.213   5.431 -1.2028  1.0547 -1.3103
18368SOL     OW55351   0.926   5.237   1.725  0.2646  1.2716  0.0701
18368SOL    HW155352   0.913   5.162   1.789 -1.2934  0.7451 -0.8390
18368SOL    HW255353   0.958   5.201   1.637  0.9023  1.8284  0.0674
18369SOL     OW55354   4.896   3.081   0.725  0.5337 -0.4072  0.0559
18369SOL    HW155355   4.915   2.989   0.760  1.7150 -0.2525 -0.1273
18369SOL    HW255356   4.969   3.107   0.660  1.2611  1.4019  1.5604
18371SOL     OW55357   9.993   6.054   1.226  0.0083  0.6657  0.2075
18371SOL    HW155358   9.928   6.099   1.165 -1.7166  1.1856  2.3499
18371SOL    HW255359  10.023   6.119   1.296  1.2146 -0.1745  0.4860
18372SOL     OW55360   3.924   9.627   3.116  0.5623  0.1523 -0.1971
18372SOL    HW155361   3.964   9.625   3.024  1.0139 -1.1551  0.0145
18372SOL    HW255362   3.977   9.567   3.176 -0.7223 -0.2733  0.5148
18373SOL     OW55363   9.756   1.071   3.229 -0.1433 -0.0486 -0.1674
18373SOL    HW155364   9.704   1.092   3.146  0.1525  2.2492  0.1855
18373SOL    HW255365   9.807   1.153   3.257  0.9971 -1.2723  1.3918
18374SOL     OW55366   4.005   4.105   6.418 -0.0552 -0.0650 -0.6800
18374SOL    HW155367   3.942   4.113   6.341  0.2158  4.8961 -0.4987
18374SOL    HW255368   3.954   4.091   6.502 -0.5419 -1.7580 -1.2329
18375SOL     OW55369   7.258   6.366   6.442  0.4124  0.1649 -0.3443
18375SOL    HW155370   7.328   6.401   6.381 -0.6318  1.8519 -0.6071
18375SOL    HW255371   7.293   6.362   6.536  1.2475 -0.1844 -0.6743
18376SOL     OW55372   2.625   0.576   4.591  0.6687 -0.8933  0.3385
18376SOL    HW155373   2.630   0.671   4.620  1.8654 -1.0940  0.8234
18376SOL    HW255374   2.542   0.534   4.626  0.2754 -0.1057  0.3505
18377SOL     OW55375   1.526   6.317   3.887  0.0752 -0.3460 -0.0567
18377SOL    HW155376   1.520   6.407   3.930 -1.2039 -0.9669  1.1105
18377SOL    HW255377   1.559   6.251   3.954 -0.8912 -1.1164 -0.3345
18378SOL     OW55378   1.356   8.538   0.833  0.4121 -0.1470  0.4090
18378SOL    HW155379   1.297   8.617   0.818  0.7876  0.1162  0.2959
18378SOL    HW255380   1.437   8.566   0.884  0.5739 -0.4480  0.3224
18379SOL     OW55381   8.095   1.675   6.306  0.9699  0.5547 -0.3550
18379SOL    HW155382   8.171   1.613   6.284  1.3777  1.1502 -0.6456
18379SOL    HW255383   8.067   1.662   6.401  1.3791  0.2646 -0.2730
18380SOL     OW55384   8.595   4.171   4.644  0.4153  0.0586 -0.1934
18380SOL    HW155385   8.621   4.261   4.608  0.4443  0.0387 -0.2223
18380SOL    HW255386   8.509   4.141   4.602 -0.9021  1.1691  1.6391
18381SOL     OW55387   7.946   0.655   6.316  0.1729  0.6349  0.2468
18381SOL    HW155388   7.935   0.717   6.239  0.9042  2.0449  1.2471
18381SOL    HW255389   7.879   0.581   6.310  0.0532  0.8719 -1.5779
18382SOL     OW55390   9.576   5.897   1.799 -0.0321 -0.1569 -0.2788
18382SOL    HW155391   9.563   5.879   1.897 -0.7848  1.8255  0.0038
18382SOL    HW255392   9.567   5.811   1.748 -2.9672 -0.6878  1.0423
18383SOL     OW55393   5.968   2.868   1.528 -0.3364 -0.0436 -0.4832
18383SOL    HW155394   5.925   2.904   1.611 -1.8066  0.6795 -1.5270
18383SOL    HW255395   6.033   2.935   1.492  0.2862 -0.3485  0.0620
18384SOL     OW55396   4.722   5.713   0.987  0.7862  0.4481 -0.4915
18384SOL    HW155397   4.666   5.796   0.989  0.1953  0.0273  1.7584
18384SOL    HW255398   4.686   5.651   0.917 -1.0077  0.5824  0.2640
18385SOL     OW55399   4.454   3.455   4.467 -0.3228 -0.2588  0.3638
18385SOL    HW155400   4.421   3.549   4.458  0.7473  0.0146 -0.9794
18385SOL    HW255401   4.394   3.394   4.415  1.1277  0.2156 -1.9399
18388SOL     OW55402   0.792   0.137   7.099  0.0390 -0.0497  0.0291
18388SOL    HW155403   0.753   0.230   7.100 -1.7258 -0.7677 -0.2102
18388SOL    HW255404   0.827   0.117   7.008 -2.0569 -0.6116 -0.6655
18389SOL     OW55405   9.076   0.544   3.622  0.2425  0.3188 -0.6099
18389SOL    HW155406   9.145   0.501   3.563 -0.5094 -0.7148 -0.7721
18389SOL    HW255407   9.021   0.607   3.568  0.2212  0.1552 -0.7814
18393SOL     OW55408   2.297   2.188   4.453  0.0722 -0.3587 -0.0059
18393SOL    HW155409   2.235   2.267   4.459 -0.0543 -0.4451 -0.1615
18393SOL    HW255410   2.360   2.201   4.377 -0.4695 -0.7746 -0.5282
18394SOL     OW55411   8.181   2.610   3.104 -0.0807 -0.3429 -0.1219
18394SOL    HW155412   8.257   2.546   3.113 -0.6690 -1.1868 -1.0743
18394SOL    HW255413   8.181   2.648   3.011 -0.5864 -0.0498 -0.0008
18395SOL     OW55414   9.189   6.477   6.780 -0.6039  0.0852 -0.0096
18395SOL    HW155415   9.186   6.429   6.868 -0.1931  0.8303  0.4185
18395SOL    HW255416   9.265   6.441   6.725  0.7388  1.3213  0.9662
18396SOL     OW55417   5.533   8.576   1.961  0.1308  0.4770  0.1032
18396SOL    HW155418   5.620   8.613   1.929  1.3834 -2.7549 -0.4294
18396SOL    HW255419   5.491   8.523   1.888 -1.1155  0.0131  1.1466
18397SOL     OW55420   9.019   6.789   5.242  0.3717 -0.1349 -0.1401
18397SOL    HW155421   9.001   6.716   5.308 -1.0399  0.8373  0.5858
18397SOL    HW255422   8.971   6.768   5.156  0.6617 -0.4716 -0.2207
18398SOL     OW55423   1.627   2.132   7.395  0.5356 -0.2035 -0.3056
18398SOL    HW155424   1.581   2.046   7.418  0.6609  0.0996  1.1054
18398SOL    HW255425   1.700   2.113   7.330  0.3074 -1.1131 -0.3136
18399SOL     OW55426   1.343   2.892   4.393 -0.5444  0.2567  0.4509
18399SOL    HW155427   1.266   2.919   4.334 -0.2036 -0.2755 -0.2588
18399SOL    HW255428   1.420   2.953   4.377  0.0264 -0.7360 -0.7194
18400SOL     OW55429   4.556   0.854   1.213 -0.1693 -0.0050 -0.2911
18400SOL    HW155430   4.644   0.816   1.184 -0.7888 -1.9503  0.3241
18400SOL    HW255431   4.548   0.948   1.181  2.7782  0.6990  0.9318
18401SOL     OW55432   6.278   7.793   2.644 -0.3724  0.7236  0.7605
18401SOL    HW155433   6.315   7.789   2.736 -0.0886  0.7304  0.6474
18401SOL    HW255434   6.353   7.801   2.578 -0.5259 -0.0687  0.4833
18403SOL     OW55435   3.845   4.482   3.072 -0.3565 -0.2553 -0.2695
18403SOL    HW155436   3.849   4.462   3.170  0.0974  1.1424  0.0096
18403SOL    HW255437   3.936   4.511   3.040 -0.0940 -2.2997 -1.4679
18404SOL     OW55438   1.804   0.892   1.550 -0.5981  0.2469 -0.2290
18404SOL    HW155439   1.766   0.926   1.635 -0.7692  2.2805 -1.1015
18404SOL    HW255440   1.730   0.855   1.493 -0.6701  0.1645 -0.0814
18405SOL     OW55441   7.917   3.879   4.828 -0.0346  0.1052 -0.2133
18405SOL    HW155442   7.925   3.811   4.901 -0.6774  1.1226  0.8408
18405SOL    HW255443   7.862   3.842   4.753 -1.1457 -0.2357  0.7489
18406SOL     OW55444   4.082   9.867   1.311  0.0944 -0.4896  0.0415
18406SOL    HW155445   4.099   9.806   1.233 -1.9420  0.5218 -1.2666
18406SOL    HW255446   4.094   9.962   1.282  0.4131 -0.1410  1.2844
18407SOL     OW55447   2.088   3.765   7.682 -0.2394 -0.0637  0.2365
18407SOL    HW155448   2.077   3.712   7.766 -0.9935 -0.1659  0.0797
18407SOL    HW255449   2.169   3.733   7.633  0.4826  0.3306  1.1689
18408SOL     OW55450   9.492   0.321   4.368 -0.0429  0.1944 -0.3787
18408SOL    HW155451   9.501   0.231   4.411 -1.6747  0.2274  0.0754
18408SOL    HW255452   9.411   0.322   4.309 -1.8381  2.3029  2.0378
18410SOL     OW55453   4.319   2.871   7.068  0.0016  0.3442  0.0499
18410SOL    HW155454   4.270   2.940   7.016 -0.0184  0.0387 -0.3355
18410SOL    HW255455   4.376   2.916   7.137  1.7953  0.8817 -1.7323
18412SOL     OW55456   8.666   0.663   2.900  0.3035 -0.5489 -0.3458
18412SOL    HW155457   8.606   0.585   2.919 -0.7227  0.0321 -1.0919
18412SOL    HW255458   8.612   0.736   2.858  1.4787  0.1260 -0.7059
18414SOL     OW55459   7.437   7.241   5.649  0.4158  0.0038 -0.2218
18414SOL    HW155460   7.400   7.151   5.623  0.3642  0.3064 -1.2207
18414SOL    HW255461   7.512   7.228   5.714 -0.0030 -0.7302  0.1310
18415SOL     OW55462   3.586   9.113   0.681 -0.3060  0.6011  0.0133
18415SOL    HW155463   3.541   9.027   0.657  1.8035  0.2058 -2.7947
18415SOL    HW255464   3.584   9.125   0.781  0.0400 -3.0917  0.5477
18416SOL     OW55465   7.299   0.759   4.110 -0.0759  0.4778 -0.7014
18416SOL    HW155466   7.281   0.809   4.025  0.2704  1.0680 -0.4233
18416SOL    HW255467   7.268   0.664   4.099  2.5872 -0.2493 -2.5038
18417SOL     OW55468   2.975   2.930   6.184  0.2773  0.3297  0.5650
18417SOL    HW155469   2.937   2.944   6.275 -0.0584  0.9416  0.3360
18417SOL    HW255470   3.044   3.000   6.165 -0.9926  1.3670 -0.3643
18419SOL     OW55471   5.037   0.441   3.811 -0.4155 -0.2031  0.5681
18419SOL    HW155472   5.100   0.475   3.881  0.3678  0.5883 -0.4992
18419SOL    HW255473   4.943   0.461   3.838 -0.1528 -0.2837  1.5835
18420SOL     OW55474   3.892   2.435   1.427  0.4401 -0.2066 -0.3806
18420SOL    HW155475   3.903   2.405   1.522  1.1364  1.8254  0.2207
18420SOL    HW255476   3.903   2.534   1.423 -1.6377 -0.0340 -2.2972
18421SOL     OW55477   3.995   1.205   7.618 -0.1422 -0.2528 -0.3037
18421SOL    HW155478   3.918   1.186   7.679 -0.0458 -0.7279 -0.3291
18421SOL    HW255479   4.076   1.156   7.651  0.1936  0.3988 -0.1680
18423SOL     OW55480   2.007   9.106   3.528 -0.2669  0.2143  0.0367
18423SOL    HW155481   1.941   9.149   3.589 -1.3287 -1.7816  0.3258
18423SOL    HW255482   2.086   9.074   3.581 -0.6417 -0.4574  0.1879
18424SOL     OW55483   8.188   8.126   7.140 -0.5816 -0.2800  0.5033
18424SOL    HW155484   8.246   8.119   7.221 -0.7985  0.0462  0.6893
18424SOL    HW255485   8.213   8.055   7.074  2.0706  1.6761 -0.6943
18425SOL     OW55486   0.330   6.586   5.223  0.3963 -0.0818  0.2757
18425SOL    HW155487   0.284   6.612   5.308  0.7401  1.7264 -0.0628
18425SOL    HW255488   0.261   6.564   5.154  0.1099 -1.2467  0.9260
18426SOL     OW55489   2.793   0.201   2.786 -0.3179 -0.3897  0.2510
18426SOL    HW155490   2.792   0.109   2.826 -1.0333  0.1068  1.4068
18426SOL    HW255491   2.861   0.257   2.834 -1.6212  0.3912  1.2272
18427SOL     OW55492   0.025   2.418   4.089 -0.0477 -0.5588  0.1081
18427SOL    HW155493  -0.002   2.510   4.117 -0.4101 -0.5618 -0.2275
18427SOL    HW255494  -0.055   2.359   4.084 -0.8138  0.6351 -5.5226
18429SOL     OW55495   3.159   3.226   5.353  0.1592  0.1957 -0.1183
18429SOL    HW155496   3.090   3.264   5.414 -0.8348 -0.7050 -0.6619
18429SOL    HW255497   3.117   3.204   5.264  1.5568  1.4012 -1.1122
18430SOL     OW55498   8.602   9.050   3.574  0.1324  0.0279  0.2717
18430SOL    HW155499   8.583   8.953   3.556 -1.1368  0.4259 -0.5970
18430SOL    HW255500   8.556   9.077   3.658 -1.3650  0.4388 -0.6740
18431SOL     OW55501   0.267   0.403   1.478 -0.3587 -0.5335 -0.6995
18431SOL    HW155502   0.280   0.475   1.410  0.2249 -0.9471 -1.0320
18431SOL    HW255503   0.287   0.314   1.437 -1.9241 -0.9846 -0.5473
18432SOL     OW55504   2.511   3.713   4.791 -0.1633  0.0404  0.6921
18432SOL    HW155505   2.566   3.651   4.848  0.8384 -0.3646 -0.6974
18432SOL    HW255506   2.550   3.805   4.796 -0.4011  0.1210  1.0881
18433SOL     OW55507   0.322   5.904   7.688 -0.6437 -0.0298  0.3883
18433SOL    HW155508   0.288   5.875   7.598  0.0858 -0.2672  0.1897
18433SOL    HW255509   0.356   5.824   7.738 -2.6340 -0.1783  1.5727
18434SOL     OW55510   6.190   8.245   6.171  0.2204 -0.1905 -0.1388
18434SOL    HW155511   6.143   8.280   6.090 -1.2450  1.0908  1.2386
18434SOL    HW255512   6.213   8.149   6.157 -2.4076 -0.7183 -1.0510
18435SOL     OW55513   3.054   4.548   0.424  0.1018  0.0655  0.2822
18435SOL    HW155514   3.138   4.593   0.392 -0.2288  1.1388  0.8817
18435SOL    HW255515   3.033   4.471   0.365  1.8518 -0.5971  0.4886
18437SOL     OW55516   3.586   5.332   2.203 -0.0016  0.2025 -0.0913
18437SOL    HW155517   3.569   5.279   2.119 -0.6148 -0.0868  0.2090
18437SOL    HW255518   3.649   5.282   2.262  1.2591  0.8903 -0.8408
18439SOL     OW55519   2.205   4.764   2.998 -0.1146  0.1620 -0.1590
18439SOL    HW155520   2.260   4.696   2.950  0.4487  0.1759  0.4690
18439SOL    HW255521   2.120   4.721   3.031 -0.8932  0.3484 -1.8748
18440SOL     OW55522   2.771   9.178   3.383 -0.1398  0.0506  0.6786
18440SOL    HW155523   2.807   9.254   3.330 -0.2189 -0.7012 -0.4718
18440SOL    HW255524   2.847   9.128   3.425 -0.0942  0.8106  1.5172
18441SOL     OW55525   4.018   6.121   2.029 -0.0442 -0.3012 -0.1606
18441SOL    HW155526   4.046   6.141   2.123  0.0013  0.2365 -0.2900
18441SOL    HW255527   4.041   6.026   2.007 -0.5469 -0.5912  0.5524
18442SOL     OW55528   9.458   1.466   5.854 -0.3202 -0.0347  0.5296
18442SOL    HW155529   9.422   1.377   5.824 -0.5856  0.0177  0.6879
18442SOL    HW255530   9.405   1.498   5.933 -0.1703  0.2243  0.5260
18444SOL     OW55531   5.355   9.430   4.132  0.3356  0.0085 -0.0834
18444SOL    HW155532   5.328   9.406   4.038  2.3971  0.5309 -0.8340
18444SOL    HW255533   5.409   9.355   4.171 -1.4477 -0.6889  1.1223
18445SOL     OW55534   3.624   6.490   7.852 -0.2812 -0.0270 -0.5296
18445SOL    HW155535   3.688   6.457   7.921  0.3340  1.2475 -0.4660
18445SOL    HW255536   3.647   6.449   7.763  1.5152  1.4525 -0.7861
18446SOL     OW55537   3.900   4.004   1.967  0.1556  0.4005  0.3302
18446SOL    HW155538   3.948   4.065   1.904  2.1123  1.1630  2.4940
18446SOL    HW255539   3.813   4.045   1.994 -1.0533 -0.2704 -2.4045
18447SOL     OW55540   3.544   9.252   2.654  0.2708  0.6819  0.5920
18447SOL    HW155541   3.538   9.235   2.752  0.8837  0.2000  0.5486
18447SOL    HW255542   3.458   9.292   2.621 -0.8813 -1.5416  0.8355
18448SOL     OW55543   8.200   2.014   0.516 -1.0536 -0.4254  0.4179
18448SOL    HW155544   8.237   2.048   0.603 -0.2118  0.7986 -0.3977
18448SOL    HW255545   8.100   2.014   0.521 -1.0204 -0.1348  1.3040
18449SOL     OW55546   3.844   0.321   6.169  0.0787 -0.6362 -0.4299
18449SOL    HW155547   3.810   0.239   6.124  0.0588 -0.2791 -1.0664
18449SOL    HW255548   3.834   0.400   6.108  1.8259 -0.4874 -0.5279
18450SOL     OW55549   2.223   3.666   2.400  0.2477 -1.0986  0.2505
18450SOL    HW155550   2.313   3.704   2.380  0.2988 -1.9335 -1.1920
18450SOL    HW255551   2.162   3.738   2.432  0.5281  0.0948 -1.8132
18451SOL     OW55552   6.744   2.091   4.364 -0.4059 -0.2331  0.2424
18451SOL    HW155553   6.660   2.100   4.310 -0.9084 -2.1207  0.6712
18451SOL    HW255554   6.733   2.141   4.450 -0.4976  0.8058 -0.3665
18453SOL     OW55555   5.033   8.060   1.954 -0.0989  0.0433 -0.3061
18453SOL    HW155556   4.952   8.074   1.898  0.6760 -1.9009 -2.0093
18453SOL    HW255557   5.084   7.981   1.919  1.5373  0.0850  1.8701
18454SOL     OW55558   0.844   5.665   6.932 -0.4920  0.0284  0.0466
18454SOL    HW155559   0.818   5.758   6.961 -2.0638 -0.3948  0.0669
18454SOL    HW255560   0.821   5.600   7.004 -1.4203 -0.6313 -0.8149
18455SOL     OW55561   9.839   8.349   0.828 -0.7497  0.3220 -0.3019
18455SOL    HW155562   9.889   8.435   0.842  0.3276 -0.3717  0.1934
18455SOL    HW255563   9.847   8.292   0.910  0.4764 -1.2160 -1.4566
18458SOL     OW55564   2.058   1.899   7.761  0.2566 -0.2549  0.1978
18458SOL    HW155565   2.005   1.923   7.679  0.2852 -0.4526  0.1199
18458SOL    HW255566   2.048   1.971   7.830 -1.6734 -1.1752  0.9255
18459SOL     OW55567   9.429   0.965   7.594  0.2782  0.2010  0.5738
18459SOL    HW155568   9.396   0.940   7.685  1.7413 -0.2570  0.9940
18459SOL    HW255569   9.519   0.923   7.579  0.0886  0.3655 -1.0377
18460SOL     OW55570   7.748   6.888   3.584 -0.0984 -0.1867  0.0305
18460SOL    HW155571   7.709   6.965   3.635 -2.3604 -0.4395 -1.2245
18460SOL    HW255572   7.843   6.908   3.561 -0.4182  1.8933  0.4171
18461SOL     OW55573   5.924   4.268   1.255  0.0316 -0.2411  0.3555
18461SOL    HW155574   5.891   4.306   1.169 -1.0551  0.3214  1.0193
18461SOL    HW255575   5.849   4.222   1.303  0.7301 -0.9410  0.7999
18462SOL     OW55576   1.663   4.231   5.100  0.4031  0.0443 -0.1774
18462SOL    HW155577   1.696   4.314   5.145  0.4592  0.3625 -0.8004
18462SOL    HW255578   1.740   4.181   5.062  0.3086  0.0381 -0.3625
18463SOL     OW55579   4.401   5.748   0.331 -0.7487  1.1755  0.4568
18463SOL    HW155580   4.473   5.796   0.382 -1.2837  1.5400  0.8782
18463SOL    HW255581   4.385   5.794   0.244 -0.7854  1.3615  0.5610
18464SOL     OW55582   9.368   3.581   0.618  0.4444  0.4234  0.2297
18464SOL    HW155583   9.414   3.494   0.633 -0.3141  0.0864  0.6182
18464SOL    HW255584   9.305   3.573   0.541 -2.4512 -0.5024  2.6023
18466SOL     OW55585   7.172   2.872   1.011 -0.3452 -0.6245  0.2955
18466SOL    HW155586   7.101   2.849   0.944  0.2343  1.0736 -0.9196
18466SOL    HW255587   7.261   2.869   0.967  0.0601  0.3114  1.0487
18467SOL     OW55588   2.353   2.768   5.903 -0.4942 -0.2293  0.2619
18467SOL    HW155589   2.273   2.759   5.844 -0.5381  2.4209 -0.1616
18467SOL    HW255590   2.368   2.683   5.952 -3.3641 -0.8852  0.0860
18468SOL     OW55591   9.164   5.945   6.752 -0.3888  0.1142  0.2056
18468SOL    HW155592   9.247   5.968   6.701 -0.2585 -0.8125 -0.0098
18468SOL    HW255593   9.114   5.874   6.704 -1.0295  0.2836  0.6183
18470SOL     OW55594   5.916   8.619   5.016 -0.4179  0.7278 -0.3913
18470SOL    HW155595   6.000   8.613   4.962 -3.3626 -0.0838 -5.1018
18470SOL    HW255596   5.898   8.531   5.058 -0.0792  0.2712 -1.1913
18471SOL     OW55597   8.503   8.609   7.051 -0.1809 -0.6162  0.5094
18471SOL    HW155598   8.549   8.520   7.047  3.3066  1.1495  0.0594
18471SOL    HW255599   8.493   8.637   7.146 -0.7020 -1.1599  0.6217
18472SOL     OW55600   0.462   0.509   2.202 -0.4813 -0.7348 -0.3364
18472SOL    HW155601   0.384   0.538   2.257 -0.6332 -1.1879 -0.3094
18472SOL    HW255602   0.534   0.474   2.262  0.6882  1.8355 -0.1812
18473SOL     OW55603   7.792   8.181   5.729 -0.0524 -0.4073 -0.4004
18473SOL    HW155604   7.844   8.120   5.788 -0.3191  0.5626  0.8525
18473SOL    HW255605   7.694   8.165   5.743 -0.1205  0.2662 -0.1217
18474SOL     OW55606   8.916   5.970   1.772  0.3883 -0.6271  0.1143
18474SOL    HW155607   9.015   5.965   1.760  0.3039  0.6708 -1.3517
18474SOL    HW255608   8.894   6.045   1.836  0.3355 -0.6917  0.1716
18475SOL     OW55609   4.393   3.012   6.314 -0.0868 -0.4788 -0.3208
18475SOL    HW155610   4.302   2.975   6.297  0.0785 -0.8631 -0.3766
18475SOL    HW255611   4.433   3.046   6.229 -0.6483  0.7746 -0.0979
18477SOL     OW55612   3.149   4.163   6.511  0.1673 -0.0877 -0.5700
18477SOL    HW155613   3.053   4.170   6.484  0.1496  0.2272 -0.4296
18477SOL    HW255614   3.175   4.067   6.517  0.0176 -0.1657 -1.1549
18479SOL     OW55615   9.663   8.553   5.837  0.2575  0.4556 -1.0909
18479SOL    HW155616   9.602   8.538   5.915  0.1933 -1.2213 -1.4582
18479SOL    HW255617   9.758   8.545   5.867  0.2600  0.8537 -0.9833
18480SOL     OW55618   1.258   0.279   7.884 -0.3254  0.3747 -0.0907
18480SOL    HW155619   1.320   0.231   7.946  1.0206  2.8609  0.5370
18480SOL    HW255620   1.303   0.292   7.796 -0.0817  1.8195  0.2338
18482SOL     OW55621   4.866   3.836   6.943 -0.1477 -0.5846 -0.4280
18482SOL    HW155622   4.948   3.879   6.979 -2.4729  2.1572  1.8595
18482SOL    HW255623   4.872   3.831   6.843  2.0914  1.1191 -0.4111
18483SOL     OW55624   7.321   9.690   7.375  0.5417  0.2048 -0.1627
18483SOL    HW155625   7.412   9.659   7.402  0.7402  0.6925 -0.2787
18483SOL    HW255626   7.262   9.610   7.360  0.7403 -0.0956  0.6191
18484SOL     OW55627   8.270   2.950   5.277 -0.0637  0.3627 -0.5396
18484SOL    HW155628   8.326   3.010   5.334 -0.1787 -0.7248  0.7327
18484SOL    HW255629   8.324   2.920   5.198  1.4951 -1.4158  1.1485
18485SOL     OW55630   5.819   6.376   0.490  0.2583  0.2653 -0.0913
18485SOL    HW155631   5.872   6.423   0.420 -0.1911  0.7308 -0.1269
18485SOL    HW255632   5.728   6.418   0.497 -0.2416 -0.7633 -0.2952
18486SOL     OW55633   0.252   4.216   5.842 -0.0919  0.0342 -0.1059
18486SOL    HW155634   0.163   4.250   5.811 -0.6985 -1.7102 -0.2901
18486SOL    HW255635   0.243   4.176   5.933  0.1929 -1.4721 -0.7276
18487SOL     OW55636   6.208   5.587   1.216  0.3014 -0.2147 -0.2489
18487SOL    HW155637   6.208   5.684   1.240 -1.1072 -0.4921  1.0063
18487SOL    HW255638   6.114   5.552   1.219  0.9543 -1.9640  0.8910
18488SOL     OW55639   6.690   9.201   3.345 -0.6017  0.6266 -0.5946
18488SOL    HW155640   6.677   9.292   3.384  0.9160  0.3211  0.6963
18488SOL    HW255641   6.742   9.145   3.409 -2.2299 -1.4205 -1.0133
18489SOL     OW55642   9.161   0.262   0.998  0.2010 -0.7763 -0.5485
18489SOL    HW155643   9.250   0.280   1.041 -0.3075 -0.7572  0.4930
18489SOL    HW255644   9.120   0.180   1.037 -0.1442 -0.9222 -1.1980
18490SOL     OW55645   8.745   3.220   5.006 -0.0700 -0.0402  0.1448
18490SOL    HW155646   8.673   3.238   4.938  1.4859 -0.2175 -1.5871
18490SOL    HW255647   8.774   3.125   4.999  1.1349  0.3239  0.0239
18491SOL     OW55648   0.825   9.265   6.295  0.2885 -0.0440 -0.3855
18491SOL    HW155649   0.810   9.350   6.346  1.1758 -0.2449  0.2405
18491SOL    HW255650   0.853   9.193   6.359  0.0221 -0.6826 -0.9779
18492SOL     OW55651   9.877   0.592   5.140  0.1982 -0.8937 -0.3551
18492SOL    HW155652   9.791   0.632   5.106  0.6890 -1.0057 -1.7601
18492SOL    HW255653   9.897   0.509   5.089  0.5979 -1.4496  0.7034
18493SOL     OW55654   7.465   9.671   4.378  0.1419  0.0397 -0.3325
18493SOL    HW155655   7.561   9.701   4.384  0.4070 -0.9256  0.3612
18493SOL    HW255656   7.438   9.664   4.282  1.4253 -1.6857 -0.6023
18495SOL     OW55657   6.772   0.132   6.125  0.1740 -0.3481 -0.4460
18495SOL    HW155658   6.865   0.099   6.140  0.4496  0.1461 -1.0697
18495SOL    HW255659   6.751   0.129   6.028 -0.0627  0.6284 -0.4232
18496SOL     OW55660   2.353   8.772   6.657  0.1194  0.2984  0.2651
18496SOL    HW155661   2.379   8.689   6.608 -1.5573 -0.0189 -0.0970
18496SOL    HW255662   2.401   8.850   6.616 -0.3994 -0.1212 -1.1917
18497SOL     OW55663   8.007   5.370   2.657 -0.0950  0.2214  0.3895
18497SOL    HW155664   7.942   5.293   2.654  1.0185 -0.7117 -0.1868
18497SOL    HW255665   8.093   5.340   2.697 -0.2855  1.6926  1.9907
18499SOL     OW55666   7.089   2.743   0.146  0.3436 -0.3714  0.4514
18499SOL    HW155667   7.161   2.677   0.124 -0.7693 -1.0913 -1.0546
18499SOL    HW255668   7.042   2.770   0.063  0.8853  2.4871  1.0183
18500SOL     OW55669   0.532   3.014   6.961  0.2097  0.3581 -0.4225
18500SOL    HW155670   0.610   3.024   7.023  0.2810 -0.4876 -0.3796
18500SOL    HW255671   0.565   2.991   6.870  0.0959  1.4476 -0.7485
18501SOL     OW55672   3.079   0.657   3.842 -0.0499  0.3619  0.1606
18501SOL    HW155673   2.996   0.708   3.817 -0.4416  0.2380  1.1736
18501SOL    HW255674   3.159   0.715   3.828 -0.1813  0.0924 -1.9581
18502SOL     OW55675   6.216   8.232   5.076 -0.5987  0.2853  0.3049
18502SOL    HW155676   6.152   8.155   5.084 -1.7469  1.2357  0.4325
18502SOL    HW255677   6.216   8.264   4.981 -1.7964  1.5241  0.7046
18503SOL     OW55678   3.308   2.080   1.256 -0.6714  0.2809  0.6081
18503SOL    HW155679   3.399   2.109   1.287 -0.8721 -1.5275  3.0143
18503SOL    HW255680   3.307   2.075   1.156  1.9091  0.1890  0.5591
18504SOL     OW55681   2.612   8.941   3.305 -0.1643 -0.3270  0.1835
18504SOL    HW155682   2.655   9.028   3.329 -0.3055 -0.7870  2.1849
18504SOL    HW255683   2.683   8.874   3.283 -0.0581  0.3008 -1.3999
18505SOL     OW55684   9.330   0.314   7.762  0.4345  0.1630  0.3003
18505SOL    HW155685   9.339   0.214   7.767 -0.7212  0.0516  0.2347
18505SOL    HW255686   9.323   0.341   7.666 -0.7015  0.1752  0.3859
18506SOL     OW55687   1.650   4.109   7.794 -0.2335  0.4678  0.3388
18506SOL    HW155688   1.577   4.177   7.785  0.5100  1.1822 -0.3139
18506SOL    HW255689   1.728   4.150   7.841 -0.7679 -0.7024  2.3082
18507SOL     OW55690   0.764   7.122   1.087 -1.0549  0.0210 -0.0990
18507SOL    HW155691   0.800   7.059   1.156 -0.2472 -1.5664 -1.9562
18507SOL    HW255692   0.725   7.070   1.011 -0.7789  1.7749 -1.4570
18509SOL     OW55693   6.960   9.965   3.635 -0.3076  0.4044  0.2658
18509SOL    HW155694   6.926   9.958   3.542 -1.8155 -0.0175  0.8370
18509SOL    HW255695   6.968   9.873   3.675 -0.1703  0.6133  0.7297
18510SOL     OW55696   8.419   0.571   2.554  0.4758  0.6884  0.1071
18510SOL    HW155697   8.504   0.620   2.538  1.5152 -1.1924 -0.3022
18510SOL    HW255698   8.346   0.609   2.498  1.7023  0.5646 -1.5868
18511SOL     OW55699   6.455   0.592   4.669  0.1850 -0.0336 -0.0130
18511SOL    HW155700   6.551   0.570   4.685  0.2125  0.0449 -0.0667
18511SOL    HW255701   6.426   0.660   4.736 -0.3121 -1.3274  1.1100
18512SOL     OW55702   9.391   9.028   5.086  0.6000  0.3937 -0.0968
18512SOL    HW155703   9.374   9.058   5.180  0.8130 -0.2075  0.1389
18512SOL    HW255704   9.306   8.996   5.046  0.1184  2.4191 -0.7673
18513SOL     OW55705   9.623   2.981   3.963  0.3005 -0.1287 -0.5100
18513SOL    HW155706   9.634   2.940   4.053  0.4099  0.5058 -0.2335
18513SOL    HW255707   9.670   2.925   3.895 -1.1542 -1.4947 -0.4172
18515SOL     OW55708   0.568   7.318   1.646 -0.1597 -0.8085  0.3736
18515SOL    HW155709   0.556   7.220   1.666 -1.1622 -0.3949  1.8537
18515SOL    HW255710   0.511   7.344   1.568 -2.2156 -0.7685  1.8552
18516SOL     OW55711   6.152   8.134   2.812  0.1753 -1.1850 -0.1079
18516SOL    HW155712   6.114   8.150   2.904  0.3949 -0.5932 -0.1151
18516SOL    HW255713   6.251   8.149   2.814 -0.1393  1.2171 -0.9664
18519SOL     OW55714   7.543   7.341   1.453  0.4118  0.6210  0.0926
18519SOL    HW155715   7.502   7.377   1.369  1.1781 -2.7661 -1.8634
18519SOL    HW255716   7.641   7.363   1.454  0.6825 -0.4880 -0.6270
18520SOL     OW55717   8.743   4.319   7.278 -0.3285 -0.3490  0.0954
18520SOL    HW155718   8.731   4.392   7.346 -0.2116 -0.4396  0.2137
18520SOL    HW255719   8.836   4.284   7.283 -0.8028 -1.5193  1.0539
18521SOL     OW55720   0.858   5.007   4.427 -0.9912  0.0074  0.1584
18521SOL    HW155721   0.948   5.026   4.464  0.4530 -1.0404 -2.6930
18521SOL    HW255722   0.826   5.085   4.373 -0.4907 -0.7258 -1.2332
18522SOL     OW55723   2.432   4.279   2.222 -0.0304  0.2858  0.1244
18522SOL    HW155724   2.404   4.357   2.165  1.8896  1.0318  0.1781
18522SOL    HW255725   2.452   4.311   2.314  0.4137 -0.3425  0.2453
18524SOL     OW55726   8.012   6.536   6.558 -0.8349 -0.3784 -0.2011
18524SOL    HW155727   7.976   6.573   6.643  0.2657 -0.2742  0.2203
18524SOL    HW255728   8.084   6.595   6.523 -1.9584  0.1225 -1.7446
18525SOL     OW55729   9.627   7.581   6.392  0.2737 -0.1659 -0.2046
18525SOL    HW155730   9.624   7.679   6.412 -1.6999 -0.2002 -0.1915
18525SOL    HW255731   9.565   7.533   6.455  0.2411 -1.2604 -1.0632
18526SOL     OW55732   9.368   2.256   4.713 -0.1106 -0.1425  0.3745
18526SOL    HW155733   9.280   2.269   4.759  0.0589  2.1349  0.1134
18526SOL    HW255734   9.438   2.231   4.781 -0.6808 -0.6614  0.7743
18527SOL     OW55735   9.029   4.165   5.799  0.5215 -0.1913 -0.3293
18527SOL    HW155736   9.052   4.260   5.779 -1.2928  0.2800 -0.3048
18527SOL    HW255737   9.010   4.117   5.713 -2.0938  0.4549 -0.1831
18528SOL     OW55738   3.109   2.530   2.973 -0.1313 -0.2997  0.1300
18528SOL    HW155739   3.031   2.471   2.955  0.0657 -0.7701  0.7877
18528SOL    HW255740   3.132   2.583   2.891  0.2411 -1.7921 -0.7346
18529SOL     OW55741   2.507   4.957   7.122  0.1080  0.0126  0.1992
18529SOL    HW155742   2.596   4.994   7.150 -0.1991  1.0588 -0.1821
18529SOL    HW255743   2.463   4.913   7.201 -0.1711  1.8032  1.0851
18530SOL     OW55744   6.208   2.942   1.407  0.5367  0.0924  0.1965
18530SOL    HW155745   6.244   2.849   1.407 -1.2940 -0.6381  0.3008
18530SOL    HW255746   6.183   2.968   1.314  1.4546  0.6431  0.1040
18532SOL     OW55747   3.739   3.859   0.661  0.3144  0.4438 -0.4022
18532SOL    HW155748   3.804   3.934   0.645 -0.1543  1.0484  0.5227
18532SOL    HW255749   3.732   3.841   0.759  0.1107 -0.5429 -0.5922
18533SOL     OW55750   1.122   5.888   5.528  0.3373  0.4398  0.1666
18533SOL    HW155751   1.122   5.926   5.621 -2.2313  1.1139 -0.0837
18533SOL    HW255752   1.212   5.902   5.487  1.1652  1.1407  2.1481
18534SOL     OW55753   8.074   9.643   4.162 -0.5968 -0.7427  0.3079
18534SOL    HW155754   8.080   9.712   4.235 -1.5972 -1.1217  0.7546
18534SOL    HW255755   8.082   9.689   4.073 -5.8623  0.6571  0.3904
18537SOL     OW55756   0.577   7.862   6.360  0.3969 -0.0652  0.0751
18537SOL    HW155757   0.630   7.941   6.329  1.3332 -0.1686  1.3984
18537SOL    HW255758   0.628   7.778   6.341 -0.3443 -0.3360 -0.7987
18540SOL     OW55759   3.783   6.295   2.455 -0.0076  0.5531 -0.0311
18540SOL    HW155760   3.854   6.365   2.460  3.3443 -2.5560 -1.5323
18540SOL    HW255761   3.793   6.232   2.532  0.0119 -0.9570 -1.2599
18541SOL     OW55762   1.753   5.089   3.569 -0.0476 -0.2819  0.1597
18541SOL    HW155763   1.767   5.180   3.606  0.8556 -0.3382 -0.0226
18541SOL    HW255764   1.788   5.085   3.475 -3.9571  0.3693 -1.3849
18543SOL     OW55765   3.205   1.737   3.768  0.6004 -0.1772 -0.1905
18543SOL    HW155766   3.283   1.800   3.772  0.9644 -0.6789  0.8925
18543SOL    HW255767   3.201   1.694   3.678  1.4284  0.0413 -0.3342
18544SOL     OW55768   6.259   9.759   7.289 -0.4014  0.0433  0.3242
18544SOL    HW155769   6.226   9.794   7.202 -2.4304  1.2562  1.5547
18544SOL    HW255770   6.359   9.757   7.288 -0.3443  2.2363 -1.1921
18547SOL     OW55771   5.165   7.878   1.376 -0.3109 -0.4962  0.1760
18547SOL    HW155772   5.177   7.812   1.450 -1.2143 -0.2767  0.5362
18547SOL    HW255773   5.087   7.851   1.319  0.8771 -1.0967 -1.1810
18548SOL     OW55774   3.158   7.027   3.811 -0.3298  0.6463  0.3662
18548SOL    HW155775   3.151   7.103   3.875 -0.6503  1.4463 -0.6101
18548SOL    HW255776   3.134   6.942   3.858  0.2212  1.1171  1.5092
18550SOL     OW55777   3.339   5.489   6.972 -0.7948 -0.6676 -0.1592
18550SOL    HW155778   3.415   5.531   7.021 -1.3210 -1.7395  1.6141
18550SOL    HW255779   3.299   5.556   6.908  0.5833  0.4001  0.0769
18551SOL     OW55780   3.085   1.883   6.563 -1.1461 -0.9121 -0.0987
18551SOL    HW155781   3.080   1.797   6.513 -1.0993 -0.2738 -1.2310
18551SOL    HW255782   3.019   1.948   6.525 -0.2397  0.0018 -0.1484
18552SOL     OW55783   0.015   9.575   5.607 -0.1610  0.2787 -0.0921
18552SOL    HW155784   0.101   9.532   5.583 -0.1042 -0.6507  1.7765
18552SOL    HW255785  -0.057   9.542   5.546  0.2837 -0.9266  0.0353
18553SOL     OW55786   8.525   8.214   6.032  1.0471 -0.4960 -0.6722
18553SOL    HW155787   8.557   8.245   5.943 -1.6054  0.3887 -1.3658
18553SOL    HW255788   8.484   8.124   6.024 -2.2223  0.9620 -1.0622
18554SOL     OW55789   3.125   4.804   6.283  0.5642  0.3192  0.2413
18554SOL    HW155790   3.040   4.774   6.240  0.8408  1.4319 -1.1155
18554SOL    HW255791   3.105   4.875   6.351  0.4278  0.7676 -0.2631
18555SOL     OW55792   3.019   7.547   1.447 -0.7110 -0.1332  0.1827
18555SOL    HW155793   2.997   7.497   1.364 -1.3725 -0.4880  0.5629
18555SOL    HW255794   3.018   7.484   1.525 -0.0229  0.1792  0.4494
18557SOL     OW55795   6.992   9.481   3.484  1.1256  0.2959  0.6139
18557SOL    HW155796   6.937   9.564   3.494 -0.4245 -0.6687  0.2909
18557SOL    HW255797   6.973   9.439   3.396  1.5802 -0.6216  0.9482
18559SOL     OW55798   0.951   0.386   6.850  0.2197  0.0023 -0.0131
18559SOL    HW155799   0.869   0.441   6.866  0.2209  0.2810 -0.9533
18559SOL    HW255800   0.935   0.293   6.883 -0.9919 -0.3192 -1.4293
18560SOL     OW55801   2.178   0.188   0.848 -0.0797  0.3230 -0.3264
18560SOL    HW155802   2.121   0.230   0.777  0.1930  1.0569 -0.1100
18560SOL    HW255803   2.260   0.149   0.807  0.9428  2.2967 -0.1964
18561SOL     OW55804   3.020   9.430   2.137 -0.1647  0.4215  0.0992
18561SOL    HW155805   3.040   9.332   2.134  1.2499  0.7441 -2.0461
18561SOL    HW255806   3.056   9.468   2.223  1.0195 -0.5824  0.0593
18562SOL     OW55807   1.073   5.250   2.678 -0.1925  0.0855  0.2117
18562SOL    HW155808   1.148   5.230   2.740  0.1684  0.2072 -0.1818
18562SOL    HW255809   1.110   5.274   2.588 -0.6748  0.8924  0.2253
18566SOL     OW55810   8.699   2.165   2.315  0.4606  0.3710  0.0401
18566SOL    HW155811   8.774   2.116   2.360  0.1547  0.7295  0.9436
18566SOL    HW255812   8.730   2.199   2.226  1.1631 -0.0604  0.1176
18567SOL     OW55813   8.962   6.795   6.580  0.2881 -0.0960  0.0392
18567SOL    HW155814   8.933   6.797   6.485 -2.1322 -0.5030  0.7424
18567SOL    HW255815   8.959   6.700   6.613  0.7487  0.0954  0.6384
18570SOL     OW55816   3.808   9.678   2.315  0.4417  0.4210  0.0609
18570SOL    HW155817   3.725   9.623   2.318 -0.6155  2.0529  1.2457
18570SOL    HW255818   3.819   9.728   2.401  1.7743  1.4828 -0.6938
18571SOL     OW55819   0.837   1.709   4.760 -0.1292  0.3029  0.1647
18571SOL    HW155820   0.931   1.699   4.794  0.0063 -1.0611 -0.6002
18571SOL    HW255821   0.829   1.794   4.709  0.5538  0.6741  0.6590
18572SOL     OW55822   7.564   2.429   5.113 -0.0032  0.4156  0.3793
18572SOL    HW155823   7.532   2.339   5.082  0.1647  0.2149  0.7867
18572SOL    HW255824   7.585   2.425   5.211 -1.8696  1.4357  0.8355
18573SOL     OW55825   9.326   9.789   1.405 -0.3257 -0.1202  0.3045
18573SOL    HW155826   9.261   9.719   1.435 -0.1032 -0.1264  0.7682
18573SOL    HW255827   9.416   9.749   1.394 -0.6888 -0.4398 -1.7412
18575SOL     OW55828   0.942   4.559   0.592 -0.0083  0.2514  0.0102
18575SOL    HW155829   0.959   4.611   0.676  0.6153 -1.1425  0.7628
18575SOL    HW255830   0.844   4.556   0.574 -0.2593 -0.5964  1.4480
18576SOL     OW55831   3.332   8.152   1.904  0.1656  0.2065 -0.0426
18576SOL    HW155832   3.254   8.129   1.845  2.3180 -0.5487 -2.7544
18576SOL    HW255833   3.377   8.234   1.869  1.2538 -0.0160  0.8222
18577SOL     OW55834   7.615   2.615   3.497  0.1400  0.2610  0.3453
18577SOL    HW155835   7.518   2.595   3.482  0.5579 -1.5195 -0.1184
18577SOL    HW255836   7.671   2.554   3.441  1.5362  1.4370  0.4237
18578SOL     OW55837   3.569   1.971   1.502  0.2883 -0.7363 -0.0700
18578SOL    HW155838   3.581   2.026   1.584 -2.3025 -0.0897 -0.0638
18578SOL    HW255839   3.616   2.015   1.425 -0.1409  0.4656  0.3469
18579SOL     OW55840   7.499   0.281   2.960  0.2406  0.8710  0.5752
18579SOL    HW155841   7.521   0.259   2.865 -1.0949 -0.8177  0.6451
18579SOL    HW255842   7.516   0.201   3.017 -0.0748  1.5176  1.5815
18580SOL     OW55843   0.616   1.010   1.249 -0.3723 -0.2161 -0.0855
18580SOL    HW155844   0.549   0.949   1.205 -1.7033  0.3250  1.1712
18580SOL    HW255845   0.654   1.072   1.180  1.2958 -2.6873 -1.4824
18581SOL     OW55846   9.307   1.261   4.677 -0.0699 -0.0409 -0.4905
18581SOL    HW155847   9.323   1.357   4.653  0.9611 -0.0208  0.2453
18581SOL    HW255848   9.362   1.203   4.617  1.7762 -0.0296  1.1621
18582SOL     OW55849   7.946   0.139   2.399 -0.0331  0.4023 -0.4822
18582SOL    HW155850   7.948   0.146   2.299  0.4157  1.6143 -0.4022
18582SOL    HW255851   7.945   0.043   2.426  1.8526  0.0366 -1.6225
18583SOL     OW55852   0.440   8.132   7.224 -0.0089 -0.1524  0.2577
18583SOL    HW155853   0.418   8.059   7.289 -0.7179 -0.2650 -0.1095
18583SOL    HW255854   0.523   8.179   7.254 -0.2862 -0.2562  1.2038
18587SOL     OW55855   5.844   1.291   5.563 -0.0510  0.5046  0.2382
18587SOL    HW155856   5.902   1.234   5.620  0.4700  2.2097  1.4663
18587SOL    HW255857   5.748   1.265   5.575  0.1980 -0.2193  0.6394
18588SOL     OW55858   6.697   3.127   0.748  0.2132 -0.1006  0.2721
18588SOL    HW155859   6.733   3.203   0.693 -0.7176  0.1366 -0.0111
18588SOL    HW255860   6.697   3.152   0.844 -0.1700  0.2867  0.1697
18589SOL     OW55861   1.343   1.411   3.119 -0.1486  0.6906  0.0161
18589SOL    HW155862   1.426   1.467   3.116 -0.8212  1.7943  1.5052
18589SOL    HW255863   1.293   1.422   3.034  1.4029 -0.2809 -1.0572
18590SOL     OW55864   8.675   1.574   5.551  0.0016  0.0559 -0.3008
18590SOL    HW155865   8.681   1.658   5.606 -0.6028  0.9201 -1.5152
18590SOL    HW255866   8.655   1.496   5.610  2.6158  0.4209  1.1141
18591SOL     OW55867   1.274   8.761   5.175  0.0878 -0.3778 -0.3198
18591SOL    HW155868   1.185   8.716   5.183  0.3488 -0.9293 -0.4805
18591SOL    HW255869   1.264   8.859   5.193 -0.5131 -0.4744 -0.1246
18592SOL     OW55870   3.663   6.043   5.579  0.0409  0.2826  0.3334
18592SOL    HW155871   3.701   6.034   5.671  1.2677 -1.3818 -0.3187
18592SOL    HW255872   3.682   6.135   5.545  1.1028  0.3411  1.0603
18593SOL     OW55873   4.657   5.624   2.506  0.1109 -0.1935  0.0750
18593SOL    HW155874   4.751   5.609   2.474 -0.8947  0.1290 -3.3042
18593SOL    HW255875   4.603   5.541   2.492 -0.1253 -0.3904  2.0407
18594SOL     OW55876   4.417   5.849   1.097 -0.5900  0.0153  0.8457
18594SOL    HW155877   4.356   5.778   1.061  0.6641 -0.6196 -0.0687
18594SOL    HW255878   4.466   5.892   1.021  0.7614 -0.0820  1.6541
18595SOL     OW55879   1.870   1.112   2.626  0.0617  0.1554 -0.1278
18595SOL    HW155880   1.950   1.160   2.660  0.2380 -0.0990 -0.1823
18595SOL    HW255881   1.787   1.155   2.663  0.2298  0.2946  0.0869
18596SOL     OW55882   3.715   0.088   3.219 -0.1294  0.3148  0.8030
18596SOL    HW155883   3.792   0.037   3.182 -0.6409 -0.2141  0.4513
18596SOL    HW255884   3.688   0.050   3.307 -0.7208 -0.2394  0.3873
18597SOL     OW55885   4.053   0.550   6.441  0.5923 -0.0958  0.4927
18597SOL    HW155886   3.973   0.582   6.492 -0.1884  0.0145 -0.7864
18597SOL    HW255887   4.131   0.609   6.460 -0.0943  0.8605  0.3589
18598SOL     OW55888   4.203   5.163   2.844  0.5174  0.0898  0.0186
18598SOL    HW155889   4.109   5.168   2.811  0.4157  0.4150  0.3487
18598SOL    HW255890   4.207   5.193   2.940  1.3057  2.3722 -0.6965
18599SOL     OW55891   7.499   6.782   3.019  0.6997  0.3125  0.3915
18599SOL    HW155892   7.503   6.682   3.015  2.4174  0.3991 -0.6950
18599SOL    HW255893   7.410   6.811   3.055 -0.6013 -1.5470 -1.2306
18600SOL     OW55894   3.434   9.469   1.286  0.4010  0.2521 -0.2035
18600SOL    HW155895   3.462   9.562   1.263 -0.7758  0.4746 -0.7575
18600SOL    HW255896   3.494   9.433   1.357  0.1974  1.8199  0.7836
18601SOL     OW55897   0.126   4.635   2.741  0.5192 -0.3008  0.3158
18601SOL    HW155898   0.135   4.576   2.661  0.0792 -0.9486  0.7368
18601SOL    HW255899   0.143   4.730   2.715 -1.6395 -0.2315 -0.9893
18603SOL     OW55900   9.100   8.891   5.384  0.1294 -0.3481 -0.2910
18603SOL    HW155901   9.190   8.851   5.367  0.2805 -0.0251 -0.2526
18603SOL    HW255902   9.032   8.845   5.327  0.4165 -0.1789 -0.7743
18605SOL     OW55903   6.933   7.412   6.275  0.3352  0.1093  0.2258
18605SOL    HW155904   7.000   7.465   6.224 -0.7397  0.2654 -1.0445
18605SOL    HW255905   6.935   7.317   6.243  0.0977  0.0644  0.3454
18606SOL     OW55906   8.850   9.584   2.917 -0.7671 -0.1545 -0.4631
18606SOL    HW155907   8.773   9.526   2.945 -0.7426  1.3102  2.9489
18606SOL    HW255908   8.922   9.579   2.987  0.0423  2.5078 -1.0679
18607SOL     OW55909   8.774   1.082   4.161 -0.1747  0.1511 -0.5125
18607SOL    HW155910   8.770   1.074   4.261 -0.3632  1.9895 -0.3519
18607SOL    HW255911   8.717   1.159   4.132  2.5375  1.7987 -1.7168
18608SOL     OW55912   9.307   7.699   5.857 -0.0994  0.0735  0.6791
18608SOL    HW155913   9.404   7.708   5.837  0.6282 -1.0979  3.4926
18608SOL    HW255914   9.257   7.683   5.772  2.1325  0.7394 -0.8084
18609SOL     OW55915   1.743   5.185   7.615  0.3648  1.2038 -0.9267
18609SOL    HW155916   1.734   5.197   7.714 -1.5716 -1.9681 -0.6354
18609SOL    HW255917   1.839   5.167   7.593  0.7332  1.4141  0.4242
18610SOL     OW55918   6.335   9.850   4.275  0.0065  0.5547  0.1742
18610SOL    HW155919   6.363   9.829   4.368  1.2166  0.3991 -0.2174
18610SOL    HW255920   6.250   9.802   4.254 -0.1031  0.3445  1.0843
18611SOL     OW55921   7.682   5.486   1.519 -0.1127  0.0260 -0.5382
18611SOL    HW155922   7.761   5.532   1.561 -1.5778  1.4825  0.6907
18611SOL    HW255923   7.662   5.402   1.569  1.1684 -0.7898 -1.3741
18613SOL     OW55924   6.776   8.552   3.545 -0.4964 -0.3049  0.5370
18613SOL    HW155925   6.745   8.514   3.458 -1.1941 -1.9837  1.4958
18613SOL    HW255926   6.815   8.643   3.530 -0.1542 -0.7825 -1.5949
18615SOL     OW55927   9.623   2.417   5.770  0.0633 -0.1224  0.1739
18615SOL    HW155928   9.595   2.342   5.711  0.4127 -0.0491 -0.0901
18615SOL    HW255929   9.643   2.382   5.862  0.5944 -0.4205 -0.0486
18616SOL     OW55930   5.929   0.501   2.976  0.1221  0.0772  0.5136
18616SOL    HW155931   5.905   0.453   2.892  1.4814  0.3530 -0.0453
18616SOL    HW255932   5.855   0.492   3.042 -1.5443  0.9823 -1.2003
18617SOL     OW55933   8.449   0.563   7.026  0.4730  0.5196  0.6885
18617SOL    HW155934   8.437   0.495   6.953  1.1808  0.2639  0.8085
18617SOL    HW255935   8.373   0.628   7.023  1.2572  1.4060 -1.2441
18619SOL     OW55936   4.154   6.387   0.717  0.2791  0.8074 -0.2421
18619SOL    HW155937   4.167   6.485   0.700  0.8765  0.4813 -1.7307
18619SOL    HW255938   4.231   6.352   0.772  1.2169  0.7113 -1.6082
18620SOL     OW55939   8.712   9.355   2.966  0.1587 -0.3102 -0.3005
18620SOL    HW155940   8.651   9.357   3.045  1.5384 -0.7665  0.7783
18620SOL    HW255941   8.662   9.319   2.887 -1.6499  1.4664 -0.0234
18621SOL     OW55942   8.463   1.361   0.148 -0.1623  0.4764  0.7166
18621SOL    HW155943   8.381   1.370   0.092  1.6017  1.9629 -1.7386
18621SOL    HW255944   8.467   1.269   0.187 -1.3124 -0.7184 -1.8882
18622SOL     OW55945   0.498   8.640   7.026 -0.6121  0.1593 -0.0687
18622SOL    HW155946   0.555   8.716   7.058 -2.1269  1.0844  0.4732
18622SOL    HW255947   0.494   8.642   6.926 -2.6477  2.3464 -0.0039
18623SOL     OW55948   2.117   6.097   5.341  0.4993 -0.3794  0.0092
18623SOL    HW155949   2.085   6.185   5.376 -0.3427 -0.2472 -1.0719
18623SOL    HW255950   2.069   6.023   5.388 -0.9957 -0.1933 -1.2106
18624SOL     OW55951   2.088   3.980   2.201 -0.3260  0.1249 -0.0972
18624SOL    HW155952   2.107   3.908   2.135 -0.0785  0.4111 -0.3412
18624SOL    HW255953   1.989   3.988   2.215 -0.4230  0.5970 -1.0377
18625SOL     OW55954   3.181   2.401   4.151 -0.5447 -0.4190  0.0959
18625SOL    HW155955   3.212   2.321   4.202 -0.3511 -0.5818 -0.2752
18625SOL    HW255956   3.150   2.472   4.215 -1.4160 -1.0688  0.4121
18626SOL     OW55957   6.870   1.374   6.556 -0.3082  0.2128 -0.1944
18626SOL    HW155958   6.791   1.322   6.523 -1.5176  0.4547  2.1920
18626SOL    HW255959   6.932   1.314   6.606  0.1265  0.3607 -0.5535
18629SOL     OW55960   3.431   1.898   7.210  0.1005 -0.7375 -0.0182
18629SOL    HW155961   3.419   1.806   7.247  2.1568 -1.8341 -2.0231
18629SOL    HW255962   3.401   1.900   7.115 -0.5319  0.8485  0.1931
18631SOL     OW55963   1.804   4.080   5.611 -0.1845 -0.2428  0.1354
18631SOL    HW155964   1.721   4.029   5.588  0.4138 -1.2195  0.0858
18631SOL    HW255965   1.803   4.169   5.566 -0.3540 -0.9932 -1.3721
18633SOL     OW55966   1.557   5.877   5.007  0.0537  0.1395 -0.5190
18633SOL    HW155967   1.602   5.806   5.060 -0.6252  0.0884  0.0046
18633SOL    HW255968   1.607   5.963   5.016  2.3023 -0.8181 -3.1589
18634SOL     OW55969   4.703   9.879   2.943 -0.1776  0.2399 -0.0663
18634SOL    HW155970   4.636   9.933   2.992 -1.0255 -2.2712  1.6701
18634SOL    HW255971   4.681   9.878   2.846 -2.2205  0.0974  0.3719
18636SOL     OW55972   9.601   3.512   0.829 -0.7815 -0.6694  0.6728
18636SOL    HW155973   9.557   3.595   0.865  0.4275 -0.1033  0.8853
18636SOL    HW255974   9.631   3.529   0.735  0.6033 -0.4103  1.1401
18637SOL     OW55975   1.638   3.642   0.338  0.7634  0.0275  0.4738
18637SOL    HW155976   1.556   3.659   0.393 -0.9939  0.0524 -2.1152
18637SOL    HW255977   1.719   3.660   0.394 -0.9733  0.2338  2.9987
18638SOL     OW55978   4.834   8.472   2.041  0.1164 -0.0495  0.2814
18638SOL    HW155979   4.812   8.568   2.025  1.2803  0.3554  1.0620
18638SOL    HW255980   4.756   8.415   2.016 -1.9472  1.3598  3.2175
18639SOL     OW55981   5.635   0.887   4.998 -0.1458 -0.1698  0.4866
18639SOL    HW155982   5.588   0.955   4.942 -1.2983 -1.5254 -0.2306
18639SOL    HW255983   5.613   0.902   5.094  0.0643  0.8061  0.3863
18640SOL     OW55984   2.012   0.739   7.688 -0.2018  0.3515  0.3421
18640SOL    HW155985   1.968   0.657   7.649 -2.1425  0.9430  1.2311
18640SOL    HW255986   1.955   0.819   7.669  1.2003  1.3552  0.3286
18641SOL     OW55987   9.528   8.463   4.509 -0.4733  0.2774 -0.3023
18641SOL    HW155988   9.432   8.442   4.489 -0.6397  1.3664 -0.6838
18641SOL    HW255989   9.583   8.450   4.426 -0.0802 -1.5524  0.2367
18642SOL     OW55990   6.910   1.355   2.978  0.3846  0.1795  0.3543
18642SOL    HW155991   6.960   1.439   3.002 -1.6786  1.6806 -0.4639
18642SOL    HW255992   6.921   1.337   2.881 -0.3987  0.3467  0.2306
18643SOL     OW55993   2.785   8.132   1.926 -0.0205  0.0159  0.2918
18643SOL    HW155994   2.716   8.132   1.999  0.6714 -1.4019  0.9592
18643SOL    HW255995   2.857   8.197   1.950  0.0398 -0.2031  0.7187
18644SOL     OW55996   9.242   2.476   3.730 -0.3495 -0.0515  0.4117
18644SOL    HW155997   9.145   2.498   3.727 -0.2396  0.2640 -0.7251
18644SOL    HW255998   9.283   2.517   3.812 -0.8115  1.2338  0.0044
18646SOL     OW55999   6.055   9.556   5.270 -0.4001 -0.1117  0.0390
18646SOL    HW156000   6.097   9.627   5.327  0.3357  0.1289 -0.7884
18646SOL    HW256001   6.127   9.501   5.228 -0.9552 -0.7076 -0.1259
18647SOL     OW56002   4.102   8.233   3.043 -0.5431 -0.3832  0.6917
18647SOL    HW156003   4.170   8.162   3.063  0.9507  1.2905  1.7749
18647SOL    HW256004   4.137   8.292   2.970 -0.5853  0.7947  1.6128
18648SOL     OW56005   0.103   0.613   7.694 -0.2749  0.3318 -0.0228
18648SOL    HW156006   0.078   0.525   7.652 -1.2180  0.4698  0.2378
18648SOL    HW256007   0.083   0.687   7.630 -0.4314  0.4387  0.1508
18649SOL     OW56008   2.839   4.688   7.037 -0.1580 -0.2352 -0.1055
18649SOL    HW156009   2.802   4.694   7.130 -1.1706 -0.8282 -0.4576
18649SOL    HW256010   2.868   4.594   7.018  0.4149 -0.0299 -0.2493
18650SOL     OW56011   5.141   2.431   0.622  0.5012  0.2822  0.4525
18650SOL    HW156012   5.176   2.398   0.709  0.0675 -0.6525  0.2823
18650SOL    HW256013   5.067   2.371   0.591  0.6036  0.6471 -0.5163
18651SOL     OW56014   8.905   8.594   1.789  0.6106  0.5427 -0.0060
18651SOL    HW156015   8.895   8.691   1.809  1.1332  1.1266 -2.4227
18651SOL    HW256016   8.984   8.580   1.728 -0.4174 -1.1908 -0.9911
18652SOL     OW56017   8.147   2.998   1.724 -0.0050 -0.1784 -0.5001
18652SOL    HW156018   8.125   3.009   1.627 -1.2213  1.0721 -0.1109
18652SOL    HW256019   8.113   2.910   1.756 -5.2804  1.9377  0.2217
18653SOL     OW56020   1.608   2.929   6.867  0.5071  0.4187 -0.2122
18653SOL    HW156021   1.702   2.960   6.883  0.5757 -0.6278  1.5271
18653SOL    HW256022   1.547   2.970   6.935  0.0749 -0.6405  0.0578
18654SOL     OW56023   6.647   5.669   0.763 -0.6027 -0.1319 -0.2348
18654SOL    HW156024   6.604   5.579   0.763  0.2724 -0.5611 -1.5208
18654SOL    HW256025   6.744   5.660   0.786 -0.7981  0.6445  0.9630
18655SOL     OW56026   7.446   4.779   1.852 -0.4108  0.4382  0.1832
18655SOL    HW156027   7.350   4.770   1.876 -0.3803 -2.3511 -0.5768
18655SOL    HW256028   7.503   4.737   1.923  0.0086 -1.6671 -1.3468
18658SOL     OW56029   8.428   5.764   5.375 -0.3790 -0.1151 -0.3516
18658SOL    HW156030   8.503   5.751   5.440  0.1543  0.8375 -0.7708
18658SOL    HW256031   8.375   5.845   5.400  0.4084  0.8146 -1.6431
18659SOL     OW56032   3.818   0.163   1.371  0.3326  0.7546 -0.0178
18659SOL    HW156033   3.721   0.154   1.347  0.6436 -0.0407 -1.0219
18659SOL    HW256034   3.874   0.146   1.290  1.3591 -0.0916  0.8486
18660SOL     OW56035   1.907   5.905   6.735 -0.6674  0.0235 -0.3719
18660SOL    HW156036   1.927   5.991   6.782  2.2601 -0.6608 -0.2857
18660SOL    HW256037   1.882   5.835   6.803  0.4159 -0.1203 -0.1174
18661SOL     OW56038   3.292   6.484   3.826  0.1245 -0.2711 -0.0939
18661SOL    HW156039   3.288   6.384   3.824 -1.1476 -0.2391  0.2250
18661SOL    HW256040   3.232   6.522   3.756  0.2974  0.2711  0.0451
18662SOL     OW56041   2.047   1.761   3.724  0.1862 -0.4247 -0.1363
18662SOL    HW156042   2.030   1.857   3.748  2.0990  0.6334 -2.6800
18662SOL    HW256043   2.001   1.740   3.637  1.2595 -1.2378 -0.5241
18663SOL     OW56044   1.076   0.444   5.596  0.1146  0.0372  0.5291
18663SOL    HW156045   1.134   0.526   5.596  1.3307 -0.8158 -0.0854
18663SOL    HW256046   1.043   0.427   5.689  2.6312 -0.6876  1.3278
18664SOL     OW56047   9.055   6.355   4.982 -0.6693  0.2725  0.2137
18664SOL    HW156048   9.148   6.365   4.947 -0.0786  1.1944  1.9903
18664SOL    HW256049   8.998   6.428   4.944 -0.3838  0.4282  0.0769
18665SOL     OW56050   2.870   6.960   5.665  0.4796 -0.4490 -0.1036
18665SOL    HW156051   2.920   7.022   5.604  1.1744 -0.4371  0.4665
18665SOL    HW256052   2.886   6.987   5.760 -1.3656  0.1212  0.0728
18666SOL     OW56053   7.771   9.759   1.049 -0.2793  0.2195  0.4925
18666SOL    HW156054   7.777   9.735   0.952 -2.5067 -0.3456  0.4551
18666SOL    HW256055   7.747   9.856   1.057  1.2718  0.6117  0.5177
18667SOL     OW56056   1.519   0.169   7.209  0.4984  0.4247  0.3654
18667SOL    HW156057   1.618   0.173   7.196  0.5100  1.1928  0.6573
18667SOL    HW256058   1.474   0.179   7.120  0.6304  3.2921  0.5778
18669SOL     OW56059   0.315   8.439   4.070  0.1527  0.3951  0.0563
18669SOL    HW156060   0.293   8.396   3.983 -0.5243  0.7739  0.0294
18669SOL    HW256061   0.238   8.496   4.099  0.2137 -0.0514  1.1044
18671SOL     OW56062   3.428   4.641   5.981 -0.6076  0.2612 -0.6955
18671SOL    HW156063   3.351   4.704   5.982 -1.3352 -0.6193  0.1030
18671SOL    HW256064   3.424   4.583   5.900 -1.2694 -0.3585 -0.2251
18672SOL     OW56065   8.572   0.831   7.378  0.2177  0.6042  0.6783
18672SOL    HW156066   8.552   0.756   7.315 -2.0193  1.4189  0.3715
18672SOL    HW256067   8.628   0.797   7.454  1.7073 -0.7009 -0.9546
18673SOL     OW56068   7.408   2.589   4.261 -0.0788 -0.2158  0.4579
18673SOL    HW156069   7.363   2.534   4.191  1.0894 -0.2442 -0.2813
18673SOL    HW256070   7.434   2.530   4.338 -0.8504 -0.2895  0.6599
18674SOL     OW56071   1.703   7.067   0.352 -0.6567 -0.0034 -0.6905
18674SOL    HW156072   1.771   7.009   0.308 -1.1875 -3.1141  2.3572
18674SOL    HW256073   1.613   7.051   0.311 -0.5232 -0.1128 -0.9406
18675SOL     OW56074   9.548   0.569   2.511  0.4295 -0.3287  0.1872
18675SOL    HW156075   9.527   0.547   2.606  0.6619 -0.1241  0.2875
18675SOL    HW256076   9.644   0.548   2.493  0.4371 -0.1801  0.0520
18676SOL     OW56077   7.354   6.165   3.894  0.4432 -0.7099  0.0572
18676SOL    HW156078   7.395   6.100   3.958  0.0618  0.1372  1.1696
18676SOL    HW256079   7.403   6.252   3.898 -0.6856 -0.0785  0.5073
18677SOL     OW56080   9.890   1.177   7.937 -0.2454 -0.1768 -0.2200
18677SOL    HW156081   9.938   1.139   7.857  1.0531  1.6577 -0.3428
18677SOL    HW256082   9.931   1.140   8.020  0.0360 -0.1762 -0.3567
18678SOL     OW56083   0.800   0.288   4.329 -0.4644  0.1967 -0.6897
18678SOL    HW156084   0.892   0.280   4.366 -0.7258  1.8162  0.3331
18678SOL    HW256085   0.739   0.226   4.378  0.0233 -0.7347 -1.2412
18679SOL     OW56086   4.510   6.482   4.405  0.4421  0.8863 -0.0976
18679SOL    HW156087   4.584   6.426   4.441  1.1720  2.6918  1.2667
18679SOL    HW256088   4.439   6.423   4.368  1.5844 -0.9165  0.5253
18680SOL     OW56089   9.955   0.030   6.445 -0.4761  0.4880 -0.0015
18680SOL    HW156090   9.858   0.057   6.445 -0.4350  0.6231 -1.1714
18680SOL    HW256091   9.964  -0.060   6.404 -0.0329  0.7307 -0.4388
18681SOL     OW56092   2.326   7.572   3.819  0.3376 -0.3330 -0.4287
18681SOL    HW156093   2.403   7.587   3.880  2.0896 -0.1306 -2.6328
18681SOL    HW256094   2.289   7.660   3.788  0.1742 -0.4396 -0.5418
18682SOL     OW56095   8.459   9.260   3.426 -0.1802 -0.4614  0.5015
18682SOL    HW156096   8.429   9.356   3.429 -1.6774 -0.9108  0.1731
18682SOL    HW256097   8.550   9.252   3.468 -0.0922  1.0807  0.6259
18683SOL     OW56098   1.286   9.905   1.786 -0.2038  0.1103 -0.2929
18683SOL    HW156099   1.270  10.004   1.789  0.0215  0.1726 -1.0661
18683SOL    HW256100   1.366   9.883   1.842 -1.1228  0.1784  1.0632
18684SOL     OW56101   0.967   6.736   6.187 -0.0433  0.4257  0.4690
18684SOL    HW156102   0.987   6.719   6.090  2.2488 -0.8707  1.1140
18684SOL    HW256103   0.871   6.716   6.205 -0.0061 -1.3552 -1.1226
18685SOL     OW56104   2.137   8.898   1.577 -0.1579  0.0241  0.2355
18685SOL    HW156105   2.124   8.809   1.622  1.8747  0.0538  0.9239
18685SOL    HW256106   2.056   8.954   1.590 -1.7494 -1.9519 -0.7428
18686SOL     OW56107   3.090   8.665   6.860  0.3344 -0.1210 -0.0276
18686SOL    HW156108   3.019   8.596   6.873  0.0928  0.1055 -0.1514
18686SOL    HW256109   3.150   8.637   6.785 -0.7698  0.6304 -1.2073
18687SOL     OW56110   3.511   3.678   1.889  0.1723  0.2927 -0.3656
18687SOL    HW156111   3.579   3.637   1.950 -0.4125  1.4162  1.1000
18687SOL    HW256112   3.447   3.733   1.944 -0.6914  0.8940 -1.9493
18688SOL     OW56113   0.559   8.453   6.604  0.7494 -0.0812 -0.3568
18688SOL    HW156114   0.614   8.416   6.679 -0.4604  0.0068  0.5848
18688SOL    HW256115   0.534   8.380   6.542 -2.1346 -1.0271  1.8134
18689SOL     OW56116   5.938   0.127   6.491 -0.4547  0.0347 -0.2371
18689SOL    HW156117   5.927   0.029   6.476 -0.1307  0.0730 -0.7465
18689SOL    HW256118   5.860   0.162   6.541 -1.1755 -0.2585 -1.1422
18690SOL     OW56119   1.139   7.695   2.472  0.3785 -0.3590  0.5158
18690SOL    HW156120   1.166   7.782   2.433  0.1167 -1.1398 -1.4392
18690SOL    HW256121   1.045   7.701   2.506 -0.4563 -0.5465 -1.7296
18691SOL     OW56122   4.994   5.510   1.656  0.0207 -0.5223  0.1687
18691SOL    HW156123   4.937   5.580   1.698  1.2420  0.0891  0.8417
18691SOL    HW256124   5.042   5.549   1.577  1.5774 -0.2538  1.2217
18692SOL     OW56125   5.133   9.393   6.265  0.2841  0.5310 -0.3671
18692SOL    HW156126   5.228   9.369   6.285 -0.4834 -0.1565  2.7892
18692SOL    HW256127   5.130   9.479   6.215  2.5422  0.7157 -0.2384
18693SOL     OW56128   1.060   8.453   7.052  0.2219 -0.5365  0.4129
18693SOL    HW156129   1.157   8.443   7.076  0.5297  0.3257 -0.4573
18693SOL    HW256130   1.006   8.463   7.136  1.0095 -0.0039  0.8594
18695SOL     OW56131   9.414   1.760   0.495  0.1063  0.1757  1.0014
18695SOL    HW156132   9.370   1.843   0.459  0.8762 -0.7116 -2.2033
18695SOL    HW256133   9.513   1.770   0.489  0.1917 -1.2594 -0.1451
18698SOL     OW56134   8.585   0.505   2.008 -0.2671 -0.2010  0.2128
18698SOL    HW156135   8.551   0.428   1.955  0.2974  0.8324 -1.7120
18698SOL    HW256136   8.509   0.568   2.028  0.0464  1.0081 -2.1912
18699SOL     OW56137   0.348   3.047   7.486 -0.3231  0.2640  0.2257
18699SOL    HW156138   0.371   3.038   7.583 -1.8777  0.0838  0.5852
18699SOL    HW256139   0.255   3.014   7.470 -0.1082  0.3671 -1.3149
18700SOL     OW56140   9.164   7.272   2.058 -0.0758  0.1315  0.1520
18700SOL    HW156141   9.239   7.290   2.121  0.6024  1.1624 -0.9294
18700SOL    HW256142   9.164   7.175   2.033 -0.1398 -0.2165  1.4506
18703SOL     OW56143   0.578   9.439   2.510 -0.5534  0.1260 -0.4179
18703SOL    HW156144   0.500   9.386   2.543  0.0397 -0.3394  0.2509
18703SOL    HW256145   0.662   9.401   2.547  0.0335  0.3186 -1.5384
18704SOL     OW56146   9.719   0.407   1.205 -0.1901  0.2933  0.0543
18704SOL    HW156147   9.802   0.357   1.180 -0.3171  0.4600 -0.6925
18704SOL    HW256148   9.691   0.381   1.298  0.9090  0.5132  0.4513
18705SOL     OW56149   8.688   3.691   7.679  0.1357 -0.0244  0.5079
18705SOL    HW156150   8.713   3.730   7.768 -1.2842  0.3347  0.7615
18705SOL    HW256151   8.719   3.753   7.606 -0.0277  0.4362  0.8222
18706SOL     OW56152   5.086   4.126   6.624  0.3064  0.7445 -0.2578
18706SOL    HW156153   5.047   4.149   6.713  3.3515  0.5449  1.1892
18706SOL    HW256154   5.109   4.029   6.622  0.7730  0.8668 -1.0495
18709SOL     OW56155   3.917   0.263   3.400 -0.3051  0.4458 -0.0253
18709SOL    HW156156   3.838   0.249   3.341 -1.4624 -0.2934  1.6538
18709SOL    HW256157   3.920   0.359   3.429  0.3225  0.8317 -1.3290
18710SOL     OW56158   4.191   2.842   2.597 -0.2168  0.4128  0.2500
18710SOL    HW156159   4.235   2.854   2.508  0.3255  2.1931  0.7305
18710SOL    HW256160   4.223   2.756   2.638  0.9116  0.4638 -0.4850
18711SOL     OW56161   1.582   7.339   3.271  0.2376 -0.3035  0.0581
18711SOL    HW156162   1.618   7.270   3.209 -1.5684 -0.4435 -0.8366
18711SOL    HW256163   1.627   7.329   3.360  0.2250 -2.4271 -0.1409
18712SOL     OW56164   3.121   9.875   4.613 -0.3384 -1.0763  0.2360
18712SOL    HW156165   3.172   9.899   4.696 -1.1162 -2.4269  1.1191
18712SOL    HW256166   3.131   9.948   4.545 -0.7396  0.6422  1.9940
18713SOL     OW56167   8.931   8.322   3.966 -0.0921 -0.1884  0.0119
18713SOL    HW156168   8.912   8.413   3.928  1.0463  0.2961  0.6042
18713SOL    HW256169   8.847   8.267   3.961 -1.0014  1.1237  0.3171
18714SOL     OW56170   7.966   5.588   3.271 -0.2240  0.5131  0.5089
18714SOL    HW156171   8.058   5.621   3.292 -0.9454  0.2184  4.4737
18714SOL    HW256172   7.940   5.517   3.336 -2.9501  0.0264 -1.0409
18715SOL     OW56173   8.617   9.596   2.357 -0.4713 -0.6328  0.1800
18715SOL    HW156174   8.592   9.692   2.375 -0.4254 -0.6574  0.3695
18715SOL    HW256175   8.683   9.592   2.282 -0.0175 -0.4720  0.5701
18718SOL     OW56176   7.072   7.006   7.365 -0.3879  0.6426 -0.2326
18718SOL    HW156177   7.038   7.093   7.401 -1.0747 -0.2306  1.2683
18718SOL    HW256178   6.995   6.944   7.350  0.1751  0.0192 -0.5427
18719SOL     OW56179   3.449   3.377   1.837 -0.0005 -0.6959  0.0731
18719SOL    HW156180   3.475   3.473   1.833 -0.2162 -0.3585  4.2393
18719SOL    HW256181   3.404   3.350   1.752 -0.3661  3.0102 -0.9617
18721SOL     OW56182   1.460   8.947   1.781  0.2313  0.7383  0.4290
18721SOL    HW156183   1.548   8.900   1.777  0.1329  0.6145 -0.6270
18721SOL    HW256184   1.404   8.920   1.702  0.4752  3.2075 -0.6434
18722SOL     OW56185   5.639   0.249   2.592 -0.1558 -0.3062 -0.0787
18722SOL    HW156186   5.680   0.192   2.520  0.8715 -0.9810  1.0174
18722SOL    HW256187   5.546   0.219   2.609  0.0263 -0.9838 -0.2536
18723SOL     OW56188   9.731   7.463   6.167 -0.0171 -0.6065  0.1096
18723SOL    HW156189   9.709   7.366   6.165  0.4670 -0.7149 -0.0122
18723SOL    HW256190   9.685   7.506   6.245  1.2487 -1.3040  1.2705
18724SOL     OW56191   2.525   3.338   0.448 -0.0309  0.5609 -0.5841
18724SOL    HW156192   2.467   3.412   0.413  1.3007  1.3557 -1.1354
18724SOL    HW256193   2.582   3.302   0.374  1.0483  0.6017  0.2171
18725SOL     OW56194   9.070   8.536   5.757 -0.0755 -0.1592  0.1005
18725SOL    HW156195   9.051   8.628   5.724  0.5511  0.4936  1.4854
18725SOL    HW256196   9.157   8.504   5.718 -2.0941 -1.7049 -3.3646
18726SOL     OW56197   8.402   6.362   5.646  0.4950  0.6775 -0.4884
18726SOL    HW156198   8.476   6.317   5.596 -1.2897 -2.2004 -0.6543
18726SOL    HW256199   8.368   6.300   5.717 -1.7602  1.9547 -0.4186
18728SOL     OW56200   0.104   3.502   7.109  0.5025 -0.3475 -0.1420
18728SOL    HW156201   0.107   3.428   7.041  2.0101  0.1401 -0.6131
18728SOL    HW256202   0.076   3.587   7.064  0.7165 -0.1958  0.0125
18729SOL     OW56203   7.639   9.915   1.711  0.3102 -0.3316  0.4614
18729SOL    HW156204   7.546   9.903   1.743  0.0907 -0.0635 -0.0586
18729SOL    HW256205   7.683   9.826   1.698  0.3951 -0.4415  1.4689
18731SOL     OW56206   7.253   9.888   6.041  0.1633 -0.1480  0.1810
18731SOL    HW156207   7.316   9.963   6.020  1.1865 -0.4080  2.2379
18731SOL    HW256208   7.269   9.813   5.976  0.4316  0.6669 -0.7044
18733SOL     OW56209   5.585   2.142   5.764  0.0662 -0.5109  0.0055
18733SOL    HW156210   5.569   2.133   5.666  0.6128  0.5482 -0.1899
18733SOL    HW256211   5.675   2.184   5.780 -0.6299  0.6907  0.9153
18734SOL     OW56212   4.894   7.696   3.348 -0.3151  0.3469 -0.1835
18734SOL    HW156213   4.937   7.775   3.391 -0.3132 -0.1397  0.7194
18734SOL    HW256214   4.794   7.706   3.352 -0.3577 -0.5552  1.6004
18735SOL     OW56215   9.134   0.384   5.080 -0.5204 -0.4141 -0.5285
18735SOL    HW156216   9.185   0.383   5.166  0.3577 -0.4451 -1.0345
18735SOL    HW256217   9.043   0.422   5.095 -0.8094 -1.5346  0.6457
18736SOL     OW56218   3.199   7.524   6.283  0.3005  0.2142 -0.7586
18736SOL    HW156219   3.167   7.571   6.366 -1.5040 -0.4627 -1.0667
18736SOL    HW256220   3.252   7.588   6.227  1.9900  0.5433  1.1478
18737SOL     OW56221   0.227   7.594   2.820 -0.0420 -0.1524 -0.4213
18737SOL    HW156222   0.321   7.605   2.789 -0.1544 -0.6547 -0.9490
18737SOL    HW256223   0.213   7.500   2.853  0.6103  0.8733  2.9952
18738SOL     OW56224   2.552   4.820   3.374 -0.4322 -0.6989  0.0635
18738SOL    HW156225   2.541   4.722   3.358 -2.1024 -0.6213  0.5711
18738SOL    HW256226   2.467   4.868   3.348  0.7267  0.7415 -1.1541
18739SOL     OW56227   1.854   8.039   1.310 -0.0727 -0.0204  0.6418
18739SOL    HW156228   1.860   8.061   1.408  0.1512 -0.6455  0.7726
18739SOL    HW256229   1.824   8.120   1.260  1.2425  0.7405  1.0529
18740SOL     OW56230   3.242   9.837   0.215  0.0448 -0.3469  0.3099
18740SOL    HW156231   3.270   9.747   0.180 -1.6443 -0.6261 -0.3704
18740SOL    HW256232   3.151   9.859   0.181 -0.4962  0.6335  2.3240
18741SOL     OW56233   9.629   0.728   0.729  0.0197 -0.0975 -0.3575
18741SOL    HW156234   9.673   0.726   0.819  2.4172  1.6996 -1.4410
18741SOL    HW256235   9.616   0.634   0.696  0.5614 -0.7241  1.1631
18744SOL     OW56236   5.295   4.464   7.279  0.0521 -0.0115 -0.1180
18744SOL    HW156237   5.273   4.401   7.204  0.2047  1.9008 -1.8085
18744SOL    HW256238   5.308   4.412   7.364 -0.7056 -2.1530 -1.2845
18745SOL     OW56239   0.800   0.387   7.889 -0.1342 -0.6480  0.1047
18745SOL    HW156240   0.886   0.356   7.930 -0.1286 -0.0019  0.5788
18745SOL    HW256241   0.818   0.461   7.825 -0.4371  0.1184  0.8960
18746SOL     OW56242   9.550   7.791   6.660  0.2652 -0.2550 -0.1944
18746SOL    HW156243   9.610   7.831   6.730  0.5779  0.6374 -0.9652
18746SOL    HW256244   9.579   7.822   6.570 -2.2783  1.4010 -0.4752
18747SOL     OW56245   2.818   6.447   5.057  0.1174 -0.9900 -0.2067
18747SOL    HW156246   2.843   6.352   5.073 -1.0061 -1.1287  0.7685
18747SOL    HW256247   2.752   6.452   4.982  0.2189 -0.9693 -0.2954
18749SOL     OW56248   4.373   2.810   5.873  0.3497  0.1361  0.2395
18749SOL    HW156249   4.456   2.762   5.901 -0.8573 -1.8515  0.4937
18749SOL    HW256250   4.327   2.758   5.801 -0.7795  1.1075  0.2455
18752SOL     OW56251   3.960   0.461   7.505 -0.1779  0.6034 -0.3103
18752SOL    HW156252   3.985   0.365   7.517  0.2028  0.8207  0.6857
18752SOL    HW256253   3.930   0.476   7.411 -1.8767 -0.8411 -0.0222
18753SOL     OW56254   1.498   6.552   1.708  0.7398  0.0373 -0.3791
18753SOL    HW156255   1.458   6.462   1.728  1.8168 -0.6736 -1.3828
18753SOL    HW256256   1.451   6.592   1.629 -0.3300  0.7608  0.6044
18754SOL     OW56257   8.546   6.610   5.881 -0.3213  0.1363  0.1067
18754SOL    HW156258   8.644   6.594   5.869 -0.2349  0.3095  0.5703
18754SOL    HW256259   8.504   6.630   5.792 -0.0306 -0.4509 -0.1616
18755SOL     OW56260   2.088   0.417   7.714 -0.1421 -0.0158 -0.1433
18755SOL    HW156261   2.022   0.346   7.690 -0.4290 -0.0850  0.8039
18755SOL    HW256262   2.060   0.459   7.800  0.6541  0.4597 -0.1178
18756SOL     OW56263   1.155   5.289   6.358 -0.5607 -0.1052  0.2276
18756SOL    HW156264   1.157   5.387   6.344 -2.4970 -0.1054 -0.1038
18756SOL    HW256265   1.171   5.242   6.271 -2.5935 -0.0840 -0.1651
18757SOL     OW56266   0.533   1.238   6.061  0.2489 -0.2751  0.0925
18757SOL    HW156267   0.568   1.322   6.019  1.7199  0.4895  2.7108
18757SOL    HW256268   0.436   1.228   6.040 -0.5921  3.4370  1.7980
18758SOL     OW56269   4.381   1.277   5.861 -0.3479 -0.6074  0.3619
18758SOL    HW156270   4.312   1.274   5.933 -0.9161 -2.8053 -0.2390
18758SOL    HW256271   4.402   1.372   5.840 -0.3394  0.1001  3.2472
18759SOL     OW56272   4.744   3.009   0.255  0.2945 -0.3407 -0.2314
18759SOL    HW156273   4.719   3.105   0.251  1.4847 -0.0339 -0.6220
18759SOL    HW256274   4.715   2.963   0.171  0.0955 -0.2301 -0.2229
18760SOL     OW56275   3.015   9.083   3.495 -0.3769  0.2292 -0.6300
18760SOL    HW156276   3.042   8.996   3.536 -0.2734 -0.0462 -1.2626
18760SOL    HW256277   3.074   9.102   3.417 -0.3007  0.9494 -0.3958
18761SOL     OW56278   5.138   0.656   7.155 -0.7830  0.2266  0.0972
18761SOL    HW156279   5.196   0.701   7.223 -0.9390  1.7523 -0.7541
18761SOL    HW256280   5.094   0.726   7.097 -0.8796 -1.0378 -1.3753
18762SOL     OW56281   4.385   2.109   4.523 -0.0080  0.1706  0.1397
18762SOL    HW156282   4.447   2.154   4.587  0.2899 -1.8107  1.2905
18762SOL    HW256283   4.306   2.073   4.573 -0.3735 -0.3570 -0.8027
18763SOL     OW56284   0.152   6.908   0.119  0.0528 -0.1045  0.6237
18763SOL    HW156285   0.220   6.844   0.153  0.1793 -0.4889 -0.3342
18763SOL    HW256286   0.142   6.984   0.184  1.8335  0.2776  0.4922
18764SOL     OW56287   8.515   2.597   5.320 -0.7106 -0.1620 -0.2315
18764SOL    HW156288   8.453   2.533   5.366 -0.6551 -0.8764 -1.1452
18764SOL    HW256289   8.609   2.565   5.329 -0.6036  0.1958 -0.0396
18765SOL     OW56290   4.003   8.890   1.948  0.3378 -0.6705 -0.1187
18765SOL    HW156291   4.093   8.862   1.983  1.0850  1.4273 -0.2868
18765SOL    HW256292   3.977   8.977   1.989 -1.6341 -1.2474 -0.0923
18767SOL     OW56293   5.841   2.114   0.200  0.3687  0.0165  0.1275
18767SOL    HW156294   5.866   2.054   0.275  1.4925  5.2076  4.2367
18767SOL    HW256295   5.921   2.131   0.142  1.1966  0.7985  1.4644
18768SOL     OW56296   8.365   8.044   2.670  0.4726  0.5542 -0.2288
18768SOL    HW156297   8.406   7.966   2.623 -0.2633  0.3099 -0.4641
18768SOL    HW256298   8.410   8.057   2.759 -0.2014 -0.8838  0.3412
18770SOL     OW56299   2.227   1.757   6.210 -0.0713  0.2146 -0.7692
18770SOL    HW156300   2.168   1.747   6.290  0.1579 -1.3957 -0.7799
18770SOL    HW256301   2.315   1.796   6.238 -0.6660  1.4106 -0.5457
18771SOL     OW56302   2.525   0.607   6.938 -0.1811  0.1066 -0.0964
18771SOL    HW156303   2.486   0.698   6.952  0.4711  0.4653 -0.5373
18771SOL    HW256304   2.551   0.568   7.026  1.2178  1.1214 -0.0347
18772SOL     OW56305   1.838   8.851   5.716 -0.2572 -0.2201  0.2178
18772SOL    HW156306   1.757   8.807   5.754  0.2919 -1.6689 -0.2688
18772SOL    HW256307   1.825   8.867   5.619 -0.0455 -0.2683  0.1808
18774SOL     OW56308   9.516   1.841   5.098 -0.1951 -0.4459  0.4624
18774SOL    HW156309   9.508   1.937   5.073  0.3161 -0.5926 -0.2825
18774SOL    HW256310   9.480   1.783   5.025 -0.3687 -0.8222  0.8425
18775SOL     OW56311   9.041   8.860   0.594 -0.1258 -0.3036 -0.0200
18775SOL    HW156312   9.092   8.941   0.567  0.5928 -0.7780 -0.0852
18775SOL    HW256313   8.965   8.846   0.530  1.3264 -1.1897 -1.5754
18776SOL     OW56314   0.194   0.998   5.002 -0.4820  0.1430 -0.6735
18776SOL    HW156315   0.223   1.081   5.048 -1.0016 -1.8544  3.5161
18776SOL    HW256316   0.094   0.993   5.003 -0.4433 -0.6916 -0.5446
18778SOL     OW56317   8.345   9.287   1.140 -0.0666  0.5916 -0.3311
18778SOL    HW156318   8.358   9.378   1.179 -0.4837  0.1995  0.7472
18778SOL    HW256319   8.425   9.230   1.161  0.8517  1.1266 -2.2545
18779SOL     OW56320   1.160   2.825   4.805  0.4950 -0.2552 -0.3196
18779SOL    HW156321   1.120   2.864   4.722 -0.5141 -0.7050 -0.0644
18779SOL    HW256322   1.204   2.897   4.858 -1.1362  0.4982  0.0356
18781SOL     OW56323   0.752   9.012   7.806  0.3483  0.5484 -0.2342
18781SOL    HW156324   0.736   8.921   7.766 -2.1627  0.6779  0.3908
18781SOL    HW256325   0.702   9.019   7.893  0.9852  2.3402  0.0007
18782SOL     OW56326   5.296   3.535   0.806  0.1114 -0.0568 -0.2592
18782SOL    HW156327   5.333   3.468   0.871 -0.3433 -0.7450 -0.7095
18782SOL    HW256328   5.317   3.506   0.713 -1.7168 -0.5522 -0.5374
18783SOL     OW56329   7.571   9.481   5.891  0.0570  0.7800  0.3276
18783SOL    HW156330   7.477   9.469   5.860  0.2306 -1.1771  0.5176
18783SOL    HW256331   7.633   9.436   5.828  0.7662  0.8896  0.9481
18784SOL     OW56332   0.503   4.606   4.292  0.4054  0.3105  0.3671
18784SOL    HW156333   0.466   4.679   4.235 -1.6852 -0.3535  0.8366
18784SOL    HW256334   0.491   4.631   4.389 -1.1699 -1.0454  0.5391
18786SOL     OW56335   1.632   1.908   1.864  0.1911 -0.1563  0.1968
18786SOL    HW156336   1.686   1.830   1.830 -0.1968 -0.1996 -0.3255
18786SOL    HW256337   1.627   1.978   1.793 -0.3734 -0.1153  0.2797
18788SOL     OW56338   7.907   5.820   6.154  0.3488  0.1133  0.3728
18788SOL    HW156339   7.992   5.838   6.203  0.0183 -1.2168  1.4868
18788SOL    HW256340   7.862   5.740   6.194 -1.4365  0.8007 -0.1939
18789SOL     OW56341   8.316   6.690   0.564 -0.3776  0.0656 -0.3870
18789SOL    HW156342   8.259   6.761   0.605 -1.2402 -0.4597 -0.6844
18789SOL    HW256343   8.310   6.695   0.464  0.2646  0.1411 -0.4291
18790SOL     OW56344   4.694   1.462   7.460  0.0191 -0.3141  0.5664
18790SOL    HW156345   4.697   1.403   7.379  1.2014  1.4478 -0.6992
18790SOL    HW256346   4.608   1.512   7.461  0.7098  0.9368 -0.5553
18791SOL     OW56347   1.491   4.830   4.383  0.6841 -0.5531  0.5219
18791SOL    HW156348   1.542   4.857   4.301  1.6987 -2.1992  0.5856
18791SOL    HW256349   1.548   4.844   4.464  0.1801 -0.2057  0.8150
18793SOL     OW56350   7.185   9.383   4.521  0.1698 -0.0666 -0.3439
18793SOL    HW156351   7.138   9.302   4.554  2.6273 -1.0932  0.7752
18793SOL    HW256352   7.235   9.361   4.438 -0.5359  0.7655 -0.9975
18794SOL     OW56353   9.041   9.183   6.085 -0.2850  1.0032 -0.0040
18794SOL    HW156354   8.979   9.122   6.035  2.1738 -0.0418 -1.8874
18794SOL    HW256355   9.085   9.132   6.158  0.9240  0.7916 -0.8644
18795SOL     OW56356   5.529   9.530   7.844 -0.1190 -0.2329 -0.2930
18795SOL    HW156357   5.597   9.585   7.892 -0.2246 -0.3432 -0.0155
18795SOL    HW256358   5.457   9.503   7.908 -1.2423  1.1852 -0.9195
18796SOL     OW56359   8.431   3.266   2.363 -0.1199  0.5908  0.5712
18796SOL    HW156360   8.414   3.357   2.401 -0.4613  0.0516  1.7362
18796SOL    HW256361   8.453   3.202   2.437  0.7966 -0.1249 -0.3057
18797SOL     OW56362   8.311   3.872   5.377  0.4209  0.2834 -0.1886
18797SOL    HW156363   8.323   3.848   5.473 -1.1877 -2.1526 -0.5552
18797SOL    HW256364   8.400   3.882   5.333  1.1476  0.7288  1.3753
18798SOL     OW56365   9.632   8.350   2.667 -0.5044  0.1067  0.3674
18798SOL    HW156366   9.562   8.308   2.609  0.5720  1.9215 -2.3420
18798SOL    HW256367   9.593   8.371   2.756 -2.6051 -1.5360 -0.1347
18799SOL     OW56368   8.643   4.584   2.360 -0.0419 -0.3074  0.5150
18799SOL    HW156369   8.697   4.551   2.438 -0.5966 -0.2591  0.9173
18799SOL    HW256370   8.546   4.579   2.382 -0.2830 -1.8342 -0.7739
18801SOL     OW56371   0.504   4.442   4.061  0.3044  0.2482  0.6062
18801SOL    HW156372   0.521   4.343   4.066  0.4495  0.2526  0.2212
18801SOL    HW256373   0.497   4.479   4.154  0.1333 -0.1436  0.7546
18802SOL     OW56374   1.718   3.205   6.375  0.5301  0.0326 -0.4489
18802SOL    HW156375   1.807   3.245   6.396  1.2142 -0.9995 -1.3610
18802SOL    HW256376   1.655   3.277   6.348  0.8423  0.8694  0.9831
18804SOL     OW56377   2.338   2.539   4.061 -0.1709 -0.5356 -0.2161
18804SOL    HW156378   2.421   2.545   4.116 -0.8559 -0.5670  0.8216
18804SOL    HW256379   2.363   2.537   3.964  1.1134 -2.1082  0.1404
18805SOL     OW56380   0.868   2.278   5.091 -0.0889  0.0563 -0.4778
18805SOL    HW156381   0.876   2.204   5.158  0.6950  0.5711  0.0059
18805SOL    HW256382   0.950   2.335   5.094 -0.4840  0.6705 -1.1734
18806SOL     OW56383   7.318   6.127   7.317  0.3070 -0.3267  0.0580
18806SOL    HW156384   7.285   6.052   7.260  0.7510 -0.4794 -0.0060
18806SOL    HW256385   7.357   6.199   7.258 -0.5763  0.1849  0.0899
18808SOL     OW56386   8.998   4.381   2.408  0.1813 -0.2938 -0.6033
18808SOL    HW156387   8.898   4.382   2.415  0.1870  0.1029 -0.5335
18808SOL    HW256388   9.029   4.289   2.386 -0.2335 -0.3124 -1.1192
18809SOL     OW56389   1.436   5.925   6.383  0.1621 -0.1773 -0.7831
18809SOL    HW156390   1.489   5.900   6.463  1.2305  1.0575 -1.0952
18809SOL    HW256391   1.391   5.843   6.346 -0.7564 -0.6661  1.3372
18810SOL     OW56392   2.282   8.455   1.544  0.4521  0.1030  0.0674
18810SOL    HW156393   2.306   8.370   1.591  1.9310  0.0147 -0.7905
18810SOL    HW256394   2.304   8.533   1.603  0.4731 -0.0695  0.2886
18811SOL     OW56395   0.817   3.448   1.087  0.1247 -0.6264  0.2402
18811SOL    HW156396   0.772   3.473   1.172 -1.4314 -0.5174 -0.5950
18811SOL    HW256397   0.758   3.386   1.034  1.9839 -2.4191  0.2045
18813SOL     OW56398   0.562   3.627   3.341 -0.1460  0.3186 -0.1516
18813SOL    HW156399   0.593   3.717   3.371  0.4678 -0.1056  0.5197
18813SOL    HW256400   0.464   3.619   3.357 -0.0230  0.5007  0.7686
18814SOL     OW56401   3.580   7.877   3.281 -0.1440  0.4203  0.7119
18814SOL    HW156402   3.566   7.975   3.299  2.1493  0.4363  2.6161
18814SOL    HW256403   3.676   7.861   3.258 -0.9816 -1.0808 -2.0341
18816SOL     OW56404   7.675   1.185   3.605 -0.4505  0.3707 -0.1841
18816SOL    HW156405   7.591   1.143   3.638  0.2712 -0.1830  0.9684
18816SOL    HW256406   7.657   1.279   3.577 -1.7536 -0.1999 -1.3348
18818SOL     OW56407   6.661   9.748   5.531 -0.1777 -0.8485 -0.3135
18818SOL    HW156408   6.577   9.709   5.494 -0.0306 -1.4594 -0.0230
18818SOL    HW256409   6.716   9.675   5.571  0.4938 -0.4525 -0.5086
18819SOL     OW56410   7.717   8.101   7.941 -0.0472 -0.4211 -0.6678
18819SOL    HW156411   7.784   8.113   7.868 -0.4934  0.9198 -0.8807
18819SOL    HW256412   7.722   8.180   8.003  0.0958 -1.3812  0.5622
18820SOL     OW56413   1.945   5.447   2.328  0.4592 -0.7540  0.1182
18820SOL    HW156414   1.929   5.355   2.365 -0.0676 -1.1278 -1.0129
18820SOL    HW256415   2.014   5.493   2.383  1.3138 -2.1330  0.2380
18821SOL     OW56416   8.381   1.006   5.489  0.1975  0.0540  0.1223
18821SOL    HW156417   8.341   0.923   5.526  0.2346  0.8483  1.9923
18821SOL    HW256418   8.308   1.065   5.452  0.0006 -0.0681  0.3164
18822SOL     OW56419   1.781   3.984   1.694 -0.5694 -0.0333 -0.2346
18822SOL    HW156420   1.829   3.999   1.780 -1.6348 -1.4305  0.6335
18822SOL    HW256421   1.743   4.070   1.661  2.2555  1.0447 -0.7991
18823SOL     OW56422   1.800   2.406   1.701 -0.6852 -0.0504  0.2354
18823SOL    HW156423   1.762   2.444   1.616 -0.2120 -1.3344 -0.5664
18823SOL    HW256424   1.737   2.424   1.777 -1.5267  0.3589 -0.5474
18824SOL     OW56425   5.548   1.047   1.018 -0.4036 -0.1017  0.0481
18824SOL    HW156426   5.468   1.059   1.076 -0.5200 -0.9634  0.0702
18824SOL    HW256427   5.519   1.025   0.925 -0.1873 -0.8890  0.1645
18825SOL     OW56428   8.040   9.383   0.918 -0.0312  0.4585  0.0515
18825SOL    HW156429   7.984   9.331   0.983  0.7639 -1.6055 -0.8745
18825SOL    HW256430   8.055   9.328   0.836  0.3518  2.4037 -1.2024
18826SOL     OW56431   8.652   6.093   6.968  0.2213 -0.0673 -0.0743
18826SOL    HW156432   8.674   6.074   7.064 -2.0195  0.1342  0.5107
18826SOL    HW256433   8.724   6.057   6.909  2.1784  0.7831  1.7479
18827SOL     OW56434   3.187   4.541   6.812  0.1634 -0.6756  0.1145
18827SOL    HW156435   3.191   4.476   6.736 -0.0350 -0.3788 -0.1497
18827SOL    HW256436   3.265   4.526   6.872  1.1807  0.1126 -0.9832
18829SOL     OW56437   8.544   0.342   2.522 -0.2314 -0.9597  0.1544
18829SOL    HW156438   8.619   0.351   2.588  1.2535 -0.3798 -1.5843
18829SOL    HW256439   8.481   0.419   2.532  0.2001 -0.6694  0.6327
18830SOL     OW56440   8.750   8.308   4.670  0.9076 -0.2238  0.3290
18830SOL    HW156441   8.749   8.308   4.570  0.5467  1.3364  0.3271
18830SOL    HW256442   8.809   8.234   4.703 -0.0136 -1.6008 -1.0182
18831SOL     OW56443   7.235   5.539   0.544  0.0451 -0.2158 -0.0341
18831SOL    HW156444   7.293   5.616   0.570  2.2448 -1.7992 -0.1649
18831SOL    HW256445   7.241   5.468   0.613 -0.4849 -1.0778 -0.8623
18832SOL     OW56446   5.916   3.349   0.227 -0.0111 -0.0366  0.1240
18832SOL    HW156447   6.008   3.387   0.229  0.3088 -0.8865  2.3354
18832SOL    HW256448   5.915   3.260   0.272 -2.2257  0.6918  1.6030
18833SOL     OW56449   3.970   2.872   3.874 -0.0033  0.3463  0.5794
18833SOL    HW156450   3.990   2.838   3.965 -0.2505  0.3457  0.6346
18833SOL    HW256451   3.979   2.972   3.873  0.2203  0.3246  0.5477
18835SOL     OW56452   2.390   3.260   3.977  0.0654 -0.1610  0.0717
18835SOL    HW156453   2.480   3.235   4.013  0.5389 -1.6380 -2.0290
18835SOL    HW256454   2.396   3.349   3.931  0.2990  0.0781  0.5692
18836SOL     OW56455   6.060   8.218   3.055 -0.1105 -0.0757  0.0884
18836SOL    HW156456   6.031   8.298   3.002 -0.5307  0.4719  1.1288
18836SOL    HW256457   6.110   8.248   3.137  1.2895 -0.9374 -0.4282
18837SOL     OW56458   0.411   4.106   6.183 -0.2449 -0.0587  0.1063
18837SOL    HW156459   0.312   4.092   6.180 -0.3516  0.3338  1.3539
18837SOL    HW256460   0.434   4.191   6.135 -0.6885  0.6448  1.1089
18838SOL     OW56461   2.486   8.766   1.435  0.1941  0.0332 -0.2397
18838SOL    HW156462   2.510   8.824   1.512 -1.3001 -0.3697  0.5468
18838SOL    HW256463   2.387   8.767   1.421  0.5032  0.6947 -2.6354
18839SOL     OW56464   7.285   3.809   1.387  0.7836  0.4793  0.1381
18839SOL    HW156465   7.250   3.890   1.340  0.5191  0.3699  0.1430
18839SOL    HW256466   7.272   3.728   1.328  0.1671  0.2932  0.5167
18840SOL     OW56467   4.266   3.569   0.776 -0.2852 -0.0164  0.1729
18840SOL    HW156468   4.240   3.475   0.752  0.7061  0.1122 -1.4414
18840SOL    HW256469   4.341   3.566   0.842 -0.0779 -0.3545 -0.0748
18842SOL     OW56470   3.662   3.688   7.920 -0.3076 -0.1312  0.4443
18842SOL    HW156471   3.743   3.696   7.978  0.2528  1.0575 -0.4826
18842SOL    HW256472   3.606   3.770   7.930 -0.7286 -0.3783  0.0997
18843SOL     OW56473   0.042   3.488   1.304 -0.3703  0.3003  0.4188
18843SOL    HW156474   0.033   3.398   1.346  1.1564 -0.3074 -0.5092
18843SOL    HW256475   0.138   3.517   1.309 -0.5007  1.0267 -0.9771
18844SOL     OW56476   2.616   1.987   4.291 -0.2005 -0.3246 -0.4849
18844SOL    HW156477   2.551   2.063   4.292 -1.5293 -1.4363 -1.2046
18844SOL    HW256478   2.607   1.936   4.206  2.6555  0.3697 -1.2627
18845SOL     OW56479   4.867   5.174   2.544 -0.0327  0.3287  0.6633
18845SOL    HW156480   4.809   5.222   2.610  0.3689  0.7741  0.7016
18845SOL    HW256481   4.923   5.107   2.592  1.0365  1.4006  0.9383
18846SOL     OW56482   6.335   7.253   2.780  0.1837 -0.0991  0.2861
18846SOL    HW156483   6.323   7.159   2.813 -0.5747  0.3533  1.3118
18846SOL    HW256484   6.275   7.314   2.830  2.0310  1.2266  0.9502
18848SOL     OW56485   3.222   3.464   1.986 -0.3327 -0.0927  0.5276
18848SOL    HW156486   3.192   3.533   1.920 -0.7786 -0.2416  0.5689
18848SOL    HW256487   3.301   3.415   1.950 -1.1401 -0.8018 -0.3064
18849SOL     OW56488   0.573   1.186   7.818  0.7098  0.1501 -0.0069
18849SOL    HW156489   0.664   1.190   7.776  1.3196  0.0390  1.2852
18849SOL    HW256490   0.572   1.245   7.899  0.6462 -2.4056  1.8910
18850SOL     OW56491   8.956   5.058   7.888  0.2072  0.2365 -0.2577
18850SOL    HW156492   8.857   5.058   7.904  0.6016  1.6770  2.4419
18850SOL    HW256493   8.985   4.966   7.861 -1.7808 -0.2971 -0.7094
18851SOL     OW56494   0.460   6.294   2.434 -0.2174 -0.5050 -0.3463
18851SOL    HW156495   0.530   6.349   2.390  0.4644 -1.2710 -0.2186
18851SOL    HW256496   0.416   6.235   2.366 -1.0765  0.3103 -0.5200
18852SOL     OW56497   1.919   5.187   1.908  0.2919 -0.6120  1.0084
18852SOL    HW156498   1.953   5.277   1.880 -0.2386 -0.1362  1.8493
18852SOL    HW256499   1.975   5.153   1.984  0.5133 -1.0023  0.6664
18853SOL     OW56500   4.633   2.628   7.699  0.3146 -0.0821 -0.2283
18853SOL    HW156501   4.570   2.563   7.743  2.7306 -1.6874  1.0264
18853SOL    HW256502   4.715   2.579   7.670 -0.0165  1.5012 -4.1235
18854SOL     OW56503   7.534   1.709   2.304  0.2977 -0.1087  0.7856
18854SOL    HW156504   7.569   1.779   2.367 -0.1728  1.6654 -0.8558
18854SOL    HW256505   7.434   1.705   2.312  0.0908  1.1781 -0.8492
18855SOL     OW56506   4.673   4.473   6.942 -0.4124  0.0774  0.0948
18855SOL    HW156507   4.586   4.507   6.978 -1.6244 -1.8363 -0.9099
18855SOL    HW256508   4.667   4.465   6.843  1.8878  2.5055 -0.2851
18856SOL     OW56509   4.658   0.158   2.306 -0.0357  0.1580 -0.0351
18856SOL    HW156510   4.707   0.076   2.335  0.0619 -0.1641 -1.1033
18856SOL    HW256511   4.634   0.151   2.209  0.9250  1.8544 -0.4200
18857SOL     OW56512   6.967   4.183   0.089 -0.1124 -0.2214  0.5254
18857SOL    HW156513   6.959   4.150   0.183  0.2204 -2.4651 -0.2278
18857SOL    HW256514   7.033   4.127   0.039  0.7068  1.7778 -0.6979
18858SOL     OW56515   9.462   1.136   5.250  0.1326 -0.5905  0.0243
18858SOL    HW156516   9.550   1.150   5.204  0.0050 -0.1944 -0.0958
18858SOL    HW256517   9.420   1.052   5.215 -0.7478  0.5839 -1.8004
18859SOL     OW56518   4.992   3.073   5.639 -0.0600  0.2811  0.4578
18859SOL    HW156519   5.060   3.144   5.657  1.0128 -0.7556  0.5758
18859SOL    HW256520   4.928   3.067   5.716 -0.8802  1.9017 -0.0673
18860SOL     OW56521   2.792   6.243   6.363  0.3771 -0.3926 -0.2113
18860SOL    HW156522   2.827   6.250   6.456 -3.0334  0.1997  1.1061
18860SOL    HW256523   2.809   6.329   6.314  0.5018 -0.0101  0.5015
18862SOL     OW56524   8.581   8.884   3.900  0.1518  0.3536  0.3933
18862SOL    HW156525   8.678   8.904   3.881  0.2199 -0.5703 -0.2695
18862SOL    HW256526   8.563   8.788   3.880 -0.3106 -0.1074  2.9040
18864SOL     OW56527   9.458   9.327   1.173 -0.0870  0.4746  0.1786
18864SOL    HW156528   9.454   9.232   1.142 -0.7809  0.8935 -1.0414
18864SOL    HW256529   9.469   9.329   1.273  0.0584 -0.8826  0.1951
18865SOL     OW56530   3.308   9.147   1.442 -0.1273  0.4815  0.0435
18865SOL    HW156531   3.318   9.147   1.343  1.2814 -0.2764  0.1582
18865SOL    HW256532   3.242   9.216   1.470  0.8360  1.9821 -1.2996
18867SOL     OW56533   7.400   6.865   1.308  0.2669 -0.3970 -0.3656
18867SOL    HW156534   7.498   6.852   1.290  0.3579 -0.3227  0.0648
18867SOL    HW256535   7.348   6.794   1.260  0.4908 -0.0921 -1.0585
18868SOL     OW56536   8.289   2.402   7.229 -0.3747 -0.1987  0.6514
18868SOL    HW156537   8.261   2.357   7.144  0.1254 -1.4304  1.1264
18868SOL    HW256538   8.365   2.464   7.211 -0.7636  0.1122  0.0690
18871SOL     OW56539   9.953   5.886   6.359  0.3747  0.4116  0.0975
18871SOL    HW156540   9.896   5.880   6.441 -0.3470  1.1065 -0.3584
18871SOL    HW256541  10.047   5.859   6.382  0.2096  0.7546  1.1861
18872SOL     OW56542   2.588   0.108   3.186 -0.3162  0.6296 -0.0319
18872SOL    HW156543   2.552   0.201   3.184  0.2411  0.8320 -1.3161
18872SOL    HW256544   2.595   0.077   3.280 -2.1722  1.2372  0.3190
18874SOL     OW56545   2.735   9.611   6.965 -0.0997  0.4604 -0.3286
18874SOL    HW156546   2.771   9.552   6.892 -0.7598 -1.2611  0.6993
18874SOL    HW256547   2.769   9.578   7.053 -0.4198  1.6922  0.2598
18875SOL     OW56548   8.336   5.591   2.542 -0.2164  0.0929  0.1056
18875SOL    HW156549   8.375   5.683   2.551 -1.1540  0.3417  1.9073
18875SOL    HW256550   8.237   5.596   2.553 -0.4210 -0.9649 -1.1797
18876SOL     OW56551   8.807   1.718   1.405  0.2398 -0.7497 -0.3512
18876SOL    HW156552   8.819   1.815   1.425  0.0651 -0.8089  0.0444
18876SOL    HW256553   8.804   1.705   1.306  3.6735 -0.7815 -0.4999
18877SOL     OW56554   2.007   3.842   0.379 -0.4225  0.0912 -0.5244
18877SOL    HW156555   1.939   3.814   0.446 -1.7318  0.5361 -1.6490
18877SOL    HW256556   2.061   3.763   0.351  0.7938  0.0721  1.7634
18878SOL     OW56557   4.897   9.068   5.908  0.2668 -0.3062  0.1072
18878SOL    HW156558   4.868   9.043   5.816 -1.1784 -1.0089  0.7304
18878SOL    HW256559   4.995   9.085   5.909  1.0208 -4.0539 -0.7946
18879SOL     OW56560   3.304   9.795   2.980 -0.1808  0.2365 -0.1057
18879SOL    HW156561   3.382   9.858   2.979 -1.4255  1.8386  0.1814
18879SOL    HW256562   3.325   9.714   2.925  1.6287  0.7012 -0.1215
18880SOL     OW56563   2.674   4.537   7.510  0.5994 -0.2687 -0.0402
18880SOL    HW156564   2.611   4.460   7.507  0.1449  0.0806  0.4435
18880SOL    HW256565   2.767   4.504   7.495  0.2308 -0.6945 -1.4898
18881SOL     OW56566   7.351   0.345   0.987  0.2470 -0.1493 -0.3533
18881SOL    HW156567   7.304   0.366   0.901 -0.4942  1.0862  0.3269
18881SOL    HW256568   7.448   0.331   0.970  0.2382  0.8441 -1.2889
18883SOL     OW56569   0.869   4.925   6.201 -0.2580 -0.6365  0.4589
18883SOL    HW156570   0.839   5.001   6.142 -0.9219 -0.6117  0.8240
18883SOL    HW256571   0.837   4.839   6.162  2.9642 -1.0007 -1.5231
18884SOL     OW56572   6.278   6.228   1.302 -0.3681 -0.1525 -0.3073
18884SOL    HW156573   6.233   6.246   1.215 -0.7309  1.3247  0.1714
18884SOL    HW256574   6.218   6.255   1.377  0.1438 -0.9353  0.3900
18885SOL     OW56575   7.743   8.372   2.118  0.4669 -0.2531  0.7904
18885SOL    HW156576   7.656   8.387   2.071  1.8701  0.1093 -1.8183
18885SOL    HW256577   7.777   8.280   2.096  2.4981  0.9386 -1.2728
18886SOL     OW56578   3.650   3.144   2.845 -0.9029 -0.3553 -0.2870
18886SOL    HW156579   3.615   3.146   2.752 -0.0688  1.6003 -0.5847
18886SOL    HW256580   3.708   3.063   2.857  0.1395  0.1251 -1.9029
18887SOL     OW56581   4.551   7.693   2.396 -0.1372 -0.4328 -0.0614
18887SOL    HW156582   4.604   7.619   2.438  0.8104  0.0598 -0.3618
18887SOL    HW256583   4.539   7.674   2.298 -1.2442 -0.9528  0.1681
18888SOL     OW56584   4.669   6.060   7.430  0.1015  0.0689  0.0235
18888SOL    HW156585   4.743   6.073   7.495 -0.0727  0.6053  0.1158
18888SOL    HW256586   4.592   6.120   7.453 -1.0424 -1.6808  0.9224
18889SOL     OW56587   4.834   0.758   3.965 -0.5845  0.1414 -0.4667
18889SOL    HW156588   4.930   0.735   3.948 -0.6270  1.0238 -2.0352
18889SOL    HW256589   4.829   0.834   4.029 -0.3420 -1.7212  1.8298
18891SOL     OW56590   2.547   3.024   6.820  0.1306  0.0620 -1.0988
18891SOL    HW156591   2.478   3.017   6.747 -0.2641 -0.2611 -0.6947
18891SOL    HW256592   2.610   3.098   6.798 -0.6006  0.6432 -1.2571
18892SOL     OW56593   9.423   1.898   2.589  0.3070 -0.0138  0.2703
18892SOL    HW156594   9.513   1.927   2.621  0.6055 -1.9393  1.2173
18892SOL    HW256595   9.356   1.970   2.609  1.5662  1.3261 -0.2189
18893SOL     OW56596   8.470   3.936   6.158  0.1755  0.0320  0.2166
18893SOL    HW156597   8.488   3.842   6.188  0.8779  0.0617 -0.1051
18893SOL    HW256598   8.376   3.961   6.183  1.1352  0.5407  3.6520
18894SOL     OW56599   2.449   0.805   3.126  0.0092  0.1179 -0.0757
18894SOL    HW156600   2.462   0.707   3.109  1.2663  0.2894 -0.1499
18894SOL    HW256601   2.458   0.855   3.040 -1.4155  0.2404 -0.1741
18895SOL     OW56602   6.463   3.046   1.096 -0.1876  0.3806 -0.2312
18895SOL    HW156603   6.506   3.044   1.006  1.0241 -1.5391  0.3718
18895SOL    HW256604   6.373   3.089   1.088 -0.8942 -1.4409 -2.7045
18896SOL     OW56605   7.309   8.582   6.086 -0.7859 -0.1009 -0.2639
18896SOL    HW156606   7.392   8.631   6.113 -0.6587 -0.4199 -0.0714
18896SOL    HW256607   7.324   8.483   6.096 -0.9682 -0.1898 -0.8506
18897SOL     OW56608   3.804   6.448   3.106 -0.3779  0.3258  0.4274
18897SOL    HW156609   3.753   6.513   3.050 -0.2230 -1.1801 -1.4833
18897SOL    HW256610   3.891   6.488   3.133 -0.6130  1.1898 -0.0985
18898SOL     OW56611   1.565   9.639   7.717 -0.3543  0.7195  0.0788
18898SOL    HW156612   1.528   9.685   7.636  0.2538 -1.0602 -1.2412
18898SOL    HW256613   1.660   9.667   7.731 -0.1302  0.2408 -0.4507
18899SOL     OW56614   2.617   4.484   7.817  0.4768  0.4086  0.5850
18899SOL    HW156615   2.614   4.562   7.756  3.1298  0.8471  0.9895
18899SOL    HW256616   2.528   4.475   7.863  0.0129  2.9132  0.2452
18900SOL     OW56617   9.273   0.444   1.560 -0.1178 -0.0078  0.1414
18900SOL    HW156618   9.258   0.436   1.658 -1.4532  0.2625 -0.0358
18900SOL    HW256619   9.205   0.506   1.520  0.7726  0.3459 -0.8606
18902SOL     OW56620   8.759   0.436   0.233 -0.4794 -0.0138  0.1204
18902SOL    HW156621   8.812   0.520   0.243 -2.4603  1.4346 -1.1820
18902SOL    HW256622   8.817   0.365   0.194  0.8999  1.0796  0.1371
18903SOL     OW56623   1.427   7.872   6.769 -0.1065 -0.6252 -0.4315
18903SOL    HW156624   1.337   7.883   6.728  0.1455 -0.8459 -1.0406
18903SOL    HW256625   1.482   7.954   6.751 -0.3782 -0.2486  0.4299
18904SOL     OW56626   3.557   8.339   3.163 -0.4229  0.0238 -0.3389
18904SOL    HW156627   3.475   8.319   3.110  0.1209 -1.7230 -0.5456
18904SOL    HW256628   3.636   8.342   3.103 -0.2631  1.3475 -0.0852
18905SOL     OW56629   1.180   2.164   7.845  0.2032 -0.4952  0.2266
18905SOL    HW156630   1.191   2.133   7.750 -0.9509 -3.2827  0.9733
18905SOL    HW256631   1.218   2.095   7.907  0.1572  0.9101  1.8407
18906SOL     OW56632   7.750   5.514   2.341  0.0293 -0.7151 -0.1584
18906SOL    HW156633   7.697   5.449   2.395  0.9771 -0.4543  1.0899
18906SOL    HW256634   7.797   5.465   2.267 -1.6757 -0.9911 -1.0911
18909SOL     OW56635   3.995   0.300   6.405  0.2912 -0.0999  0.5946
18909SOL    HW156636   3.941   0.298   6.321  1.4761  0.1602 -0.1779
18909SOL    HW256637   4.040   0.389   6.414  2.3381 -1.0610  0.1063
18910SOL     OW56638   9.352   1.703   3.725 -0.1857 -0.4748 -0.2417
18910SOL    HW156639   9.334   1.724   3.629 -0.0673  0.0264 -0.1535
18910SOL    HW256640   9.391   1.611   3.732 -0.8200 -0.7671 -0.6092
18911SOL     OW56641   1.994   0.504   4.773  0.0358 -0.3977 -0.3661
18911SOL    HW156642   2.004   0.574   4.701  1.4215 -0.0227  0.1570
18911SOL    HW256643   2.065   0.519   4.842 -2.3273  0.2805  1.9573
18912SOL     OW56644   9.133   2.354   6.203  0.7168  0.9763 -0.9044
18912SOL    HW156645   9.084   2.279   6.248  1.6700  0.9645  0.1394
18912SOL    HW256646   9.186   2.318   6.126  1.7866  0.4277  0.0654
18913SOL     OW56647   2.610   8.042   2.684 -0.2583  0.1752  0.2004
18913SOL    HW156648   2.597   7.947   2.712 -2.7778  0.1356 -0.9254
18913SOL    HW256649   2.703   8.054   2.650  0.8704 -1.2602  2.6484
18914SOL     OW56650   8.435   1.365   1.621 -0.3633 -0.5374 -0.3726
18914SOL    HW156651   8.497   1.295   1.587 -2.1577 -1.9273 -0.8141
18914SOL    HW256652   8.421   1.435   1.551  0.2900 -0.4854 -0.4543
18915SOL     OW56653   0.027   7.610   7.314 -0.2730 -0.0671 -0.5460
18915SOL    HW156654  -0.002   7.522   7.277  3.3306 -0.4952 -2.6075
18915SOL    HW256655   0.087   7.656   7.248  2.0897  1.5875  2.6392
18916SOL     OW56656   3.721   7.031   5.700  0.6119 -0.0298  0.1624
18916SOL    HW156657   3.659   7.091   5.651  0.1065  1.2019  2.2374
18916SOL    HW256658   3.788   7.086   5.750  0.9637 -1.2285  1.0366
18917SOL     OW56659   1.249   5.744   0.748  0.0288 -0.5037 -0.5361
18917SOL    HW156660   1.191   5.797   0.686 -0.9172 -0.5312  0.3137
18917SOL    HW256661   1.221   5.648   0.746 -0.8747 -0.2756  0.9219
18918SOL     OW56662   8.497   9.425   7.350 -0.4402 -0.3061  0.0158
18918SOL    HW156663   8.563   9.383   7.288 -1.2342  0.0917 -1.1143
18918SOL    HW256664   8.534   9.510   7.387  1.5898 -2.4276  3.0971
18919SOL     OW56665   2.560   7.390   2.082  0.2717 -0.4222 -0.3288
18919SOL    HW156666   2.595   7.403   1.989 -0.4722  0.5192 -0.4912
18919SOL    HW256667   2.630   7.345   2.138  0.7874 -0.8414 -1.2961
18921SOL     OW56668   4.130   2.169   0.625 -0.1969 -0.2043  0.3758
18921SOL    HW156669   4.215   2.205   0.665 -1.1085  1.8565  0.5070
18921SOL    HW256670   4.142   2.072   0.604  2.0152 -0.0691  0.8844
18922SOL     OW56671   6.863   1.375   1.688 -0.1431  0.1037 -0.8613
18922SOL    HW156672   6.878   1.292   1.633  1.3529 -0.8774  0.9736
18922SOL    HW256673   6.780   1.364   1.742  1.3290 -1.2553  1.2028
18924SOL     OW56674   2.580   5.785   3.936 -0.2848 -0.4373  0.1180
18924SOL    HW156675   2.525   5.860   3.899 -1.2277 -1.0894  0.1843
18924SOL    HW256676   2.538   5.698   3.911  1.2762 -0.9665 -0.6977
18925SOL     OW56677   1.411   1.553   2.439  0.0592 -0.5614  0.1028
18925SOL    HW156678   1.448   1.640   2.407  2.3472 -1.0611  1.3079
18925SOL    HW256679   1.317   1.543   2.406 -0.0936  2.1563 -0.3848
18926SOL     OW56680   7.367   2.434   1.185 -0.1815 -0.5653 -0.4875
18926SOL    HW156681   7.434   2.381   1.237 -0.1572 -1.1716 -1.1361
18926SOL    HW256682   7.400   2.527   1.173 -1.2431  0.3099  2.6673
18927SOL     OW56683   8.019   0.326   2.585 -0.3272  0.2245  0.1041
18927SOL    HW156684   7.977   0.252   2.532 -1.1463  0.5007  0.3575
18927SOL    HW256685   8.084   0.288   2.650 -1.5811 -0.3760  1.0301
18928SOL     OW56686   0.926   3.089   5.735  0.3065  0.2246 -0.2036
18928SOL    HW156687   0.916   3.072   5.833 -0.0983  1.8401  0.0592
18928SOL    HW256688   0.997   3.158   5.721 -0.0462  0.4281 -1.0101
18929SOL     OW56689   1.763   1.656   0.528 -0.0336  0.1398  0.4603
18929SOL    HW156690   1.730   1.723   0.595 -0.4539 -1.0003  1.4141
18929SOL    HW256691   1.774   1.567   0.572 -1.3508 -0.9006 -1.2147
18930SOL     OW56692   0.960   8.389   4.340  0.0039  0.1128 -0.0769
18930SOL    HW156693   1.014   8.406   4.258  0.6284 -0.3593  0.2290
18930SOL    HW256694   1.012   8.329   4.402 -0.2342  0.8783  0.8853
18931SOL     OW56695   4.252   8.133   1.063 -0.4799  0.1021 -0.3416
18931SOL    HW156696   4.192   8.208   1.093  1.5437  1.4447  0.4532
18931SOL    HW256697   4.299   8.095   1.142 -0.3456 -1.0158 -0.9491
18932SOL     OW56698   4.267   0.124   3.578 -0.2320 -1.1815 -0.1586
18932SOL    HW156699   4.326   0.052   3.543  0.5111  0.4722 -2.5192
18932SOL    HW256700   4.230   0.176   3.500 -1.6301  0.2574  1.4355
18933SOL     OW56701   5.800   0.208   3.154 -0.6467 -0.0365 -0.2620
18933SOL    HW156702   5.823   0.205   3.252 -2.0844  1.4550  0.1434
18933SOL    HW256703   5.769   0.300   3.130  0.3346 -0.2055 -2.2882
18934SOL     OW56704   1.955   0.438   7.072 -0.5560 -0.1599 -0.2124
18934SOL    HW156705   2.027   0.442   7.142 -1.1960 -0.9031  0.5044
18934SOL    HW256706   1.989   0.388   6.992 -0.2177 -0.3430  0.0453
18935SOL     OW56707   3.646   1.845   0.871 -0.0907 -0.2745  0.6062
18935SOL    HW156708   3.556   1.852   0.827  0.6778  1.5378 -0.7298
18935SOL    HW256709   3.690   1.760   0.842 -1.2599 -1.0574  1.0811
18936SOL     OW56710   1.279   9.962   2.464  0.3601 -0.0130  0.4514
18936SOL    HW156711   1.271   9.944   2.366 -2.1319 -2.2998  1.0230
18936SOL    HW256712   1.346   9.900   2.504  2.2364  1.6939  0.0528
18938SOL     OW56713   8.897   5.394   2.292  0.7109  0.0426 -0.3536
18938SOL    HW156714   8.976   5.383   2.353  1.9712  2.7963 -1.3893
18938SOL    HW256715   8.905   5.332   2.215  1.1422 -0.6805  0.2667
18939SOL     OW56716   5.416   2.130   0.397 -0.1125 -0.3015  0.1133
18939SOL    HW156717   5.485   2.063   0.370  0.3845 -0.3562  1.4909
18939SOL    HW256718   5.360   2.153   0.317  1.7304  0.0511 -1.1233
18940SOL     OW56719   6.167   0.049   4.696  0.0230 -0.4786 -0.1309
18940SOL    HW156720   6.092   0.113   4.680  0.4284  0.0309 -0.0018
18940SOL    HW256721   6.143  -0.041   4.660 -1.7786 -1.0373  2.3411
18942SOL     OW56722   4.876   5.831   0.024 -0.0622  0.4172 -0.5784
18942SOL    HW156723   4.822   5.798   0.102  0.6068 -1.0179 -0.6959
18942SOL    HW256724   4.954   5.884   0.056 -0.7359  1.2758 -0.3485
18943SOL     OW56725   3.543   9.552   2.419 -0.1364 -0.8106 -0.2484
18943SOL    HW156726   3.453   9.528   2.456 -0.3396 -2.1322 -1.5550
18943SOL    HW256727   3.608   9.480   2.443  0.1735 -0.7137 -0.8129
18944SOL     OW56728   0.232   9.526   7.153  0.0096 -0.1346 -0.4787
18944SOL    HW156729   0.177   9.443   7.147 -0.2079  0.0171 -0.5921
18944SOL    HW256730   0.297   9.528   7.077  0.5610 -0.5921 -0.0216
18945SOL     OW56731   8.034   5.599   2.336  0.3116 -0.0645 -0.0406
18945SOL    HW156732   8.039   5.625   2.433  1.5368  0.1765 -0.1505
18945SOL    HW256733   7.939   5.599   2.306 -0.3409 -2.7543  1.8493
18946SOL     OW56734   9.641   8.122   0.070  0.0122  0.2946  0.6152
18946SOL    HW156735   9.672   8.213   0.044  0.0639  0.3530  0.8725
18946SOL    HW256736   9.553   8.129   0.116  0.4112  0.2983  1.3822
18947SOL     OW56737   9.746   7.179   5.863  0.2543  0.1199  0.4329
18947SOL    HW156738   9.822   7.223   5.815  0.5408  0.3653  1.1082
18947SOL    HW256739   9.705   7.110   5.804  0.3364  0.7157 -0.3295
18949SOL     OW56740   4.674   8.172   2.838 -0.2708  0.0356 -0.2406
18949SOL    HW156741   4.673   8.089   2.893 -0.4313  0.3768  0.2751
18949SOL    HW256742   4.581   8.193   2.807 -0.0259 -0.7552 -1.5603
18950SOL     OW56743   0.703   4.401   1.743 -0.1566 -0.2496 -0.3878
18950SOL    HW156744   0.686   4.370   1.837  0.4707  0.7417  0.0704
18950SOL    HW256745   0.768   4.477   1.745  0.0595 -0.3963 -1.6559
18951SOL     OW56746   8.749   8.375   6.565  0.1072 -0.2202  0.3261
18951SOL    HW156747   8.740   8.333   6.474  1.5463 -0.6943  0.3901
18951SOL    HW256748   8.763   8.473   6.554 -0.8666 -0.1039  0.0828
18952SOL     OW56749   3.369   4.910   1.340  0.3541  0.4365 -0.2486
18952SOL    HW156750   3.415   4.950   1.419  0.4779  0.7043 -0.4551
18952SOL    HW256751   3.290   4.966   1.315 -1.1541 -0.9994  1.2086
18953SOL     OW56752   3.030   9.298   6.026  0.1900  0.1961  0.1318
18953SOL    HW156753   3.026   9.291   5.927 -1.7611 -0.6241  0.2332
18953SOL    HW256754   3.074   9.215   6.063 -0.7728 -0.3638  0.0401
18954SOL     OW56755   2.184   7.268   1.411  0.0821 -0.3742 -0.1202
18954SOL    HW156756   2.207   7.365   1.424 -1.8374  0.0220  0.5515
18954SOL    HW256757   2.252   7.225   1.351  0.9649  1.3741 -0.4128
18955SOL     OW56758   9.145   5.862   4.065 -0.4973  0.4667 -0.3046
18955SOL    HW156759   9.123   5.879   4.161 -0.8239  0.4958 -0.3865
18955SOL    HW256760   9.202   5.936   4.031  0.9525 -0.3285  0.3127
18957SOL     OW56761   4.759   7.728   1.492 -0.0484  0.1724  1.0880
18957SOL    HW156762   4.785   7.768   1.404 -0.0112  2.2222  1.9955
18957SOL    HW256763   4.659   7.728   1.500 -0.0415  0.2567  1.1704
18958SOL     OW56764   1.315   6.208   5.025  0.2296 -0.6378 -0.1685
18958SOL    HW156765   1.414   6.204   5.015  0.1908  1.3034 -1.5648
18958SOL    HW256766   1.271   6.201   4.936 -0.7328  2.0574  0.0379
18960SOL     OW56767   0.955   9.599   2.024 -0.0886  0.1807  0.7387
18960SOL    HW156768   0.863   9.636   2.041  0.1675  1.7535 -1.1534
18960SOL    HW256769   0.948   9.511   1.978 -0.6690  0.9966 -0.7807
18961SOL     OW56770   9.620   8.575   3.748 -0.5614  0.5397 -0.1702
18961SOL    HW156771   9.580   8.623   3.671 -1.2142  1.0633  0.4961
18961SOL    HW256772   9.647   8.483   3.719 -2.1763  0.2030 -0.6239
18962SOL     OW56773   8.104   0.460   1.874  0.2593  0.4746 -0.4092
18962SOL    HW156774   8.023   0.518   1.871 -0.7807 -0.9437 -0.4802
18962SOL    HW256775   8.173   0.502   1.931 -1.6993  0.2729  2.2008
18963SOL     OW56776   4.806   5.380   7.657  0.8604 -0.1377 -0.2497
18963SOL    HW156777   4.802   5.432   7.742  0.1166  0.0420 -0.3892
18963SOL    HW256778   4.848   5.291   7.674  3.0774  0.8716 -0.2053
18966SOL     OW56779   8.275   0.968   6.287 -0.0421  0.3070 -0.2716
18966SOL    HW156780   8.325   1.016   6.360 -0.4397  1.2076 -0.5884
18966SOL    HW256781   8.178   0.965   6.310  0.4003 -3.5639  1.5351
18967SOL     OW56782   6.579   9.704   7.208 -0.0585  0.9950 -0.0966
18967SOL    HW156783   6.529   9.669   7.287 -1.3301  1.3707 -0.7196
18967SOL    HW256784   6.570   9.640   7.131  1.9935  0.1415  0.3324
18968SOL     OW56785   3.824   7.560   6.713 -0.3172 -0.1993  0.1352
18968SOL    HW156786   3.792   7.556   6.807 -0.3239 -0.1911  0.1337
18968SOL    HW256787   3.753   7.526   6.651 -0.9933  1.4366 -0.0274
18970SOL     OW56788   3.577   3.038   3.668 -0.2235 -0.2063  0.0446
18970SOL    HW156789   3.537   2.991   3.746 -0.4808  1.7539  1.1222
18970SOL    HW256790   3.525   3.122   3.649  0.5530 -0.0507 -1.4718
18971SOL     OW56791   8.108   0.986   0.858 -0.3771 -0.0138 -0.4233
18971SOL    HW156792   8.189   0.939   0.822 -0.1622 -1.6585  2.0715
18971SOL    HW256793   8.045   1.007   0.784  1.2459 -0.8847 -2.0789
18972SOL     OW56794   2.625   6.320   1.395 -0.2665  0.1693 -0.4425
18972SOL    HW156795   2.545   6.288   1.446  0.1314 -0.8095 -0.4352
18972SOL    HW256796   2.688   6.244   1.380  0.6210  0.9216 -0.5373
18973SOL     OW56797   1.767   5.937   0.986  0.2567 -0.1469 -0.1982
18973SOL    HW156798   1.751   5.839   0.998  0.3044 -0.4147 -2.1568
18973SOL    HW256799   1.732   5.986   1.066  0.1823 -1.7440  0.7810
18974SOL     OW56800   8.731   5.554   2.069  0.0579  0.2747  0.4592
18974SOL    HW156801   8.775   5.572   2.157 -0.1864 -1.8498  1.0551
18974SOL    HW256802   8.744   5.632   2.008  1.4135  1.2088  1.9080
18975SOL     OW56803   0.409   0.940   6.142  0.1773  0.1866 -0.4101
18975SOL    HW156804   0.443   0.846   6.145 -0.2986  0.0401  0.2037
18975SOL    HW256805   0.377   0.960   6.049  2.4007  0.4872 -1.1637
18976SOL     OW56806   9.559   8.731   6.920 -0.1980  0.4625 -0.1027
18976SOL    HW156807   9.640   8.770   6.875 -0.2493  0.1906 -0.4376
18976SOL    HW256808   9.507   8.678   6.853  0.1916 -0.6685  0.4782
18977SOL     OW56809   7.402   2.371   0.196 -0.0698  0.1665 -0.1748
18977SOL    HW156810   7.440   2.279   0.182 -0.5692 -0.1102  0.2397
18977SOL    HW256811   7.372   2.380   0.291 -1.0541  0.3670 -0.5028
18978SOL     OW56812   4.023   5.198   6.500  0.1677  0.2587 -0.3396
18978SOL    HW156813   3.935   5.179   6.542  0.2361 -0.7720 -0.6582
18978SOL    HW256814   4.071   5.268   6.554 -1.2446  1.5470 -0.7153
18979SOL     OW56815   1.214   9.661   3.090  0.1603  0.2826  0.2839
18979SOL    HW156816   1.293   9.621   3.045 -0.9172 -1.6592  0.0526
18979SOL    HW256817   1.148   9.692   3.021 -0.2113 -0.0237  0.5014
18980SOL     OW56818   0.273   3.847   4.074 -0.2751 -0.1979 -0.1434
18980SOL    HW156819   0.319   3.778   4.018  0.7493  0.6938 -0.4058
18980SOL    HW256820   0.211   3.801   4.138 -2.0932 -1.1835 -2.5266
18982SOL     OW56821   1.108   2.902   6.698 -0.5581 -0.5765 -0.4966
18982SOL    HW156822   1.071   2.816   6.665  0.6989 -1.1731 -0.3732
18982SOL    HW256823   1.049   2.977   6.668 -1.4704 -1.4377 -0.8917
18984SOL     OW56824   3.395   6.966   2.498 -0.3151 -0.1841 -0.2934
18984SOL    HW156825   3.336   6.988   2.419  0.9618  1.2518 -0.8729
18984SOL    HW256826   3.429   7.051   2.538  0.9073 -0.9888  0.3790
18985SOL     OW56827   6.055   3.567   2.398  0.3981 -0.0958  0.0632
18985SOL    HW156828   6.034   3.525   2.310 -2.2613 -1.3553  1.2679
18985SOL    HW256829   5.995   3.646   2.413  1.1286  0.3731  0.5516
18986SOL     OW56830   8.523   8.992   7.385 -0.3363 -0.5095 -1.0466
18986SOL    HW156831   8.431   8.970   7.354  0.1526 -0.8201 -2.3134
18986SOL    HW256832   8.549   8.931   7.459 -0.1729 -2.1804 -2.4407
18987SOL     OW56833   7.451   6.527   4.786 -0.0715  0.2102 -0.1932
18987SOL    HW156834   7.391   6.544   4.707 -2.2501 -0.6718  1.2090
18987SOL    HW256835   7.485   6.433   4.782  1.1145  0.6615 -0.9039
18989SOL     OW56836   9.201   0.154   4.553 -0.4420 -0.1625  0.5849
18989SOL    HW156837   9.285   0.177   4.602  0.6329  0.9812 -1.7003
18989SOL    HW256838   9.139   0.232   4.556  0.0747  0.3149 -0.7502
18991SOL     OW56839   5.299   5.251   7.493 -0.1445  0.1133 -0.4600
18991SOL    HW156840   5.301   5.155   7.519  0.0581 -0.0394 -1.0246
18991SOL    HW256841   5.321   5.308   7.572 -2.4959 -0.1783  0.4304
18994SOL     OW56842   8.205   0.896   1.351  0.5698  0.2069  0.1464
18994SOL    HW156843   8.277   0.961   1.375  0.6490 -0.3629  1.5340
18994SOL    HW256844   8.207   0.878   1.253  2.7192 -0.2731  0.2512
18995SOL     OW56845   1.206   0.199   5.877 -0.5944  0.2005  0.1871
18995SOL    HW156846   1.205   0.183   5.779 -1.8368 -0.5998  0.3197
18995SOL    HW256847   1.241   0.291   5.895  0.1248  0.1669 -0.9628
18996SOL     OW56848   9.299   2.787   1.082 -0.7134  0.3340 -0.1154
18996SOL    HW156849   9.354   2.871   1.082 -1.1036  0.5944  0.9435
18996SOL    HW256850   9.345   2.718   1.026  1.8492 -0.2125  2.5369
18997SOL     OW56851   7.270   0.519   2.053  0.4732  0.0910 -0.0765
18997SOL    HW156852   7.364   0.496   2.078  1.2785  0.9764 -2.1149
18997SOL    HW256853   7.271   0.590   1.982 -1.7280 -0.0364 -0.2801
18998SOL     OW56854   3.707   1.944   5.407  0.1906 -0.4388  0.0432
18998SOL    HW156855   3.774   1.946   5.481  0.6119 -1.4177 -0.3093
18998SOL    HW256856   3.736   1.879   5.337 -1.3957 -1.3042  0.1589
18999SOL     OW56857   8.067   6.511   3.173 -0.3559  0.2070  0.4252
18999SOL    HW156858   8.083   6.412   3.167  0.8177  0.4534 -0.6112
18999SOL    HW256859   7.969   6.529   3.167 -0.5035 -0.8231 -0.4063
19000SOL     OW56860   6.913   6.366   2.764 -0.1798 -0.7267 -0.5913
19000SOL    HW156861   6.927   6.267   2.760  0.7875 -0.5846 -0.6751
19000SOL    HW256862   6.958   6.410   2.686  2.8067  0.1728  1.5809
19001SOL     OW56863   1.461   3.261   6.485 -0.5903 -0.0905 -0.0862
19001SOL    HW156864   1.533   3.203   6.446 -1.0668 -2.0181  1.8035
19001SOL    HW256865   1.390   3.203   6.525 -2.7093  1.7852 -0.9977
19002SOL     OW56866   9.980   4.385   4.294 -0.3312 -0.0897 -0.1764
19002SOL    HW156867   9.991   4.484   4.307  0.0089  0.1819 -2.2155
19002SOL    HW256868   9.994   4.363   4.197 -0.7396 -2.1005  0.1960
19003SOL     OW56869   2.240   1.820   6.556  0.1331  0.6190  0.6626
19003SOL    HW156870   2.275   1.851   6.644 -1.1177  0.8111  1.1019
19003SOL    HW256871   2.148   1.782   6.568  0.6502 -0.9794 -0.2672
19004SOL     OW56872   1.234   3.063   1.334 -0.4338  0.1175 -0.4475
19004SOL    HW156873   1.241   3.157   1.367 -1.5969 -0.1471  0.6037
19004SOL    HW256874   1.323   3.032   1.302 -0.4294  2.2434 -2.6610
19005SOL     OW56875   1.139   5.372   2.392 -0.7533  1.0453  0.4568
19005SOL    HW156876   1.238   5.367   2.401 -0.5718  1.8715 -1.0140
19005SOL    HW256877   1.115   5.390   2.297 -2.3899 -1.4146  0.3386
19006SOL     OW56878   3.780   8.710   5.264  0.3903  0.0294  0.2679
19006SOL    HW156879   3.693   8.695   5.217  0.5800  1.0488 -0.4310
19006SOL    HW256880   3.855   8.687   5.203  0.6659  2.9739 -0.5369
19007SOL     OW56881   3.589   7.221   5.544 -0.3891  0.1992 -0.2308
19007SOL    HW156882   3.661   7.278   5.504 -0.0852 -0.4407 -0.6122
19007SOL    HW256883   3.545   7.270   5.619 -1.4485  1.7309 -1.8036
19008SOL     OW56884   3.172   1.738   6.014  0.1448  0.4580 -0.1758
19008SOL    HW156885   3.098   1.671   6.018 -0.2824  0.9395  0.0253
19008SOL    HW256886   3.234   1.723   6.090  1.7250 -1.6380 -1.8255
19009SOL     OW56887   8.608   0.116   0.875 -0.4331 -0.2282 -0.1960
19009SOL    HW156888   8.700   0.129   0.837 -1.2460  0.9290 -1.8470
19009SOL    HW256889   8.579   0.023   0.858 -0.1574 -0.1684 -1.0515
19010SOL     OW56890   7.376   4.394   1.062  0.1038 -0.4175 -0.6218
19010SOL    HW156891   7.439   4.397   0.985  0.3254  1.2713 -0.4031
19010SOL    HW256892   7.376   4.483   1.108  1.2775 -1.9017  2.3596
19011SOL     OW56893   2.812   6.743   1.911  0.1777  0.1450 -0.0291
19011SOL    HW156894   2.844   6.779   1.824 -0.9077  0.7045 -0.2119
19011SOL    HW256895   2.796   6.644   1.902  0.3726  0.1452 -0.3778
19012SOL     OW56896   1.045   4.005   1.415 -0.6079 -0.4673  0.3701
19012SOL    HW156897   0.954   4.040   1.437 -0.3241 -0.3707  1.3891
19012SOL    HW256898   1.112   4.040   1.481  0.3652  0.3673 -1.0180
19013SOL     OW56899   0.883   4.488   5.908 -0.5851  0.1001 -0.0260
19013SOL    HW156900   0.894   4.405   5.854  0.9127 -0.3878  0.9862
19013SOL    HW256901   0.847   4.562   5.851 -2.8470 -1.4878 -0.7244
19015SOL     OW56902   8.961   0.363   2.934 -0.1683 -0.4258 -0.0302
19015SOL    HW156903   8.992   0.271   2.957  0.2642 -0.6005 -1.2966
19015SOL    HW256904   9.038   0.416   2.898  0.0979  1.1008  2.6185
19016SOL     OW56905   1.602   9.471   4.428 -0.4004  0.0700  0.1030
19016SOL    HW156906   1.604   9.554   4.483 -0.5479  1.4318 -1.9047
19016SOL    HW256907   1.579   9.393   4.486 -2.2862  1.7300  1.6471
19017SOL     OW56908   0.533   8.163   3.342 -0.1183  0.4696  0.0891
19017SOL    HW156909   0.621   8.170   3.296 -0.3606 -0.1196 -0.4621
19017SOL    HW256910   0.540   8.207   3.432  0.9800 -0.3055  0.4038
19018SOL     OW56911   1.253   7.169   3.349  0.0989  0.2545 -0.5324
19018SOL    HW156912   1.290   7.145   3.259 -0.1274 -0.2641 -0.4917
19018SOL    HW256913   1.306   7.244   3.388  0.5937  0.0627 -0.8292
19019SOL     OW56914   9.780   6.285   2.984 -0.0190 -0.3277 -0.2996
19019SOL    HW156915   9.720   6.206   2.990  0.2215 -0.5658 -0.9334
19019SOL    HW256916   9.766   6.331   2.896  0.9006 -0.5414 -0.5648
19020SOL     OW56917   7.759   3.082   0.131 -0.2298  0.3362  0.1571
19020SOL    HW156918   7.753   3.182   0.123  2.7523  0.7203  2.0545
19020SOL    HW256919   7.798   3.045   0.047  1.4102  1.0878  0.5701
19022SOL     OW56920   8.805   7.218   2.298  0.1260 -0.3833 -0.2985
19022SOL    HW156921   8.863   7.204   2.378  0.6720  3.6435  0.1029
19022SOL    HW256922   8.859   7.259   2.225 -1.7746  1.8726 -0.4986
19023SOL     OW56923   1.688   0.099   7.618  0.1564  0.4882 -0.4294
19023SOL    HW156924   1.624   0.067   7.688  0.9134  0.0729  0.0745
19023SOL    HW256925   1.638   0.115   7.533 -0.6591  0.3812  0.0167
19024SOL     OW56926   5.171   0.794   3.967 -0.2251 -0.0499  0.1135
19024SOL    HW156927   5.168   0.892   3.945 -0.8818  0.5544  2.6855
19024SOL    HW256928   5.253   0.753   3.926  0.1497  1.6148 -0.8506
19025SOL     OW56929   9.495   9.586   0.137 -0.1941 -0.5647 -0.0253
19025SOL    HW156930   9.468   9.673   0.178  0.5958 -0.5521  0.4661
19025SOL    HW256931   9.417   9.524   0.137 -0.8718  0.2633 -0.7207
19026SOL     OW56932   4.942   8.723   1.330  0.3573  0.5161 -0.1878
19026SOL    HW156933   4.982   8.714   1.421  0.9302 -0.1935 -0.5092
19026SOL    HW256934   4.854   8.675   1.326  1.4436 -1.4550 -0.6892
19028SOL     OW56935   3.106   1.381   0.502  0.3369  0.0777 -0.1896
19028SOL    HW156936   3.054   1.426   0.429 -0.5576  0.5377  0.7245
19028SOL    HW256937   3.185   1.335   0.462 -0.0872  0.4053 -1.4442
19030SOL     OW56938   4.883   8.044   2.175 -0.5190  0.2903 -0.0208
19030SOL    HW156939   4.837   7.957   2.158  1.2026 -0.6636  0.1496
19030SOL    HW256940   4.948   8.063   2.102 -1.0599  1.5527 -0.1787
19031SOL     OW56941   8.157   8.238   2.743  0.1904 -0.2207  0.0252
19031SOL    HW156942   8.063   8.210   2.722  0.4459 -1.7696  0.8668
19031SOL    HW256943   8.220   8.192   2.681  0.2958  2.3610 -1.8834
19032SOL     OW56944   7.514   5.057   2.078 -0.1400 -0.0050 -0.5268
19032SOL    HW156945   7.477   5.035   1.988 -1.3738  0.2053 -0.0672
19032SOL    HW256946   7.524   5.156   2.087 -1.8512  0.1038  0.2874
19034SOL     OW56947   0.210   9.002   5.521 -0.0258  0.4685  0.5914
19034SOL    HW156948   0.273   9.000   5.444 -1.0180  0.8436 -0.2457
19034SOL    HW256949   0.228   9.084   5.576 -1.2063  1.7534 -0.8848
19036SOL     OW56950   5.550   2.095   6.438  0.5551  0.1423 -0.4071
19036SOL    HW156951   5.469   2.083   6.494  0.8982  0.7371  0.2270
19036SOL    HW256952   5.525   2.089   6.341 -0.5176  1.8671 -0.2571
19038SOL     OW56953   3.215   9.104   7.920  0.3245 -0.5111 -0.0337
19038SOL    HW156954   3.219   9.138   7.826  2.1420  0.9233  0.5291
19038SOL    HW256955   3.307   9.089   7.955 -0.3544 -1.9287  1.2272
19039SOL     OW56956   7.308   0.301   6.344  0.2591 -0.1194 -0.4647
19039SOL    HW156957   7.402   0.330   6.325  0.6851 -3.1497 -3.5057
19039SOL    HW256958   7.246   0.341   6.277 -0.4899  0.9787  0.8623
19040SOL     OW56959   3.093   5.507   0.170 -0.0789 -0.6416  0.6938
19040SOL    HW156960   3.108   5.594   0.123 -0.9636 -1.2773 -0.7915
19040SOL    HW256961   3.178   5.455   0.171 -0.0945 -0.6932 -0.3523
19041SOL     OW56962   8.283   2.866   4.037 -0.2163 -0.1870 -0.3934
19041SOL    HW156963   8.303   2.829   4.128 -0.6318 -1.2056 -0.7032
19041SOL    HW256964   8.261   2.790   3.975  0.2676  0.4805 -1.3938
19042SOL     OW56965   4.033   4.167   1.776  0.0156  0.4117  0.2369
19042SOL    HW156966   4.127   4.140   1.755  0.4549  1.7083  0.4878
19042SOL    HW256967   4.019   4.263   1.752 -1.0720  0.4021  0.7662
19043SOL     OW56968   8.061   0.424   0.826  0.1151  0.1237 -0.1745
19043SOL    HW156969   8.143   0.427   0.883  0.8947  0.5626 -1.2889
19043SOL    HW256970   8.075   0.362   0.749 -0.8537 -0.3280  0.0019
19044SOL     OW56971   4.449   5.220   3.610 -0.3030  0.5106  0.0150
19044SOL    HW156972   4.502   5.241   3.692 -0.5106 -1.4907  0.7105
19044SOL    HW256973   4.373   5.284   3.602 -0.8567  0.1431  1.9573
19045SOL     OW56974   3.125   0.634   6.867  0.0928  0.1684  0.3025
19045SOL    HW156975   3.128   0.615   6.769  2.4243 -1.5429  0.6587
19045SOL    HW256976   3.162   0.725   6.884 -2.2010  1.3103 -0.5454
19046SOL     OW56977   3.830   8.868   6.310  0.4080 -0.6877 -0.0697
19046SOL    HW156978   3.868   8.864   6.217 -1.2594  3.4238 -1.0441
19046SOL    HW256979   3.747   8.924   6.310  0.1773 -0.8885  3.8485
19047SOL     OW56980   5.542   0.866   7.295 -0.2287 -0.3849  0.4799
19047SOL    HW156981   5.462   0.808   7.280  0.6083 -1.6141  0.6768
19047SOL    HW256982   5.625   0.815   7.271  0.3531  1.8132 -2.4655
19048SOL     OW56983   6.538   9.701   1.925 -1.5499 -0.2474  0.3872
19048SOL    HW156984   6.439   9.688   1.932 -1.4347 -2.8422 -2.0534
19048SOL    HW256985   6.583   9.653   2.000 -2.0413 -1.0856  0.1586
19050SOL     OW56986   8.237   6.512   0.144  0.0781  0.4565  0.3431
19050SOL    HW156987   8.207   6.425   0.181  0.2604  0.6975  1.0751
19050SOL    HW256988   8.189   6.531   0.059 -0.1216 -0.2508  0.2973
19051SOL     OW56989   6.835   9.060   2.979  0.3765  0.8543 -0.3353
19051SOL    HW156990   6.768   9.088   3.048 -0.7404 -1.7649 -0.2910
19051SOL    HW256991   6.814   9.105   2.892 -1.4857  0.0274 -0.3280
19052SOL     OW56992   0.707   7.658   1.035  0.5299  0.4901 -0.0832
19052SOL    HW156993   0.625   7.634   0.983  1.3343  0.6992 -1.4700
19052SOL    HW256994   0.783   7.671   0.972  1.3300  1.5516  1.0996
19053SOL     OW56995   3.879   9.625   4.219 -0.6973 -0.3980  0.2958
19053SOL    HW156996   3.820   9.554   4.180 -1.6431  0.0778  0.8495
19053SOL    HW256997   3.974   9.607   4.193 -1.1285 -0.9430 -0.9361
19054SOL     OW56998   9.112   2.483   1.918  0.0871  0.2980 -0.4069
19054SOL    HW156999   9.099   2.403   1.859  0.5956 -0.1102  0.0315
19054SOL    HW257000   9.185   2.541   1.880  0.0720  0.2922 -0.4454
19055SOL     OW57001   3.292   3.551   2.251  0.3147  0.2627 -0.0539
19055SOL    HW157002   3.307   3.467   2.304 -2.1502  0.0225  0.3332
19055SOL    HW257003   3.276   3.527   2.155  0.3152  0.3374 -0.0721
19056SOL     OW57004   2.401   6.792   4.254  0.2309  0.0958  0.1190
19056SOL    HW157005   2.358   6.768   4.167  1.3537  1.6544 -0.8959
19056SOL    HW257006   2.424   6.709   4.305 -2.4597 -0.7886 -0.0472
19057SOL     OW57007   3.904   1.470   4.061 -0.3311 -0.2361  0.6376
19057SOL    HW157008   3.863   1.558   4.084  2.5465  0.5155  3.3406
19057SOL    HW257009   3.834   1.400   4.058 -2.3094  1.6602  1.2596
19058SOL     OW57010   1.935   2.106   4.551 -0.0333 -0.8097  0.2409
19058SOL    HW157011   1.898   2.185   4.503 -0.3092 -0.8332  0.4152
19058SOL    HW257012   1.897   2.022   4.514 -1.2503 -0.7692  1.3628
19059SOL     OW57013   3.709   0.044   3.484  0.5905  0.1018  0.1771
19059SOL    HW157014   3.717   0.140   3.512  1.1903 -0.6194  2.6639
19059SOL    HW257015   3.797  -0.002   3.498 -0.5436 -1.5486  2.0941
19060SOL     OW57016   8.828   1.469   7.588  0.0366  0.5793 -0.5667
19060SOL    HW157017   8.732   1.488   7.572 -0.3329  0.3911  1.2435
19060SOL    HW257018   8.883   1.551   7.570 -0.5650  0.9471 -0.7249
19061SOL     OW57019   7.741   3.253   1.126  0.3376 -0.1664  0.2024
19061SOL    HW157020   7.679   3.186   1.084  1.1601 -0.9304  0.2062
19061SOL    HW257021   7.804   3.206   1.187  2.1190  0.3582 -1.1901
19062SOL     OW57022   3.014   5.537   2.734  0.1668  0.1678 -0.8332
19062SOL    HW157023   3.083   5.535   2.806  0.0263 -1.2769 -0.7055
19062SOL    HW257024   3.057   5.530   2.645  0.2154 -0.6635 -0.7562
19063SOL     OW57025   7.573   7.248   6.656 -0.0121 -0.0001  0.1509
19063SOL    HW157026   7.652   7.240   6.717 -0.1490  0.9162  0.4439
19063SOL    HW257027   7.571   7.338   6.614 -0.6584 -0.1716 -0.2009
19064SOL     OW57028   1.563   1.938   4.092 -0.1848 -0.3940  0.0274
19064SOL    HW157029   1.475   1.920   4.134  0.2208 -1.5617  0.3821
19064SOL    HW257030   1.625   1.862   4.109  1.1909  0.8169  0.5782
19065SOL     OW57031   5.155   2.626   0.853 -0.5667 -0.3554 -0.0481
19065SOL    HW157032   5.181   2.642   0.948 -0.7480  2.3331 -0.4240
19065SOL    HW257033   5.228   2.657   0.792 -1.7567  0.8637 -0.8736
19066SOL     OW57034   7.983   4.922   7.041 -0.1375  0.2295  0.1264
19066SOL    HW157035   8.054   4.967   7.094  0.9108 -0.5275 -0.6145
19066SOL    HW257036   7.926   4.991   6.996 -0.2494  0.8498  1.2003
19067SOL     OW57037   3.623   0.846   4.098  0.1758 -0.1718 -0.0371
19067SOL    HW157038   3.598   0.893   4.182  2.1087 -1.2414  1.1753
19067SOL    HW257039   3.553   0.778   4.075 -1.3575  1.5080 -0.4185
19068SOL     OW57040   7.292   6.213   2.878 -0.1383 -0.8627  0.2897
19068SOL    HW157041   7.337   6.125   2.888  2.6792  0.6893  1.7521
19068SOL    HW257042   7.313   6.252   2.788 -0.0394 -0.9423  0.2790
19069SOL     OW57043   1.372   0.261   3.222 -0.2066  0.0992  0.1081
19069SOL    HW157044   1.346   0.286   3.128  0.9261  0.6364 -0.0784
19069SOL    HW257045   1.465   0.295   3.240  0.3186 -1.6751  0.7797
19070SOL     OW57046   8.306   1.102   2.271 -0.4932  0.5127  0.4597
19070SOL    HW157047   8.326   1.195   2.243  1.1258 -0.2615 -1.0760
19070SOL    HW257048   8.284   1.047   2.190 -0.0538 -0.7593  1.1901
19071SOL     OW57049   3.392   0.143   0.696 -0.1858 -0.1710  0.1285
19071SOL    HW157050   3.325   0.156   0.622 -0.0885 -0.0648  0.0584
19071SOL    HW257051   3.344   0.126   0.782 -0.2910 -1.7943 -0.2347
19072SOL     OW57052   9.716   9.335   0.161  0.1466  0.4165 -0.4235
19072SOL    HW157053   9.715   9.375   0.070  2.4200  1.3294 -0.0827
19072SOL    HW257054   9.808   9.304   0.183 -0.9959 -2.6540  0.3812
19073SOL     OW57055   3.714   9.141   1.561  0.1647  0.4989 -0.3728
19073SOL    HW157056   3.747   9.232   1.586 -2.5976  1.9582 -1.8161
19073SOL    HW257057   3.625   9.125   1.603  0.3703 -1.3375 -0.6037
19074SOL     OW57058   4.664   5.509   3.470 -0.1141 -0.3701 -0.2847
19074SOL    HW157059   4.654   5.448   3.391  1.5959 -0.8510 -0.1512
19074SOL    HW257060   4.759   5.541   3.475 -0.0427 -0.8557  1.9326
19075SOL     OW57061   1.953   7.578   7.103 -0.2219  0.5651 -0.5738
19075SOL    HW157062   1.854   7.567   7.087 -0.0035 -1.3489 -0.7791
19075SOL    HW257063   1.968   7.604   7.198 -0.8262 -1.7007  0.1909
19076SOL     OW57064   4.017   3.764   1.956 -0.0421  0.5633 -0.1520
19076SOL    HW157065   3.963   3.700   2.010  1.4069  1.3391  2.2991
19076SOL    HW257066   3.965   3.848   1.942 -0.9393 -0.1457 -1.1452
19077SOL     OW57067   8.618   5.760   6.811  0.1637  0.0573 -0.1026
19077SOL    HW157068   8.699   5.783   6.757  0.3614  0.0485  0.1876
19077SOL    HW257069   8.553   5.835   6.808  1.0022  0.8549  1.2115
19078SOL     OW57070   8.123   0.873   7.696 -0.1028  0.6613 -0.4193
19078SOL    HW157071   8.096   0.793   7.750  1.0746  1.4013  1.3133
19078SOL    HW257072   8.086   0.956   7.737 -0.3762  1.1134 -1.5671
19079SOL     OW57073   2.999   5.183   6.634 -1.0380  0.1052 -0.4832
19079SOL    HW157074   3.085   5.225   6.606  0.0514 -0.8349  1.3403
19079SOL    HW257075   2.977   5.107   6.574 -0.0185 -0.3392 -0.2913
19080SOL     OW57076   9.135   2.408   1.113 -0.4483  0.2604 -0.1674
19080SOL    HW157077   9.125   2.495   1.162  1.9589 -0.2969  1.3751
19080SOL    HW257078   9.096   2.418   1.021 -1.6298  2.4811  0.5353
19081SOL     OW57079   4.279   9.506   1.202 -0.0662 -0.6633  0.0686
19081SOL    HW157080   4.285   9.569   1.280  0.8448 -1.6607  0.8113
19081SOL    HW257081   4.218   9.430   1.225 -0.4284 -0.5491 -0.4935
19082SOL     OW57082   7.367   7.075   5.354  0.5702  0.0305 -0.4886
19082SOL    HW157083   7.462   7.106   5.350  0.9405 -1.0243  0.0504
19082SOL    HW257084   7.356   6.993   5.299 -0.0344  0.1421 -0.5386
19083SOL     OW57085   6.046   0.645   3.433  0.0600  0.2134 -0.2223
19083SOL    HW157086   6.089   0.599   3.511  0.2779  0.1391 -0.3846
19083SOL    HW257087   6.069   0.596   3.349 -0.2643  0.2296 -0.3208
19084SOL     OW57088   3.701   3.646   6.621  0.5646  0.8101  0.0939
19084SOL    HW157089   3.787   3.696   6.622  0.4598  1.0212 -0.6353
19084SOL    HW257090   3.658   3.656   6.531  0.1939  0.0005  0.1753
19085SOL     OW57091   5.150   9.790   1.127  0.7940  0.5474  0.3140
19085SOL    HW157092   5.175   9.783   1.031  1.1904 -0.9461  0.5162
19085SOL    HW257093   5.201   9.723   1.180 -1.8902 -0.9712  1.0818
19087SOL     OW57094   6.427   0.129   7.320 -0.4226 -0.1449  0.0385
19087SOL    HW157095   6.380   0.104   7.405 -0.9970  1.1078  0.1106
19087SOL    HW257096   6.428   0.229   7.311  0.7552 -0.2211 -0.8018
19088SOL     OW57097   8.193   9.673   2.156  0.1188  0.3024 -0.0462
19088SOL    HW157098   8.123   9.745   2.165  0.8235  1.2048 -1.6424
19088SOL    HW257099   8.239   9.660   2.244  1.2282  3.1200 -0.1607
19089SOL     OW57100   4.849   6.072   7.647 -0.1386 -0.4507  0.1215
19089SOL    HW157101   4.762   6.046   7.690 -0.3370 -0.2749 -0.1708
19089SOL    HW257102   4.867   6.168   7.664 -0.3690 -0.3035 -0.4408
19091SOL     OW57103   1.022   7.181   0.706  0.4729  0.4444  0.3986
19091SOL    HW157104   0.981   7.214   0.621 -0.1710  1.0346  0.9313
19091SOL    HW257105   1.018   7.253   0.775  0.8078 -0.1027  0.9930
19093SOL     OW57106   9.584   2.111   3.186  0.1733 -0.2565 -0.5527
19093SOL    HW157107   9.668   2.160   3.166 -0.0099 -0.1809 -1.1646
19093SOL    HW257108   9.513   2.175   3.213 -0.3562 -0.0603 -2.3374
19094SOL     OW57109   1.611   4.778   4.618  0.5178 -0.3657 -0.6594
19094SOL    HW157110   1.542   4.708   4.636  0.2877 -0.1121 -0.5637
19094SOL    HW257111   1.664   4.795   4.701  0.1790  0.0093 -0.5214
19095SOL     OW57112   4.364   1.255   3.550 -0.2891  0.0386  0.3199
19095SOL    HW157113   4.419   1.210   3.621  1.8713  0.5453 -0.9810
19095SOL    HW257114   4.341   1.348   3.580  3.4441  1.4788 -0.8971
19097SOL     OW57115   0.326   0.239   4.874  0.0507 -0.0064 -0.0316
19097SOL    HW157116   0.383   0.309   4.832  1.3727 -0.0798  1.5523
19097SOL    HW257117   0.230   0.267   4.872  0.5192  1.6783  0.2554
19098SOL     OW57118   2.293   8.367   6.157 -0.2776  0.8727  0.9768
19098SOL    HW157119   2.278   8.427   6.079  1.4421 -1.6776 -1.3961
19098SOL    HW257120   2.391   8.366   6.180 -0.2999 -0.8843  1.0490
19099SOL     OW57121   7.517   0.455   2.203 -0.1965  0.0112  0.3187
19099SOL    HW157122   7.557   0.363   2.209 -0.9745 -0.3137  0.6325
19099SOL    HW257123   7.584   0.518   2.166  0.1105 -0.8495 -0.6174
19100SOL     OW57124   9.287   5.068   7.127 -0.0246  0.7411  0.0224
19100SOL    HW157125   9.337   5.136   7.073 -0.4433  0.1290 -1.1618
19100SOL    HW257126   9.201   5.046   7.081  0.1702 -0.6927  0.3293
19101SOL     OW57127   9.512   6.363   3.191 -0.4828  0.4643 -0.4529
19101SOL    HW157128   9.577   6.421   3.240 -0.9295  0.9440 -0.4287
19101SOL    HW257129   9.499   6.398   3.098  1.6645 -1.4017 -1.5294
19102SOL     OW57130   2.892   1.304   2.946 -0.1457  0.1275 -0.0005
19102SOL    HW157131   2.977   1.335   2.904  0.4285  0.6250  1.4977
19102SOL    HW257132   2.825   1.378   2.946 -0.8822 -0.5152 -1.9314
19103SOL     OW57133   2.168   1.284   3.094 -0.4971 -0.1190 -0.0129
19103SOL    HW157134   2.080   1.289   3.142  0.4059  1.6830  1.5081
19103SOL    HW257135   2.211   1.196   3.113 -1.8361 -0.9016 -0.5409
19105SOL     OW57136   4.582   2.409   1.446 -0.5930  0.3347  0.5975
19105SOL    HW157137   4.631   2.350   1.510  0.0868 -0.1292 -0.3430
19105SOL    HW257138   4.611   2.504   1.459  0.8847  0.0123 -0.2383
19106SOL     OW57139   0.149   4.149   4.731 -0.1406 -0.1259  0.0944
19106SOL    HW157140   0.162   4.236   4.777 -1.7895  1.0614 -1.6090
19106SOL    HW257141   0.236   4.115   4.696  0.4342  1.0362  0.4022
19107SOL     OW57142   8.689   2.229   2.675 -0.4008 -0.1680  0.3798
19107SOL    HW157143   8.682   2.262   2.770  0.8752  0.2254  0.3423
19107SOL    HW257144   8.667   2.131   2.672  0.2503 -0.3450  1.1966
19109SOL     OW57145   1.642   4.332   0.320 -0.2791 -0.4289 -0.5590
19109SOL    HW157146   1.568   4.396   0.341  1.5431  1.7968 -0.7059
19109SOL    HW257147   1.640   4.310   0.223  0.2611  0.9928 -0.9076
19112SOL     OW57148   6.432   1.023   2.872 -0.6591  0.2123 -0.1962
19112SOL    HW157149   6.338   1.052   2.890  0.3778  2.4165  2.0772
19112SOL    HW257150   6.437   0.923   2.873 -2.5425  0.0920  2.1453
19113SOL     OW57151   4.962   3.502   7.491  0.2119 -0.3165 -0.1746
19113SOL    HW157152   4.996   3.408   7.479  0.7498 -0.0248 -0.9751
19113SOL    HW257153   5.011   3.563   7.429 -0.8275  0.3381 -0.3594
19114SOL     OW57154   1.189   8.840   0.807 -0.1568  0.0732  0.8109
19114SOL    HW157155   1.114   8.880   0.753 -1.4045 -2.9953  0.1505
19114SOL    HW257156   1.271   8.836   0.750 -0.5456 -0.0404  0.2430
19116SOL     OW57157   8.050   0.819   3.940  0.1268 -0.4597 -0.5332
19116SOL    HW157158   8.127   0.785   3.885 -1.2973 -0.7915 -2.3862
19116SOL    HW257159   7.976   0.752   3.937 -0.3025 -0.0661  1.1001
19117SOL     OW57160   1.778   7.368   5.218  0.6683  0.1372  0.3174
19117SOL    HW157161   1.796   7.436   5.290  0.0663  1.2394 -0.5647
19117SOL    HW257162   1.849   7.373   5.149  0.6517 -0.1772  0.2772
19118SOL     OW57163   4.111   5.415   6.638  0.5843  0.6368  0.0236
19118SOL    HW157164   4.019   5.432   6.672  0.4603 -1.7482  1.0032
19118SOL    HW257165   4.163   5.500   6.639 -1.1700  1.7318  0.8057
19119SOL     OW57166   8.190   8.614   6.993 -0.0436 -0.0612 -0.0887
19119SOL    HW157167   8.277   8.564   6.988  1.4425  2.3587  0.6338
19119SOL    HW257168   8.180   8.670   6.911 -1.4330 -1.0628 -0.6264
19120SOL     OW57169   9.470   2.417   0.786 -0.1661  0.1296  0.1897
19120SOL    HW157170   9.458   2.512   0.814  2.9411  0.9706 -1.0810
19120SOL    HW257171   9.510   2.365   0.861  0.5110  0.4447  0.0513
19121SOL     OW57172   0.403   9.748   1.545 -0.0995  0.8746  0.0361
19121SOL    HW157173   0.445   9.818   1.488  2.0338  0.7975  1.4694
19121SOL    HW257174   0.474   9.693   1.588 -1.7320 -1.7147 -0.4734
19122SOL     OW57175   0.857   9.043   4.670  0.6965  0.3012  0.0853
19122SOL    HW157176   0.771   9.009   4.633  1.6787 -0.6856 -1.3544
19122SOL    HW257177   0.909   9.088   4.598  1.6958  0.2469  0.7573
19123SOL     OW57178   5.759   2.854   5.334 -0.3786 -0.2991  0.8316
19123SOL    HW157179   5.663   2.872   5.314 -1.1158 -3.8185  0.9068
19123SOL    HW257180   5.779   2.757   5.321  3.7300  0.6865 -1.3866
19124SOL     OW57181   1.415   9.931   2.787 -0.2781 -1.0374  0.0707
19124SOL    HW157182   1.362   9.852   2.819 -1.7714  1.8084  5.2442
19124SOL    HW257183   1.352  10.005   2.763  1.2076  0.6967  1.4016
19125SOL     OW57184   1.997   0.749   1.803  0.3372 -0.0116 -0.5463
19125SOL    HW157185   1.972   0.659   1.838  2.3268 -0.1740  0.5095
19125SOL    HW257186   1.932   0.776   1.732 -0.8405 -1.8499 -0.2051
19126SOL     OW57187   6.425   2.982   1.816  0.5253  0.3787 -0.4811
19126SOL    HW157188   6.342   3.013   1.770 -0.3810  1.0623  1.5517
19126SOL    HW257189   6.494   2.960   1.748 -0.7396  1.4303 -2.1591
19127SOL     OW57190   3.109   9.422   0.932  0.4140  0.2192 -0.1517
19127SOL    HW157191   3.206   9.408   0.949  0.6165  3.6332  2.0422
19127SOL    HW257192   3.094   9.440   0.835  1.9759 -0.1959 -0.4815
19130SOL     OW57193   7.139   1.540   2.050 -0.0569 -0.0545 -0.1343
19130SOL    HW157194   7.049   1.517   2.087  0.3620 -0.4334  0.6490
19130SOL    HW257195   7.209   1.484   2.094  0.4094 -0.8202 -1.7838
19131SOL     OW57196   0.180   0.936   0.965  0.5921  0.1387  0.2330
19131SOL    HW157197   0.219   1.017   1.011  1.8288 -0.0071 -0.5327
19131SOL    HW257198   0.081   0.946   0.959  0.8786  2.4256 -1.3730
19132SOL     OW57199   5.288   9.192   4.818  0.4014 -0.1376 -0.2124
19132SOL    HW157200   5.367   9.138   4.790  1.8534  0.7916  1.9527
19132SOL    HW257201   5.286   9.198   4.918 -1.7496  0.8266 -0.2978
19133SOL     OW57202   2.088   8.390   1.827 -0.3388  0.3644  0.0371
19133SOL    HW157203   2.046   8.322   1.887 -0.3789  1.5307  1.3666
19133SOL    HW257204   2.187   8.373   1.822 -0.7873 -1.7499 -2.2638
19134SOL     OW57205   9.374   3.866   6.009 -0.1921 -0.2174 -0.0057
19134SOL    HW157206   9.318   3.783   6.005  1.7820 -1.5648 -0.3407
19134SOL    HW257207   9.455   3.850   6.065 -0.9474  2.2378  1.8895
19135SOL     OW57208   4.047   1.083   5.794 -0.2291  0.7339 -0.2769
19135SOL    HW157209   4.030   0.986   5.810 -1.1088  0.8563 -0.4143
19135SOL    HW257210   4.126   1.094   5.733 -0.4343  0.0807 -0.6643
19138SOL     OW57211   8.834   8.965   5.061 -0.3101  0.3402 -0.3930
19138SOL    HW157212   8.846   8.893   5.129 -1.9368 -0.8394 -1.3275
19138SOL    HW257213   8.817   8.925   4.972  1.3794  1.8836 -1.4501
19139SOL     OW57214   3.761   4.497   5.120 -0.1534  0.5599 -0.1061
19139SOL    HW157215   3.789   4.575   5.064 -2.2704 -0.2618 -2.4094
19139SOL    HW257216   3.661   4.494   5.125 -0.1213 -2.1400 -0.2672
19140SOL     OW57217   1.489   9.010   2.771  0.2659  0.5535 -0.3331
19140SOL    HW157218   1.573   8.962   2.744 -0.9308 -0.7257 -1.8319
19140SOL    HW257219   1.409   8.957   2.742 -1.0872  1.1206  2.1989
19141SOL     OW57220   7.428   7.925   1.842 -0.3246 -0.1125 -0.3298
19141SOL    HW157221   7.363   7.865   1.795 -0.2969  0.2155 -0.7941
19141SOL    HW257222   7.486   7.871   1.902 -1.2672 -0.3667  0.3602
19142SOL     OW57223   8.669   3.397   5.267  0.4504 -0.8043  0.2785
19142SOL    HW157224   8.746   3.394   5.204  0.6595 -3.1165  0.6062
19142SOL    HW257225   8.596   3.453   5.228  1.3049 -0.6561 -1.1496
19144SOL     OW57226   9.417   3.386   5.688 -0.2377 -0.2811  0.2260
19144SOL    HW157227   9.351   3.314   5.708 -0.9385  0.2661 -0.1370
19144SOL    HW257228   9.418   3.406   5.590 -0.0089  0.1731  0.3166
19146SOL     OW57229   4.403   0.020   3.276 -0.5556 -0.3458 -0.0137
19146SOL    HW157230   4.333   0.092   3.275 -1.4167 -1.1378  1.8353
19146SOL    HW257231   4.488   0.056   3.313 -0.0402  0.5353 -1.9708
19147SOL     OW57232   2.511   1.023   3.954  0.6527 -0.2951  0.3109
19147SOL    HW157233   2.581   0.966   3.996  0.9254 -0.5335 -0.4503
19147SOL    HW257234   2.491   1.100   4.013  0.9683 -0.6714  0.9122
19149SOL     OW57235   8.432   5.989   6.816  0.0512  0.0812  0.3318
19149SOL    HW157236   8.498   6.050   6.861  0.5866  0.3377 -0.7856
19149SOL    HW257237   8.343   6.034   6.812  0.2824  0.5209  0.1062
19151SOL     OW57238   4.655   1.256   7.266  0.3234 -0.0435  0.0280
19151SOL    HW157239   4.593   1.252   7.188  0.8588  0.9863 -0.4759
19151SOL    HW257240   4.610   1.219   7.347 -0.7963  0.3218 -0.4167
19152SOL     OW57241   4.007   7.018   2.608  0.1747  0.0184  0.4935
19152SOL    HW157242   4.017   6.976   2.518  1.1536 -0.6275  0.8906
19152SOL    HW257243   4.097   7.032   2.648 -0.2057  1.4709  0.8468
19153SOL     OW57244   2.549   2.944   4.860  0.6944 -0.7390 -0.3273
19153SOL    HW157245   2.617   3.017   4.855  0.9556 -0.9395  0.2982
19153SOL    HW257246   2.570   2.883   4.936  0.8150 -1.8050 -1.1962
19154SOL     OW57247   2.920   6.828   1.666 -0.0491  0.5046 -0.3023
19154SOL    HW157248   2.996   6.763   1.676 -0.6088  0.2041  2.6259
19154SOL    HW257249   2.956   6.920   1.650  0.9779  0.3888  1.1902
19157SOL     OW57250   5.009   7.423   3.314 -0.1001  0.1154 -0.1714
19157SOL    HW157251   4.967   7.512   3.329  0.1619  0.2090  0.0234
19157SOL    HW257252   5.079   7.431   3.243 -0.3768 -0.0302 -0.4630
19159SOL     OW57253   8.054   1.067   5.218 -0.2676  0.3424 -0.2962
19159SOL    HW157254   8.103   1.078   5.131  0.4140 -0.5736 -0.0339
19159SOL    HW257255   8.050   0.970   5.242 -2.8793  0.3387 -0.6742
19160SOL     OW57256   3.113   4.116   1.998 -0.3028  0.1880 -0.1636
19160SOL    HW157257   3.083   4.050   2.068 -0.9756 -1.3184 -1.8296
19160SOL    HW257258   3.039   4.180   1.979 -0.6590 -0.3421 -0.5747
19161SOL     OW57259   9.894   5.764   1.681  0.5592  0.0353  0.3512
19161SOL    HW157260   9.847   5.678   1.695  0.2004  0.3684  1.2311
19161SOL    HW257261   9.984   5.761   1.724  1.6059 -0.8041 -1.8106
19162SOL     OW57262   6.780   9.267   1.221 -0.7490 -0.4285 -0.3077
19162SOL    HW157263   6.705   9.333   1.221 -0.4547 -0.0902  0.0334
19162SOL    HW257264   6.757   9.191   1.281 -0.3920  0.1809  0.6322
19163SOL     OW57265   9.120   1.589   2.979 -0.4928  0.1998  0.2488
19163SOL    HW157266   9.136   1.499   2.939 -1.0132  0.2695 -0.1225
19163SOL    HW257267   9.121   1.658   2.907 -1.4156  0.3316  0.3525
19165SOL     OW57268   6.181   9.825   6.504 -0.0503 -0.0180  0.0225
19165SOL    HW157269   6.187   9.922   6.480 -2.8470  0.2470  0.2781
19165SOL    HW257270   6.243   9.806   6.581 -1.6825  2.2390  1.9736
19166SOL     OW57271   1.057   4.090   5.240  0.0169 -0.1777 -0.5049
19166SOL    HW157272   0.972   4.121   5.283  1.1450  0.9126  0.9807
19166SOL    HW257273   1.126   4.162   5.245  0.5157 -0.4122 -3.2448
19167SOL     OW57274   2.228   5.892   1.415 -0.0450  0.2823 -0.3813
19167SOL    HW157275   2.193   5.982   1.440 -1.3493 -0.2833 -0.1484
19167SOL    HW257276   2.270   5.849   1.496 -0.1767  0.3302 -0.2871
19168SOL     OW57277   6.285   2.556   1.611  0.4883 -0.1691  0.8312
19168SOL    HW157278   6.310   2.617   1.535 -0.3718 -0.6342  0.1773
19168SOL    HW257279   6.288   2.461   1.581 -0.4012 -0.3276  1.2309
19169SOL     OW57280   0.744   2.738   4.984  0.0800 -0.3997 -0.2019
19169SOL    HW157281   0.826   2.686   4.964 -0.1147 -1.6353  2.0987
19169SOL    HW257282   0.764   2.836   4.976  0.7698 -0.7271 -3.2788
19170SOL     OW57283   8.239   7.202   3.386 -0.6237  0.1885 -0.4711
19170SOL    HW157284   8.221   7.110   3.350  1.6846 -1.0879  1.4691
19170SOL    HW257285   8.153   7.246   3.411 -1.6636 -2.0338 -0.0237
19171SOL     OW57286   9.390   5.326   5.955 -0.4326  0.5491 -0.1813
19171SOL    HW157287   9.302   5.300   5.995 -0.9644 -0.3876 -1.8910
19171SOL    HW257288   9.464   5.304   6.020 -1.2638 -0.9173  0.2961
19172SOL     OW57289   0.674   0.140   6.385 -0.3206 -0.0004 -0.1940
19172SOL    HW157290   0.752   0.106   6.334 -0.2662  0.9552 -0.7584
19172SOL    HW257291   0.680   0.240   6.393 -0.2808 -0.1341  1.7507
19173SOL     OW57292   7.595   6.562   6.794 -0.2023  0.0720  0.0511
19173SOL    HW157293   7.555   6.627   6.859 -1.4618 -0.0633 -0.5828
19173SOL    HW257294   7.632   6.612   6.715  0.4380  0.1518  0.3933
19175SOL     OW57295   8.778   4.570   0.102  0.0789  0.1700  0.3850
19175SOL    HW157296   8.790   4.623   0.018 -1.8738  1.7204  1.0522
19175SOL    HW257297   8.752   4.477   0.079 -0.8751  0.7004 -0.7395
19176SOL     OW57298   8.026   3.899   4.489  0.1731 -0.5337  0.1554
19176SOL    HW157299   7.988   3.925   4.400 -0.2372  1.6526  0.9364
19176SOL    HW257300   7.953   3.863   4.547  0.4772 -2.1412 -0.4371
19177SOL     OW57301   4.236   0.042   6.761 -0.2775  0.2215  0.4729
19177SOL    HW157302   4.334   0.026   6.767 -0.2578  0.0016 -0.3320
19177SOL    HW257303   4.209   0.049   6.665 -0.6532  2.8350  0.7484
19178SOL     OW57304   8.310   0.113   6.125  0.2911 -0.0471 -0.4783
19178SOL    HW157305   8.362   0.165   6.192  0.0226 -0.3958  0.0114
19178SOL    HW257306   8.322   0.152   6.034  0.9566  0.2081 -0.2814
19179SOL     OW57307   3.325   2.979   2.696  0.4733 -0.9099 -0.2277
19179SOL    HW157308   3.260   3.055   2.701  0.3348 -0.9917 -0.7207
19179SOL    HW257309   3.359   2.958   2.787 -0.6989 -1.3023  0.1316
19180SOL     OW57310   8.196   6.250   0.401 -0.1634 -0.5184  0.0544
19180SOL    HW157311   8.202   6.191   0.481 -0.2817 -0.4339  0.1267
19180SOL    HW257312   8.120   6.219   0.344  0.4857 -1.1379 -0.4848
19181SOL     OW57313   3.497   0.599   4.865 -0.2257 -0.2092 -0.1832
19181SOL    HW157314   3.447   0.649   4.935 -1.3639  1.3043 -2.0395
19181SOL    HW257315   3.481   0.501   4.877 -0.9138  0.0701  1.2919
19182SOL     OW57316   3.090   6.107   7.710 -0.2469 -0.2365 -0.2490
19182SOL    HW157317   3.087   6.186   7.771 -0.2990 -0.8471  0.5387
19182SOL    HW257318   3.153   6.126   7.634  0.4929  0.1879  0.4580
19183SOL     OW57319   0.145   7.119   0.297 -0.2869  0.0055 -0.3722
19183SOL    HW157320   0.242   7.132   0.320 -0.5663  1.6248 -0.0650
19183SOL    HW257321   0.091   7.120   0.381 -0.5848 -0.8947 -0.5463
19184SOL     OW57322   3.827   0.109   3.983 -0.4570 -0.3011  0.1195
19184SOL    HW157323   3.914   0.124   3.936 -0.5926 -1.3804 -0.5064
19184SOL    HW257324   3.817   0.012   4.005 -1.9227 -0.3543 -0.6726
19185SOL     OW57325   1.373   3.921   6.227 -0.0292  0.0265  0.1248
19185SOL    HW157326   1.335   3.828   6.224  0.1059 -0.0148 -0.4266
19185SOL    HW257327   1.447   3.924   6.295 -0.1567 -0.2219  0.2774
19187SOL     OW57328   8.347   6.204   5.073  0.2718  0.4422 -0.2247
19187SOL    HW157329   8.410   6.234   5.145  1.2419 -1.4628 -0.2444
19187SOL    HW257330   8.298   6.123   5.103 -1.2713  1.1675 -0.7144
19188SOL     OW57331   7.113   1.024   2.457 -0.4342  0.5837  0.1176
19188SOL    HW157332   7.209   1.036   2.432 -0.8150  1.0407 -1.2040
19188SOL    HW257333   7.071   0.956   2.396 -0.7566 -0.1922  1.1884
19189SOL     OW57334   1.157   9.386   6.979  0.1537  0.0424 -0.1581
19189SOL    HW157335   1.195   9.472   6.945 -2.2307  0.4076 -2.0486
19189SOL    HW257336   1.215   9.310   6.950 -0.3565  0.6076 -2.7360
19190SOL     OW57337   8.932   0.632   0.231 -0.2107  0.6474  0.6777
19190SOL    HW157338   8.998   0.683   0.286 -1.1389  0.6215  1.8361
19190SOL    HW257339   8.971   0.615   0.141  1.3307  0.7174  1.3008
19191SOL     OW57340   4.386   7.154   4.529 -0.7278 -0.0074  0.7195
19191SOL    HW157341   4.434   7.067   4.540  0.6323  0.4760 -1.2077
19191SOL    HW257342   4.371   7.195   4.620  1.4327 -0.7575  1.4553
19192SOL     OW57343   8.276   3.202   6.644  0.1207  0.0615  0.2464
19192SOL    HW157344   8.232   3.291   6.655  0.7348  0.3138  0.7738
19192SOL    HW257345   8.306   3.169   6.734  0.9435 -0.1283 -0.0959
19193SOL     OW57346   7.551   1.026   5.264  0.3617  0.4099  0.2216
19193SOL    HW157347   7.648   1.034   5.243  0.3131 -0.1918 -0.2725
19193SOL    HW257348   7.526   1.092   5.335  1.0364  0.8552  0.0470
19195SOL     OW57349   9.123   9.416   5.452 -0.7539  0.3345  0.0909
19195SOL    HW157350   9.036   9.375   5.425 -1.4407  1.6898  0.1771
19195SOL    HW257351   9.144   9.492   5.390 -0.0463  0.5271  0.5644
19196SOL     OW57352   8.650   7.341   5.591  0.0604  0.0664  0.5595
19196SOL    HW157353   8.632   7.264   5.529 -0.5448  0.5788  0.0922
19196SOL    HW257354   8.698   7.413   5.542 -1.7659  1.1103  0.2570
19197SOL     OW57355   5.131   2.047   1.801  0.0116 -0.3613  0.6890
19197SOL    HW157356   5.103   1.961   1.760  0.1158 -0.0718  0.0132
19197SOL    HW257357   5.222   2.038   1.841 -0.0992 -0.6461  0.8777
19198SOL     OW57358   6.920   0.402   1.713 -0.0371 -0.0196 -0.0562
19198SOL    HW157359   6.837   0.358   1.747  1.3352 -1.4721  1.5480
19198SOL    HW257360   7.000   0.350   1.744  1.4753  1.4075 -1.4712
19199SOL     OW57361   4.308   4.807   4.419  0.4466 -0.4388  0.5754
19199SOL    HW157362   4.394   4.799   4.470  0.1267  1.8839  1.5453
19199SOL    HW257363   4.328   4.816   4.322  1.2397 -1.1343  0.6653
19200SOL     OW57364   5.287   1.614   5.602  0.3083 -0.4402  0.5916
19200SOL    HW157365   5.189   1.599   5.586  0.3484  0.8962 -1.0931
19200SOL    HW257366   5.306   1.712   5.598  1.9736 -0.8029 -0.7552
19201SOL     OW57367   0.433   2.748   5.439 -0.3118  0.4117  0.0801
19201SOL    HW157368   0.494   2.669   5.451  0.1400  0.6127 -0.9002
19201SOL    HW257369   0.340   2.721   5.463 -0.4089 -0.8315 -1.6143
19202SOL     OW57370   3.746   1.965   2.356  0.0838  0.1694  0.3673
19202SOL    HW157371   3.752   2.064   2.346  2.4106  0.0097 -0.3002
19202SOL    HW257372   3.684   1.942   2.431 -1.0206  2.0920  0.0807
19203SOL     OW57373   5.780   0.419   6.313  0.0558  0.5915 -0.0437
19203SOL    HW157374   5.778   0.503   6.368 -1.6530  1.3090 -1.1439
19203SOL    HW257375   5.695   0.368   6.327  0.6683 -0.4625 -0.1415
19205SOL     OW57376   4.583   8.736   5.203  0.1809 -0.1488  0.1706
19205SOL    HW157377   4.513   8.800   5.233  0.7725  0.5604  0.0640
19205SOL    HW257378   4.541   8.656   5.161 -0.5944 -0.2288  1.1010
19206SOL     OW57379   0.194   1.443   6.390 -0.3049 -0.0446 -0.5723
19206SOL    HW157380   0.121   1.427   6.456 -1.5878  1.8858 -1.4708
19206SOL    HW257381   0.195   1.369   6.322 -2.1850  0.4861 -1.2041
19208SOL     OW57382   8.748   8.241   6.325 -0.5474  0.4207  0.7483
19208SOL    HW157383   8.793   8.275   6.242 -1.2822 -0.7346 -0.1336
19208SOL    HW257384   8.649   8.238   6.310 -0.6651 -0.0399  1.5795
19209SOL     OW57385   4.895   1.694   1.279  0.0609 -0.3829  0.1797
19209SOL    HW157386   4.963   1.667   1.211  2.3601  0.2089  2.1735
19209SOL    HW257387   4.860   1.785   1.258 -0.2363 -0.7422 -0.9208
19210SOL     OW57388   8.177   9.428   3.200  0.4728  0.1415  0.3363
19210SOL    HW157389   8.163   9.516   3.245 -1.1745  0.3509 -0.5495
19210SOL    HW257390   8.155   9.436   3.103 -1.6929 -1.7055  0.6165
19211SOL     OW57391   9.165   7.875   4.509 -0.4203  0.1640  0.5942
19211SOL    HW157392   9.227   7.954   4.511  0.2723 -0.3873  1.3749
19211SOL    HW257393   9.085   7.893   4.566 -0.7383  0.6863 -0.0179
19214SOL     OW57394   5.523   8.098   5.224 -0.5869  0.4490 -0.3875
19214SOL    HW157395   5.556   8.152   5.146 -2.1137  2.3842  0.2445
19214SOL    HW257396   5.599   8.053   5.269  0.7162  1.9320 -1.0681
19216SOL     OW57397   8.423   8.606   0.153  0.3258  0.0624 -0.2355
19216SOL    HW157398   8.393   8.619   0.059  2.0665  2.2421 -0.5357
19216SOL    HW257399   8.519   8.579   0.154  0.2057 -0.3273  0.8879
19219SOL     OW57400   3.138   9.568   0.076 -0.3285  0.0242  0.4956
19219SOL    HW157401   3.070   9.638   0.054 -0.2158 -0.6146 -2.0710
19219SOL    HW257402   3.094   9.494   0.128 -1.2593  0.2872  0.0923
19220SOL     OW57403   9.392   2.851   3.843  0.0113  0.3733 -0.1571
19220SOL    HW157404   9.452   2.913   3.892 -2.5803  2.6136  0.3137
19220SOL    HW257405   9.297   2.871   3.866 -1.0550 -1.6294 -2.5090
19223SOL     OW57406   8.472   8.008   1.342 -0.2197  0.4088 -0.0483
19223SOL    HW157407   8.467   7.913   1.371  0.0241  0.7304  1.0971
19223SOL    HW257408   8.497   8.013   1.245 -2.1129 -0.7217 -0.6299
19224SOL     OW57409   4.376   7.361   4.363  0.1446 -0.0726 -0.2229
19224SOL    HW157410   4.385   7.281   4.421  0.6567  0.8905  1.0586
19224SOL    HW257411   4.464   7.383   4.321 -0.0392 -0.2884 -0.7298
19225SOL     OW57412   1.277   6.246   1.024  0.6017  0.3828 -0.0379
19225SOL    HW157413   1.325   6.158   1.028  1.8182  0.9556 -1.2985
19225SOL    HW257414   1.269   6.275   0.928 -2.5580  0.1840  0.1067
19226SOL     OW57415   4.565   4.792   1.411  0.5350 -0.3363 -0.3282
19226SOL    HW157416   4.516   4.705   1.417  0.9770 -0.5373  0.4322
19226SOL    HW257417   4.607   4.801   1.321  1.8809 -1.6597  0.1480
19227SOL     OW57418   1.214   3.173   2.694  0.9323 -0.6862  0.1203
19227SOL    HW157419   1.199   3.272   2.687 -0.6321 -0.8962  0.2366
19227SOL    HW257420   1.255   3.139   2.610  0.1311 -0.1556 -0.4944
19228SOL     OW57421   6.630   7.015   3.846 -0.3171  0.0371 -0.2362
19228SOL    HW157422   6.714   6.979   3.888 -1.7131 -1.7025  1.1738
19228SOL    HW257423   6.636   7.007   3.747  0.5240 -1.6834 -0.0692
19229SOL     OW57424   1.770   1.598   7.833 -0.3020  0.0706 -0.2409
19229SOL    HW157425   1.810   1.677   7.879  1.6131 -1.0112 -0.0233
19229SOL    HW257426   1.674   1.588   7.861  1.0754 -1.1674  4.3135
19230SOL     OW57427   7.950   8.054   6.765 -0.0779 -0.5441  0.9479
19230SOL    HW157428   7.993   7.976   6.810  1.1470 -0.9079 -0.7968
19230SOL    HW257429   7.865   8.025   6.720  0.5845 -0.9735 -0.0383
19231SOL     OW57430   6.447   2.123   0.246 -0.1018 -0.1105 -0.0198
19231SOL    HW157431   6.435   2.117   0.345  1.0409  1.1524  0.2085
19231SOL    HW257432   6.381   2.064   0.201 -2.3327  1.2036  1.4153
19232SOL     OW57433   1.142   4.046   1.851 -0.3888  0.4477  0.1318
19232SOL    HW157434   1.201   4.111   1.898  0.2938  1.0325 -1.5086
19232SOL    HW257435   1.198   3.979   1.803 -1.0473  0.8799 -1.2647
19233SOL     OW57436   3.352   4.942   3.939  0.3376 -0.2973  0.5217
19233SOL    HW157437   3.316   5.015   3.998 -1.2368 -1.7996  1.4874
19233SOL    HW257438   3.448   4.959   3.918 -0.0287  2.0690  0.6921
19234SOL     OW57439   5.092   9.475   2.895  0.0264  0.1474  0.4024
19234SOL    HW157440   5.044   9.453   2.810  0.2206  0.2869  0.2554
19234SOL    HW257441   5.176   9.525   2.874 -1.5829  3.1643  0.8521
19235SOL     OW57442   4.561   6.316   2.863 -0.1147 -0.0077 -0.2420
19235SOL    HW157443   4.592   6.259   2.939  0.3447  0.0603 -0.3772
19235SOL    HW257444   4.470   6.352   2.883 -0.6460 -1.2469 -0.4039
19236SOL     OW57445   8.664   1.902   7.683 -0.2751  0.1277  0.3389
19236SOL    HW157446   8.739   1.854   7.729 -1.0650 -2.3351 -0.8159
19236SOL    HW257447   8.691   1.925   7.590  0.0689  1.9225  0.8624
19237SOL     OW57448   7.568   1.918   1.517  0.2518  0.1663  0.0163
19237SOL    HW157449   7.586   1.936   1.614  0.5172  0.1990 -0.0385
19237SOL    HW257450   7.506   1.987   1.481 -0.0949 -0.0240  0.2411
19239SOL     OW57451   0.876   6.251   6.873 -0.0591 -0.1531 -0.3199
19239SOL    HW157452   0.857   6.280   6.779  0.3056 -1.2367 -0.7459
19239SOL    HW257453   0.945   6.179   6.872  0.0327 -0.0939  0.7952
19241SOL     OW57454   1.832   0.212   3.296 -0.2204 -0.2590  0.1654
19241SOL    HW157455   1.910   0.239   3.352 -0.4437 -0.7062  0.6928
19241SOL    HW257456   1.795   0.125   3.329 -2.8700  1.4280  1.8539
19243SOL     OW57457   7.114   9.107   1.871 -0.1323 -0.0779  0.7842
19243SOL    HW157458   7.029   9.055   1.863 -0.1373 -0.1220  1.1088
19243SOL    HW257459   7.192   9.044   1.865 -0.1004  0.0699 -0.3783
19244SOL     OW57460   4.449   3.378   7.939  0.3199  0.2918  0.3778
19244SOL    HW157461   4.414   3.382   7.846 -0.3292  3.2678  0.7258
19244SOL    HW257462   4.549   3.368   7.937  0.3020  0.3295 -0.6272
19245SOL     OW57463   3.660   9.732   4.533 -0.1704  0.0888  0.3199
19245SOL    HW157464   3.747   9.744   4.483 -0.7377  3.0556 -0.0805
19245SOL    HW257465   3.678   9.685   4.619  1.4956 -1.3228 -0.7604
19246SOL     OW57466   1.905   1.961   7.553 -0.0579 -0.3506 -0.0763
19246SOL    HW157467   1.843   1.985   7.627 -0.9369 -0.2221 -0.8460
19246SOL    HW257468   1.861   1.894   7.492  0.2593  0.2941 -1.0332
19248SOL     OW57469   0.728   4.211   2.766 -0.5396  0.8163 -0.6227
19248SOL    HW157470   0.809   4.226   2.710  0.0154  1.7607  0.4062
19248SOL    HW257471   0.680   4.298   2.779 -0.8647  0.5372  0.0662
19249SOL     OW57472   8.122   2.980   3.117  0.6694 -0.0188  0.2126
19249SOL    HW157473   8.167   2.934   3.194 -0.3899 -1.0870  0.2075
19249SOL    HW257474   8.131   2.923   3.035  1.1336  0.7624 -0.2872
19250SOL     OW57475   5.151   2.408   7.898  0.6946  0.7859  0.0398
19250SOL    HW157476   5.097   2.474   7.951 -0.1945 -2.3066  3.2082
19250SOL    HW257477   5.247   2.413   7.928  1.1945  2.5912 -1.7893
19252SOL     OW57478   6.145   9.877   4.957 -0.0496 -0.0433  0.0398
19252SOL    HW157479   6.171   9.913   4.868  2.1249 -1.8026 -0.0674
19252SOL    HW257480   6.223   9.881   5.019 -1.2659  0.2656  1.5840
19253SOL     OW57481   0.044   0.663   1.275 -0.0279  0.0138  0.5464
19253SOL    HW157482   0.023   0.608   1.356 -2.7100  0.3263  0.1216
19253SOL    HW257483   0.077   0.604   1.202 -0.3723 -0.6864  0.9493
19254SOL     OW57484   3.037   5.207   2.918  0.2445 -0.4636 -0.0899
19254SOL    HW157485   3.062   5.274   2.988 -0.1272 -0.0202 -0.3757
19254SOL    HW257486   3.028   5.117   2.959  2.7265 -0.7317 -0.0295
19255SOL     OW57487   7.433   3.522   0.059 -0.0159  0.0297  0.8772
19255SOL    HW157488   7.386   3.451   0.008  0.2246  0.6171 -0.1670
19255SOL    HW257489   7.376   3.604   0.061  0.4265  0.3457  0.6531
19256SOL     OW57490   7.539   3.066   0.753  0.1597 -0.0568 -0.2325
19256SOL    HW157491   7.476   3.025   0.687  0.3313  1.3104 -1.2611
19256SOL    HW257492   7.633   3.045   0.726  0.2034 -0.2039  0.0402
19257SOL     OW57493   5.988   2.734   4.528  0.7181  0.3956  0.4335
19257SOL    HW157494   5.983   2.676   4.610 -0.2936  1.4944  1.1583
19257SOL    HW257495   6.038   2.818   4.549  0.2338  0.7977 -0.0029
19258SOL     OW57496   3.923   7.542   0.118 -0.0146  0.0823  0.1001
19258SOL    HW157497   3.883   7.451   0.106 -2.0088  1.0121 -0.4347
19258SOL    HW257498   3.980   7.564   0.040  2.1845 -1.5421  1.1894
19259SOL     OW57499   9.850   2.582   7.286  0.1077  0.0687 -0.1342
19259SOL    HW157500   9.780   2.549   7.350 -0.6298  1.6597 -0.0829
19259SOL    HW257501   9.886   2.670   7.319  0.8137  0.1497 -1.1122
19260SOL     OW57502   1.191   3.190   5.270 -0.2393 -0.7053 -0.0957
19260SOL    HW157503   1.256   3.265   5.263  1.8726 -2.3176  1.4029
19260SOL    HW257504   1.145   3.193   5.359 -0.3014 -1.0592 -0.1142
19261SOL     OW57505   6.025   0.645   3.979 -0.1770  0.1387  0.5859
19261SOL    HW157506   5.944   0.616   3.927  0.3506  1.2221 -0.8666
19261SOL    HW257507   6.001   0.722   4.038 -0.5272 -0.4284  1.1935
19262SOL     OW57508   9.398   9.263   7.652  0.3665  0.5002 -0.0720
19262SOL    HW157509   9.399   9.163   7.659 -0.1355  0.5789  1.3119
19262SOL    HW257510   9.444   9.302   7.731  2.3443  1.3499 -1.5954
19263SOL     OW57511   3.759   0.537   6.311 -0.7166  0.1466  0.5466
19263SOL    HW157512   3.771   0.446   6.272  1.6144  0.5254  0.2593
19263SOL    HW257513   3.721   0.530   6.403 -2.4130 -0.9833 -0.2143
19264SOL     OW57514   0.796   0.085   7.737  0.4225 -0.1054  0.2161
19264SOL    HW157515   0.791   0.178   7.775 -0.3830 -0.2739  0.5189
19264SOL    HW257516   0.835   0.090   7.645  2.8145  0.2546  1.1915
19266SOL     OW57517   4.938   6.443   3.030  0.3658 -0.2127  0.2822
19266SOL    HW157518   4.889   6.513   2.977  0.2050 -0.0088  0.6970
19266SOL    HW257519   5.001   6.488   3.093 -0.8366 -0.3744  1.6422
19267SOL     OW57520   7.475   7.601   2.700 -0.1399 -0.1982 -0.0120
19267SOL    HW157521   7.453   7.698   2.703  1.4826  0.1621  1.1914
19267SOL    HW257522   7.393   7.547   2.718 -1.0336  0.9460 -0.6262
19268SOL     OW57523   9.919   6.987   5.674 -0.4541 -0.3265 -1.2680
19268SOL    HW157524   9.959   6.912   5.727 -1.4870  0.2078  0.3154
19268SOL    HW257525   9.820   6.972   5.666 -1.0367  1.9040  0.9118
19269SOL     OW57526   2.716   6.093   2.827  0.0064  0.3125 -0.8822
19269SOL    HW157527   2.695   6.191   2.824 -2.1266 -0.1173 -0.2576
19269SOL    HW257528   2.732   6.060   2.734 -1.7715  0.7471 -1.3660
19271SOL     OW57529   4.056   1.808   3.831  0.7446 -0.2951  0.0847
19271SOL    HW157530   4.101   1.843   3.914  1.8481  1.4835 -1.2376
19271SOL    HW257531   4.113   1.737   3.790  1.6372  0.9047 -0.7657
19272SOL     OW57532   1.089   1.315   6.579 -0.0257  0.2654 -0.2508
19272SOL    HW157533   1.022   1.341   6.649 -0.2463  1.7083 -0.9753
19272SOL    HW257534   1.077   1.373   6.498 -0.2244 -1.8510 -1.7706
19273SOL     OW57535   9.662   4.036   0.554  0.2901 -0.6831  0.3489
19273SOL    HW157536   9.594   3.979   0.601 -0.4929 -0.7733 -0.8435
19273SOL    HW257537   9.706   4.097   0.619 -2.2451  0.6601  0.8590
19274SOL     OW57538   1.880   4.233   7.567  0.4791  0.1125  0.4458
19274SOL    HW157539   1.805   4.289   7.532  1.2071  1.4517  0.9706
19274SOL    HW257540   1.864   4.211   7.663  0.2750 -0.4503  0.2850
19275SOL     OW57541   3.441   9.190   0.373  0.4552  0.3366 -0.7230
19275SOL    HW157542   3.540   9.201   0.379  0.5657 -0.9737  0.3685
19275SOL    HW257543   3.395   9.269   0.414  1.0777  0.1801  0.2848
19277SOL     OW57544   0.742   5.237   3.813  0.4861 -0.5836  0.4103
19277SOL    HW157545   0.726   5.176   3.891  0.7426 -0.8829  0.2309
19277SOL    HW257546   0.833   5.277   3.821  0.0965  0.2291  0.8315
19278SOL     OW57547   0.443   5.832   2.841  0.4670  0.1022 -0.0048
19278SOL    HW157548   0.481   5.813   2.750  1.1332  1.0303  0.0778
19278SOL    HW257549   0.349   5.797   2.845 -0.7294  2.7991 -2.1174
19279SOL     OW57550   2.020   0.036   1.325  0.6562  0.2376 -0.4664
19279SOL    HW157551   2.100  -0.023   1.331 -0.5112 -1.5397 -1.9774
19279SOL    HW257552   1.962   0.008   1.248 -1.7359  1.0845  0.9463
19281SOL     OW57553   1.821   3.171   0.704  0.1952  0.1605 -0.6427
19281SOL    HW157554   1.806   3.089   0.759  1.3653  1.1558  1.1741
19281SOL    HW257555   1.878   3.148   0.625 -0.9438 -1.1226 -1.1227
19282SOL     OW57556   1.324   8.803   2.684 -0.4581 -0.2222  0.2953
19282SOL    HW157557   1.354   8.713   2.717 -1.4411 -1.5714 -2.3358
19282SOL    HW257558   1.232   8.822   2.717 -0.4890 -0.4646  0.3500
19284SOL     OW57559   3.739   9.400   4.132  0.0397  0.0778 -0.1503
19284SOL    HW157560   3.659   9.433   4.082 -0.4275 -0.2058  0.4079
19284SOL    HW257561   3.712   9.327   4.195  0.5252  0.7687  0.8750
19285SOL     OW57562   2.577   9.458   6.736  0.3737 -0.2742 -0.0973
19285SOL    HW157563   2.507   9.522   6.766  1.7834  1.5431 -0.5934
19285SOL    HW257564   2.650   9.508   6.689  1.9306 -2.1452  0.2718
19287SOL     OW57565   5.776   6.151   0.306  0.0353 -0.4140  0.7483
19287SOL    HW157566   5.777   6.230   0.367  0.8313 -0.1709  0.4180
19287SOL    HW257567   5.866   6.140   0.264 -0.3505 -0.9200  0.0502
19288SOL     OW57568   2.217   4.772   5.296  0.1181 -0.0929 -0.3739
19288SOL    HW157569   2.272   4.835   5.351  0.5713 -1.1796  0.4288
19288SOL    HW257570   2.260   4.760   5.206 -0.2850  1.1912 -0.7480
19289SOL     OW57571   7.135   8.983   6.571 -0.0620 -0.4301  0.9400
19289SOL    HW157572   7.066   8.998   6.500 -0.4193 -2.9772  0.7016
19289SOL    HW257573   7.225   9.006   6.534 -0.4523  0.0409  0.2641
19290SOL     OW57574   4.381   4.956   0.387  0.0143 -0.8611 -0.2181
19290SOL    HW157575   4.404   5.051   0.404 -0.8349 -0.3546 -1.7803
19290SOL    HW257576   4.463   4.899   0.395  0.7551  0.1654 -0.4606
19291SOL     OW57577   8.891   6.254   2.534  0.2628 -0.2092 -0.3934
19291SOL    HW157578   8.819   6.267   2.465  0.7008 -1.7899 -1.1912
19291SOL    HW257579   8.882   6.162   2.574  0.8899  0.1660  0.6327
19292SOL     OW57580   9.717   6.228   7.837  0.3663 -0.4591  0.3206
19292SOL    HW157581   9.814   6.218   7.859  0.8433  2.1349 -0.3574
19292SOL    HW257582   9.703   6.210   7.740 -0.1154 -2.3339  0.7176
19293SOL     OW57583   0.113   2.710   1.938 -0.6521  0.4681  0.1891
19293SOL    HW157584   0.039   2.721   1.872 -1.2934  2.8112  1.2461
19293SOL    HW257585   0.180   2.783   1.926 -0.0497  0.0898  1.1729
19295SOL     OW57586   2.662   1.647   3.308  0.1236 -0.1656 -0.2752
19295SOL    HW157587   2.713   1.682   3.229  1.8729  0.4401  1.0849
19295SOL    HW257588   2.708   1.675   3.393 -1.9233 -0.4770  0.9804
19296SOL     OW57589   0.953   3.853   7.897  0.4481  0.4561 -0.0789
19296SOL    HW157590   0.935   3.948   7.870 -0.1395 -0.0631 -1.5478
19296SOL    HW257591   0.866   3.807   7.916  0.7894  0.4753  1.5754
19298SOL     OW57592   9.274   4.162   4.850 -0.3858  0.3446 -0.3168
19298SOL    HW157593   9.230   4.214   4.922 -1.5482 -0.1313 -0.6791
19298SOL    HW257594   9.225   4.076   4.835  2.5339 -1.7321  1.5235
19299SOL     OW57595   8.795   9.758   0.813  0.5898  0.4159 -0.2851
19299SOL    HW157596   8.803   9.850   0.775  1.5482  0.6095  0.3594
19299SOL    HW257597   8.815   9.691   0.742  0.5716  0.7176 -0.5799
19303SOL     OW57598   4.594   7.287   0.198  0.3049 -0.2296 -0.2515
19303SOL    HW157599   4.632   7.250   0.283  0.5957  0.7302  0.0433
19303SOL    HW257600   4.568   7.383   0.212  0.5710  0.0030 -1.3072
19304SOL     OW57601   5.987   0.212   2.176 -0.1557  0.2978 -0.6402
19304SOL    HW157602   6.017   0.270   2.100  0.3297  0.9062  0.0172
19304SOL    HW257603   5.982   0.117   2.145 -1.0964  0.7015 -1.7606
19305SOL     OW57604   2.306   8.181   4.665 -0.7710 -0.6324 -0.5846
19305SOL    HW157605   2.254   8.188   4.580  0.0147 -1.8283 -1.1817
19305SOL    HW257606   2.325   8.085   4.685 -2.1125 -0.4719  1.6812
19306SOL     OW57607   0.748   5.282   3.033 -0.4326  0.0018  0.0388
19306SOL    HW157608   0.721   5.336   2.954  1.4146 -1.6781 -1.7800
19306SOL    HW257609   0.667   5.242   3.076 -1.5828  2.1911 -0.0209
19307SOL     OW57610   4.318   9.865   5.864 -0.3478 -0.2012 -0.0669
19307SOL    HW157611   4.282   9.776   5.892  0.5693 -0.2096  1.1074
19307SOL    HW257612   4.393   9.891   5.924  1.0858  0.1985 -1.9870
19309SOL     OW57613   4.773   8.453   1.328  0.3858 -0.5320  0.1909
19309SOL    HW157614   4.768   8.388   1.253 -1.6013 -0.1558 -0.0229
19309SOL    HW257615   4.689   8.449   1.382  2.3758 -1.8993  3.3432
19311SOL     OW57616   7.787   0.079   5.963 -0.2893  0.1580 -0.2110
19311SOL    HW157617   7.752   0.164   5.926 -0.6731 -0.7293 -1.9178
19311SOL    HW257618   7.874   0.096   6.010 -1.2577  1.7752  1.0421
19312SOL     OW57619   5.557   3.541   0.237 -0.1178  0.3425  0.3671
19312SOL    HW157620   5.521   3.451   0.261  1.4550 -0.3893  0.0273
19312SOL    HW257621   5.483   3.598   0.201 -0.6911 -1.6161 -1.6674
19314SOL     OW57622   8.236   4.984   6.630 -0.0710 -0.6386 -0.7794
19314SOL    HW157623   8.162   4.924   6.660 -4.3140  2.7874 -3.8386
19314SOL    HW257624   8.270   5.037   6.708 -3.0741  0.0056  0.1609
19315SOL     OW57625   0.993   4.041   6.847  0.3135  0.6107 -0.1838
19315SOL    HW157626   1.036   4.040   6.938  1.2096  0.8165 -0.5981
19315SOL    HW257627   1.061   4.015   6.778  0.0545  1.9636 -0.9747
19316SOL     OW57628   8.554   4.573   4.346  0.5633  0.2709  0.0514
19316SOL    HW157629   8.619   4.623   4.289  2.0979 -1.1654  0.5118
19316SOL    HW257630   8.489   4.524   4.287 -0.3477  2.0025 -0.4052
19317SOL     OW57631   0.212   3.315   0.456  0.2660 -0.4780  0.1681
19317SOL    HW157632   0.259   3.358   0.533  1.9108  1.3470 -1.8045
19317SOL    HW257633   0.160   3.384   0.405 -0.2957 -1.5425 -0.7458
19319SOL     OW57634   0.468   5.614   7.422  0.2680  0.3674  0.6022
19319SOL    HW157635   0.490   5.542   7.356  0.2900 -0.1304  1.1417
19319SOL    HW257636   0.542   5.621   7.489  0.4518  1.1775  0.3090
19321SOL     OW57637   1.669   7.792   7.194 -0.0383  1.2091  0.4996
19321SOL    HW157638   1.574   7.815   7.174 -1.2952 -2.9559  1.0957
19321SOL    HW257639   1.692   7.821   7.287 -1.7929 -0.4910  1.5128
19322SOL     OW57640   1.205   9.219   1.752 -0.1613  0.1992  0.1477
19322SOL    HW157641   1.175   9.166   1.673  0.8242  1.2050 -0.9321
19322SOL    HW257642   1.189   9.167   1.835  0.9496 -1.8921 -0.8920
19324SOL     OW57643   6.213   1.650   2.457  0.3322  0.6542  0.3472
19324SOL    HW157644   6.236   1.654   2.554  1.9389  0.0343  0.0052
19324SOL    HW257645   6.185   1.741   2.426  0.2733  0.9620  1.2715
19325SOL     OW57646   5.026   9.971   3.913  0.1776  0.1138  0.7342
19325SOL    HW157647   5.052   9.998   4.005 -0.3503  1.7905  0.4133
19325SOL    HW257648   5.012   9.872   3.910 -0.1479  0.0852  2.5320
19326SOL     OW57649   0.271   4.782   1.527  0.3914  0.1685 -0.2121
19326SOL    HW157650   0.243   4.852   1.593  0.5967  1.0501 -1.0524
19326SOL    HW257651   0.352   4.736   1.561  1.5098  1.7817 -0.6126
19327SOL     OW57652   0.764   4.233   7.486  0.4019 -0.3809  0.3532
19327SOL    HW157653   0.794   4.302   7.420  0.3405  0.3941  1.1339
19327SOL    HW257654   0.665   4.223   7.480  0.4461 -0.6388  0.0167
19328SOL     OW57655   0.874   1.466   1.013 -0.2416  0.3676 -0.1211
19328SOL    HW157656   0.940   1.532   0.977 -0.6282  1.0871  0.4652
19328SOL    HW257657   0.782   1.490   0.982 -0.4217  0.2880  0.3339
19330SOL     OW57658   4.968   1.535   6.577 -0.1304  0.2424  0.8351
19330SOL    HW157659   5.009   1.580   6.657 -1.8162  1.8623  0.7980
19330SOL    HW257660   4.876   1.505   6.600  0.4935 -2.0780  0.4403
19331SOL     OW57661   0.152   1.513   0.792  0.1651 -0.2945  0.5900
19331SOL    HW157662   0.057   1.495   0.767  0.6495 -1.4560 -0.4402
19331SOL    HW257663   0.175   1.607   0.768 -0.3174 -0.4321 -0.4268
19332SOL     OW57664   3.066   1.951   2.341  0.1902  0.0395 -0.4708
19332SOL    HW157665   3.138   1.884   2.322  0.8144  0.4549  0.3702
19332SOL    HW257666   2.991   1.940   2.275  1.4310  0.2079 -1.9403
19333SOL     OW57667   9.860   5.890   5.948 -0.0860  0.2971  0.1945
19333SOL    HW157668   9.854   5.981   5.987 -1.1691  0.2595  0.1428
19333SOL    HW257669   9.922   5.833   6.002  1.6623  1.4520 -0.5610
19334SOL     OW57670   1.124   8.430   4.131 -0.3376 -0.4610 -0.2431
19334SOL    HW157671   1.203   8.448   4.072 -0.1428 -0.7033 -0.0562
19334SOL    HW257672   1.095   8.334   4.120 -1.2223 -0.1148 -1.0539
19335SOL     OW57673   9.596   6.811   3.665  0.1987 -0.5666 -0.3640
19335SOL    HW157674   9.598   6.890   3.726  0.5876 -1.2025  0.4479
19335SOL    HW257675   9.501   6.780   3.654  0.1431 -0.5376  0.0348
19336SOL     OW57676   2.047   0.711   4.573  0.2966 -0.2819  0.6775
19336SOL    HW157677   2.142   0.705   4.545  0.2549 -2.0671  0.8444
19336SOL    HW257678   1.991   0.743   4.497  0.6432 -1.9422 -0.3057
19337SOL     OW57679   4.313   1.952   5.733 -0.3438  0.3409  0.0857
19337SOL    HW157680   4.387   1.940   5.667  0.3466  0.8596  0.7559
19337SOL    HW257681   4.334   1.903   5.818 -0.4446  1.0502  0.5283
19338SOL     OW57682   7.422   9.967   7.932 -0.4283 -0.5642 -0.1910
19338SOL    HW157683   7.323   9.956   7.938 -0.3943 -0.2333  0.9966
19338SOL    HW257684   7.468   9.889   7.974 -0.1773 -0.4749 -0.2956
19339SOL     OW57685   7.003   8.511   2.267  0.5123 -0.5636 -0.8939
19339SOL    HW157686   7.025   8.607   2.283  1.9502 -1.0206  0.0029
19339SOL    HW257687   7.013   8.490   2.169  0.4496  0.1251 -1.0506
19340SOL     OW57688   4.775   1.764   6.187 -0.8928 -0.3887 -1.2642
19340SOL    HW157689   4.856   1.720   6.227 -1.6588 -2.1755 -1.6330
19340SOL    HW257690   4.756   1.723   6.097  0.0728  2.6979 -2.9764
19342SOL     OW57691   9.566   6.235   5.042  0.2012 -0.1154 -0.1791
19342SOL    HW157692   9.641   6.286   5.083 -1.2676  1.8518  0.1562
19342SOL    HW257693   9.519   6.182   5.112  0.5853 -0.4779 -0.1923
19343SOL     OW57694   4.308   0.826   4.088 -0.0511 -0.1083  0.8890
19343SOL    HW157695   4.361   0.851   4.168 -0.9439 -1.7715  2.0091
19343SOL    HW257696   4.210   0.833   4.109 -0.3057  1.0734 -0.5669
19344SOL     OW57697   3.211   0.380   4.128  0.0998 -0.3606 -0.2826
19344SOL    HW157698   3.134   0.440   4.109  0.4207 -0.3664 -1.6531
19344SOL    HW257699   3.259   0.411   4.210  0.0885  1.0686 -0.8094
19346SOL     OW57700   7.969   5.337   3.502  0.0450 -0.5632  0.4556
19346SOL    HW157701   7.916   5.278   3.562  0.7070 -1.6808 -0.0388
19346SOL    HW257702   8.049   5.287   3.468 -0.6168 -0.1524 -1.7936
19348SOL     OW57703   8.093   1.420   1.187  0.3694  0.0792  0.0087
19348SOL    HW157704   8.011   1.408   1.131 -0.3502  1.7467  0.6760
19348SOL    HW257705   8.172   1.438   1.128 -0.1543  0.6159 -0.5296
19349SOL     OW57706   9.102   7.448   2.376  0.6952  0.2424 -0.1797
19349SOL    HW157707   9.165   7.438   2.299  0.9397 -0.8661  0.1560
19349SOL    HW257708   9.042   7.526   2.360  0.7028 -0.0109 -1.5289
19350SOL     OW57709   6.350   1.115   2.193 -0.7340  0.3717 -0.0551
19350SOL    HW157710   6.411   1.189   2.167 -2.0147  2.3676  2.4054
19350SOL    HW257711   6.256   1.138   2.170 -1.2141 -0.2262  1.2123
19351SOL     OW57712   1.812   4.652   4.488  0.1494  0.1712  0.3761
19351SOL    HW157713   1.764   4.640   4.401 -0.0296 -1.3855  0.6910
19351SOL    HW257714   1.750   4.693   4.555  0.2090  1.1171 -0.1285
19353SOL     OW57715   9.117   1.408   3.994  0.4453  0.4462 -0.1060
19353SOL    HW157716   9.194   1.453   4.039  1.1065 -0.6197 -0.1479
19353SOL    HW257717   9.079   1.338   4.054 -0.6895  1.1548  0.0298
19354SOL     OW57718   0.883   4.247   6.319  0.7438 -0.1283  0.1641
19354SOL    HW157719   0.828   4.318   6.363 -0.6889 -0.1187 -1.5777
19354SOL    HW257720   0.956   4.291   6.265  0.8309 -0.0336  0.3597
19356SOL     OW57721   3.379   7.301   5.997  0.6508  0.1045 -0.3179
19356SOL    HW157722   3.442   7.300   6.075  1.3653 -0.7431 -0.9024
19356SOL    HW257723   3.300   7.358   6.020  1.2767  0.5962  0.6933
19357SOL     OW57724   0.418   8.853   1.629 -0.1439 -0.1154 -0.6012
19357SOL    HW157725   0.386   8.940   1.592 -0.7675 -0.0498  0.0750
19357SOL    HW257726   0.496   8.870   1.691 -2.8741  0.4587  2.8302
19359SOL     OW57727   9.915   6.233   0.148  0.3271 -0.0511  0.4484
19359SOL    HW157728  10.011   6.237   0.174  0.0027  0.1983  1.6248
19359SOL    HW257729   9.861   6.199   0.225 -0.1739 -3.0712 -1.1350
19362SOL     OW57730   5.956   2.572   4.764  0.0933  0.4486  0.5677
19362SOL    HW157731   5.923   2.495   4.708 -0.5018 -0.6999  2.4531
19362SOL    HW257732   5.913   2.569   4.854 -0.1490  3.1879  0.5847
19364SOL     OW57733   9.983   5.107   7.011 -0.2934  0.2190  0.0830
19364SOL    HW157734  10.078   5.078   7.019 -0.0545  0.8217 -0.5200
19364SOL    HW257735   9.964   5.178   7.080 -0.0174  0.8380 -0.4762
19365SOL     OW57736   4.214   3.569   6.844 -0.1607  0.1440 -0.0987
19365SOL    HW157737   4.307   3.534   6.847 -0.4949 -0.6434  1.4273
19365SOL    HW257738   4.154   3.500   6.802 -0.5503 -0.5323  1.5319
19366SOL     OW57739   3.161   3.545   3.557 -0.1544 -0.6403  0.6070
19366SOL    HW157740   3.098   3.623   3.555  0.5697 -0.0501  0.5432
19366SOL    HW257741   3.117   3.468   3.604 -0.7128 -0.0460  1.0723
19367SOL     OW57742   1.792   7.300   7.280 -0.0194  0.1567  0.8801
19367SOL    HW157743   1.733   7.275   7.358 -1.8553  1.8327  0.0642
19367SOL    HW257744   1.740   7.355   7.216  2.1335  0.6283 -0.4882
19368SOL     OW57745   1.343   0.950   3.979 -0.3220 -0.3309 -0.2795
19368SOL    HW157746   1.351   0.913   4.071 -0.4769 -0.4779 -0.3252
19368SOL    HW257747   1.417   1.016   3.963 -1.7142  1.5555  0.8051
19369SOL     OW57748   7.626   5.363   2.542 -0.5823  0.2919  0.3381
19369SOL    HW157749   7.650   5.266   2.544  0.4996  0.5423 -0.1932
19369SOL    HW257750   7.526   5.373   2.543 -0.7243 -0.8648 -0.8866
19370SOL     OW57751   2.965   5.987   4.477 -0.3466 -0.1677 -0.5393
19370SOL    HW157752   2.987   6.084   4.484  1.2467 -0.5421 -0.1380
19370SOL    HW257753   3.044   5.937   4.442 -0.8845 -1.4319  0.0006
19371SOL     OW57754   3.870   2.430   5.586  0.1074  0.1056 -0.2674
19371SOL    HW157755   3.810   2.375   5.528 -0.2807 -0.0846  0.3074
19371SOL    HW257756   3.931   2.485   5.529  0.6180 -1.0450 -0.8515
19372SOL     OW57757   0.523   7.595   7.538 -0.2827  0.2994 -0.0424
19372SOL    HW157758   0.477   7.633   7.618  0.6098  1.6609 -0.1738
19372SOL    HW257759   0.581   7.664   7.496  1.2318 -1.1411 -0.3859
19373SOL     OW57760   2.086   5.797   1.765  0.0337 -0.0300 -0.3152
19373SOL    HW157761   2.072   5.895   1.753 -0.5283 -0.2076 -1.1700
19373SOL    HW257762   2.017   5.747   1.712 -0.9350 -0.8603  1.6628
19375SOL     OW57763   1.391   1.975   6.035  0.4009  0.3677  0.1612
19375SOL    HW157764   1.390   1.885   6.079  2.1767 -0.7410 -1.9820
19375SOL    HW257765   1.315   1.982   5.971  1.2184 -0.2294 -0.8756
19376SOL     OW57766   2.976   4.065   5.918 -0.0719 -0.0473  0.0025
19376SOL    HW157767   2.925   4.150   5.904  0.7773  0.4607 -0.0250
19376SOL    HW257768   3.059   4.067   5.863 -1.3850 -2.0786 -2.1688
19377SOL     OW57769   5.174   9.127   3.640 -0.6259  0.3345 -0.0215
19377SOL    HW157770   5.248   9.189   3.612  0.2260 -0.6454  0.0539
19377SOL    HW257771   5.100   9.131   3.571 -0.4289  1.1614 -0.1955
19378SOL     OW57772   1.615   2.226   7.915  0.3618  0.6618  0.3144
19378SOL    HW157773   1.633   2.253   8.009 -0.1548 -0.7425  0.8334
19378SOL    HW257774   1.548   2.288   7.875  0.8539  1.4768  0.7538
19379SOL     OW57775   6.438   5.322   0.250  0.2952  0.8806 -0.5026
19379SOL    HW157776   6.422   5.280   0.339  1.8240  0.7771 -0.2694
19379SOL    HW257777   6.352   5.358   0.215 -0.6390 -0.5419  0.2615
19380SOL     OW57778   8.556   7.747   0.457  0.1353 -0.7071  0.0588
19380SOL    HW157779   8.464   7.719   0.430  0.0532  1.3677 -2.0002
19380SOL    HW257780   8.621   7.674   0.435 -0.3158 -0.1597 -3.5494
19381SOL     OW57781   5.258   2.692   6.390  0.6010  0.4089  0.2085
19381SOL    HW157782   5.308   2.674   6.305 -0.7226  0.8945 -0.7026
19381SOL    HW257783   5.173   2.639   6.390  0.6980  0.2390  1.3474
19382SOL     OW57784   7.381   6.160   0.063 -0.2572  0.0823  0.3586
19382SOL    HW157785   7.376   6.226   0.137 -2.4509  0.0998  0.2196
19382SOL    HW257786   7.441   6.195  -0.009  1.4860  0.2808  1.8873
19383SOL     OW57787   6.203   5.750   0.837 -0.7494 -0.3387 -0.2662
19383SOL    HW157788   6.257   5.668   0.814  0.5448  0.0960  1.1070
19383SOL    HW257789   6.217   5.820   0.767  0.6972 -0.1451  0.1924
19384SOL     OW57790   0.703   4.127   2.301 -0.6966 -0.2012 -0.4602
19384SOL    HW157791   0.727   4.064   2.226  2.5190 -0.8382  0.9849
19384SOL    HW257792   0.631   4.086   2.356 -2.0699 -0.3905 -2.3386
19385SOL     OW57793   8.862   4.654   7.438  0.0418 -0.3460 -0.1905
19385SOL    HW157794   8.773   4.611   7.428  0.3364 -0.8762 -0.5812
19385SOL    HW257795   8.882   4.708   7.357 -0.1585  0.2134  0.1323
19386SOL     OW57796   5.905   9.789   3.458  0.0569  0.3402 -0.3192
19386SOL    HW157797   5.833   9.782   3.390 -1.4297  0.0724  1.2393
19386SOL    HW257798   5.954   9.875   3.446 -0.7133  0.6569 -1.2214
19388SOL     OW57799   6.800   8.025   4.505 -0.1748 -0.0873  0.5019
19388SOL    HW157800   6.844   8.109   4.475 -0.1937 -0.6315 -1.1344
19388SOL    HW257801   6.866   7.967   4.553 -0.0445  0.6470  1.2081
19389SOL     OW57802   4.439   6.451   1.770  0.6194  0.2143  0.7100
19389SOL    HW157803   4.508   6.523   1.771  1.7037 -0.7689 -0.5455
19389SOL    HW257804   4.476   6.370   1.725 -0.5806 -1.1416  2.0857
19390SOL     OW57805   9.444   6.818   2.638 -0.0125  0.4750 -0.2876
19390SOL    HW157806   9.388   6.886   2.592  0.6593 -0.0647 -1.9435
19390SOL    HW257807   9.524   6.797   2.582  0.6938 -0.3853  1.0188
19391SOL     OW57808   0.942   2.958   1.909 -0.1870  0.5231 -0.3658
19391SOL    HW157809   0.952   3.032   1.976  0.5986  0.6325 -0.5984
19391SOL    HW257810   0.893   2.881   1.951  0.1463  0.6574  0.2746
19392SOL     OW57811   9.246   7.181   5.283 -0.3249 -0.4044 -0.2356
19392SOL    HW157812   9.285   7.091   5.266 -1.0553 -0.6333 -0.7546
19392SOL    HW257813   9.198   7.212   5.200 -0.6451  0.1604  0.1630
19394SOL     OW57814   6.908   1.136   7.710  0.0169  0.3718  0.7710
19394SOL    HW157815   6.826   1.085   7.739 -0.4262  0.1821 -0.7381
19394SOL    HW257816   6.947   1.184   7.788 -1.3646  0.2155  1.5787
19395SOL     OW57817   5.803   4.463   1.721 -0.5898 -0.0395 -0.1302
19395SOL    HW157818   5.706   4.440   1.710 -0.1001 -1.9769 -0.5619
19395SOL    HW257819   5.839   4.416   1.801  0.2393 -0.1052 -0.5424
19396SOL     OW57820   5.430   1.087   5.307  0.0613 -0.0884  0.2099
19396SOL    HW157821   5.504   1.020   5.296  1.0528  0.8485  1.0179
19396SOL    HW257822   5.357   1.066   5.243  1.3182 -0.6390 -1.0845
19398SOL     OW57823   6.349   2.731   4.198 -0.0467  0.3954 -0.0121
19398SOL    HW157824   6.301   2.712   4.284 -0.2309  0.6517 -0.0563
19398SOL    HW257825   6.319   2.666   4.128  1.7704 -1.2616  0.7157
19399SOL     OW57826   2.356   5.588   1.057  0.1959 -0.1628  0.4599
19399SOL    HW157827   2.350   5.495   1.092  0.6671  0.2022  1.5364
19399SOL    HW257828   2.381   5.586   0.960 -2.6003 -1.2295 -0.2896
19401SOL     OW57829   3.878   5.869   7.917 -0.4460 -0.5054  0.1934
19401SOL    HW157830   3.795   5.833   7.873 -0.8430  0.5099  0.1017
19401SOL    HW257831   3.952   5.874   7.850 -0.3292 -1.3341  0.2542
19402SOL     OW57832   3.280   1.372   3.733  0.1561  0.0477 -0.7931
19402SOL    HW157833   3.245   1.333   3.818  1.0917 -2.0371 -1.3450
19402SOL    HW257834   3.207   1.374   3.665 -0.3121  0.7410 -0.2813
19403SOL     OW57835   1.851   4.653   2.736 -0.3005  0.0305 -0.4899
19403SOL    HW157836   1.779   4.686   2.797  0.8154  0.1205  0.8065
19403SOL    HW257837   1.912   4.592   2.786  1.0252  0.6255 -1.3403
19404SOL     OW57838   3.474   1.894   3.802  0.2609 -0.2258 -0.0916
19404SOL    HW157839   3.560   1.876   3.755  0.3780  1.5492 -0.6078
19404SOL    HW257840   3.479   1.983   3.848 -1.2098 -0.1946  0.0520
19405SOL     OW57841   8.719   2.045   4.253  0.0867 -0.0845 -0.0998
19405SOL    HW157842   8.705   2.063   4.155  0.9642  2.3508  0.2051
19405SOL    HW257843   8.812   2.070   4.278  0.8545 -3.5225  0.7637
19406SOL     OW57844   8.800   8.747   0.489 -0.0453 -0.4171 -0.3420
19406SOL    HW157845   8.741   8.796   0.425 -0.4920 -0.6859 -0.1337
19406SOL    HW257846   8.789   8.648   0.475 -0.2742 -0.4756  0.2741
19407SOL     OW57847   3.349   6.275   6.056  0.2718 -0.4167  0.2953
19407SOL    HW157848   3.366   6.373   6.050  0.9297 -0.5179  0.5012
19407SOL    HW257849   3.381   6.241   6.144  0.3945 -0.8897  0.0703
19408SOL     OW57850   9.471   3.002   5.251 -0.4574  0.3247  0.0711
19408SOL    HW157851   9.521   2.923   5.287 -1.6825 -1.2385 -1.5887
19408SOL    HW257852   9.442   3.060   5.328  0.1633 -1.0123  1.3476
19409SOL     OW57853   4.172   7.849   3.490  0.1965  0.0937  0.8188
19409SOL    HW157854   4.215   7.758   3.483 -1.2293 -0.5436  0.0207
19409SOL    HW257855   4.076   7.838   3.516 -0.5369  1.2311 -1.2697
19410SOL     OW57856   6.238   1.691   3.946  0.0467 -0.2977 -0.4937
19410SOL    HW157857   6.318   1.746   3.972 -0.9668 -0.1943  2.6888
19410SOL    HW257858   6.252   1.596   3.972 -1.4610  0.0109  1.6211
19411SOL     OW57859   1.031   7.840   0.204  0.8000 -0.4812 -0.0050
19411SOL    HW157860   0.982   7.781   0.268  0.7165 -0.3164  0.0857
19411SOL    HW257861   1.100   7.787   0.155  2.0997 -0.2351  1.5200
19412SOL     OW57862   7.602   7.153   4.895  0.0420  0.3116 -0.4045
19412SOL    HW157863   7.594   7.249   4.868  2.0674  0.5463 -0.2702
19412SOL    HW257864   7.659   7.105   4.828  1.8548  0.0068  1.3016
19413SOL     OW57865   6.444   9.570   2.221 -0.1650  0.1020  0.4278
19413SOL    HW157866   6.516   9.536   2.282 -1.0705 -0.1779  1.3488
19413SOL    HW257867   6.397   9.493   2.180 -1.5122  0.2357  1.6838
19414SOL     OW57868   9.506   5.210   3.295  0.5694 -0.1706  0.1199
19414SOL    HW157869   9.579   5.225   3.361 -0.5154  1.1968  1.0348
19414SOL    HW257870   9.435   5.152   3.336 -0.7549  1.7884  0.6752
19415SOL     OW57871   1.726   4.920   3.339 -0.1270 -0.3023  0.1098
19415SOL    HW157872   1.666   4.851   3.299  0.8217  0.3816 -2.5880
19415SOL    HW257873   1.686   5.011   3.326  0.6013 -0.0012 -0.0730
19416SOL     OW57874   7.651   6.395   7.580  0.5451  0.0128 -0.3070
19416SOL    HW157875   7.607   6.310   7.552 -0.7812  0.1988  1.1440
19416SOL    HW257876   7.673   6.449   7.498 -4.1083  0.9747 -1.0625
19417SOL     OW57877   2.292   1.015   3.169 -0.8764  0.6184 -0.2431
19417SOL    HW157878   2.315   1.073   3.247 -3.3508  0.0628  0.9589
19417SOL    HW257879   2.366   0.950   3.153 -0.3528  0.6970  1.6843
19418SOL     OW57880   3.897   7.799   3.494  0.4038  0.0298 -0.1848
19418SOL    HW157881   3.834   7.726   3.520 -0.1493  0.7632  0.5830
19418SOL    HW257882   3.901   7.806   3.395  2.7823 -3.0243 -0.3749
19419SOL     OW57883   0.440   4.530   2.439 -0.4019 -0.2828  0.5470
19419SOL    HW157884   0.463   4.454   2.499  0.0518 -0.6930 -0.1375
19419SOL    HW257885   0.341   4.537   2.428 -0.5459  0.4227  2.1439
19421SOL     OW57886   2.651   9.199   2.424  0.1788  0.2920 -0.5968
19421SOL    HW157887   2.617   9.242   2.508 -0.6143  0.0105 -0.7627
19421SOL    HW257888   2.576   9.147   2.381  0.7106  0.0321 -1.2148
19422SOL     OW57889   0.573   4.621   6.928 -0.5391  0.6590 -0.1713
19422SOL    HW157890   0.563   4.549   6.859  1.6413 -1.1144  1.2939
19422SOL    HW257891   0.559   4.710   6.885 -3.0450 -0.6025 -2.0743
19423SOL     OW57892   7.090   7.793   4.230  0.1171 -0.1436  0.2074
19423SOL    HW157893   7.176   7.745   4.249  2.2584  2.4006 -2.5678
19423SOL    HW257894   7.023   7.728   4.194  1.3202 -1.9031  1.0633
19424SOL     OW57895   4.561   8.901   4.937 -0.4963  0.3069  0.1521
19424SOL    HW157896   4.505   8.832   4.891 -1.3822 -0.4228  2.2776
19424SOL    HW257897   4.638   8.857   4.982 -0.2416  0.8865  0.2837
19426SOL     OW57898   3.202   5.929   6.973  0.2758 -0.7756  0.3620
19426SOL    HW157899   3.106   5.952   6.989  0.5067  0.4533  0.0240
19426SOL    HW257900   3.260   5.982   7.035  0.8648  0.1323 -0.9385
19427SOL     OW57901   2.655   0.162   6.136  0.5968 -0.3040 -0.0461
19427SOL    HW157902   2.721   0.222   6.091  1.0813 -0.6768  0.1641
19427SOL    HW257903   2.624   0.092   6.072  0.5851 -0.2741 -0.0736
19429SOL     OW57904   6.021   1.903   4.229  0.2445  0.6310  0.1157
19429SOL    HW157905   5.995   1.859   4.143  1.5663 -0.9023  0.4981
19429SOL    HW257906   5.938   1.921   4.283 -0.3228 -1.3431 -0.0610
19430SOL     OW57907   1.490   6.788   5.206  0.4644 -0.3734  0.0580
19430SOL    HW157908   1.489   6.780   5.106  3.8212 -0.2610 -0.0471
19430SOL    HW257909   1.519   6.701   5.246  2.9911  0.6922  0.6771
19431SOL     OW57910   4.811   7.212   3.242 -0.0699 -0.2346  0.2774
19431SOL    HW157911   4.867   7.288   3.273  0.4319 -1.2708  1.9318
19431SOL    HW257912   4.763   7.170   3.319  0.6027 -2.3623 -0.3983
19432SOL     OW57913   3.031   6.157   1.386  0.3491  0.2488  0.3511
19432SOL    HW157914   3.042   6.107   1.300  1.1602  0.7495  0.1542
19432SOL    HW257915   3.063   6.251   1.374 -0.8084  0.7102  0.8260
19433SOL     OW57916   5.153   7.951   3.036 -0.8078 -0.7648  0.2366
19433SOL    HW157917   5.184   8.046   3.037  0.2145 -1.0965  0.0405
19433SOL    HW257918   5.060   7.946   3.074 -1.9385  0.6765 -2.1822
19434SOL     OW57919   8.034   0.798   6.795  0.1690  0.2542  0.1004
19434SOL    HW157920   7.949   0.798   6.847 -0.6435  0.9682 -1.1903
19434SOL    HW257921   8.021   0.744   6.711  1.4861 -0.9866  0.6749
19436SOL     OW57922   8.182   2.327   0.678 -0.3864  0.1289 -0.3965
19436SOL    HW157923   8.227   2.397   0.734  0.3468 -1.4496  1.0395
19436SOL    HW257924   8.204   2.341   0.582 -1.5581  2.8226 -0.3131
19437SOL     OW57925   5.212   2.969   5.432 -0.2949 -0.2080  0.2024
19437SOL    HW157926   5.233   2.883   5.385 -1.2188 -0.2027 -0.2244
19437SOL    HW257927   5.225   2.957   5.531  1.4156 -0.2901 -0.0096
19438SOL     OW57928   1.695   4.369   5.605  0.4011  0.3189 -0.0055
19438SOL    HW157929   1.768   4.385   5.539 -1.9308  4.0035 -1.8005
19438SOL    HW257930   1.679   4.452   5.659 -2.4022 -0.4377  0.4114
19439SOL     OW57931   3.954   4.664   7.868  0.3332  0.2234  0.1365
19439SOL    HW157932   3.907   4.641   7.953  0.6188 -3.3146 -0.5766
19439SOL    HW257933   4.053   4.658   7.882  0.3980  0.3256 -0.2705
19440SOL     OW57934   2.048   9.556   2.790 -0.5957 -0.0601  0.2608
19440SOL    HW157935   2.065   9.620   2.865 -0.6692  0.7819 -0.4299
19440SOL    HW257936   2.078   9.464   2.817  1.7206  0.6922  0.4043
19442SOL     OW57937   3.142   8.077   1.691 -0.2891 -0.1409  0.0320
19442SOL    HW157938   3.067   8.127   1.648 -0.1752 -0.1790 -0.2135
19442SOL    HW257939   3.119   7.980   1.697 -1.2320  0.1652  2.0506
19443SOL     OW57940   3.697   2.612   6.035  0.2005 -0.4156 -0.2389
19443SOL    HW157941   3.722   2.518   6.060 -0.2978 -0.4510  0.1149
19443SOL    HW257942   3.608   2.613   5.990 -0.0820 -0.0355  0.3251
19444SOL     OW57943   9.229  10.000   1.297  0.0684  0.1204 -0.3496
19444SOL    HW157944   9.264   9.923   1.350  0.0807  0.9483  0.8626
19444SOL    HW257945   9.306  10.046   1.252  0.1246 -0.2539 -0.6365
19446SOL     OW57946   1.835   1.094   3.580  0.0961  0.2174  0.1300
19446SOL    HW157947   1.847   1.016   3.641 -1.3084  1.4526  2.0393
19446SOL    HW257948   1.924   1.132   3.555  0.7754 -1.8368 -0.6373
19447SOL     OW57949   0.253   2.027   4.180  0.6692  0.4833  0.0485
19447SOL    HW157950   0.233   2.000   4.275 -2.4544  0.8224 -0.4744
19447SOL    HW257951   0.298   1.951   4.134  0.9424 -0.2066  1.4053
19449SOL     OW57952   3.544   4.232   4.227  0.3773 -0.0568  0.0545
19449SOL    HW157953   3.492   4.298   4.280  1.8185  1.2198 -0.0928
19449SOL    HW257954   3.517   4.237   4.131 -0.3635 -0.5255  0.2376
19450SOL     OW57955   7.571   6.781   2.144 -0.0386  0.0512 -0.0494
19450SOL    HW157956   7.654   6.740   2.105 -0.7997 -0.3729 -1.2829
19450SOL    HW257957   7.593   6.870   2.184  1.2307 -0.5971  0.7032
19452SOL     OW57958   6.798   0.816   1.714  0.1171 -0.8747  0.1180
19452SOL    HW157959   6.794   0.914   1.735  0.4447 -0.8191 -0.0824
19452SOL    HW257960   6.712   0.774   1.740 -0.0482 -0.5216  0.1546
19453SOL     OW57961   6.831   8.708   7.946  0.6890  0.0006 -0.0583
19453SOL    HW157962   6.876   8.680   7.861 -1.3269  1.0588 -1.5075
19453SOL    HW257963   6.891   8.687   8.023  2.9582 -0.1317 -1.7890
19454SOL     OW57964   3.649   0.454   0.259 -0.5515 -0.1414 -0.5996
19454SOL    HW157965   3.653   0.466   0.159 -1.6894 -0.8993 -0.7525
19454SOL    HW257966   3.576   0.389   0.281 -1.2653  1.1208  0.8244
19456SOL     OW57967   0.019   0.664   7.393  0.2548 -0.7510 -0.3105
19456SOL    HW157968   0.053   0.570   7.385 -0.7354 -1.2877  1.4413
19456SOL    HW257969  -0.038   0.685   7.314 -3.7543 -3.5003  1.6319
19457SOL     OW57970   4.651   9.757   5.790 -1.1245  0.3103 -0.0268
19457SOL    HW157971   4.588   9.802   5.727  0.1290  2.7197  0.3878
19457SOL    HW257972   4.623   9.775   5.884 -1.3493 -0.8887  0.1453
19458SOL     OW57973   7.955   9.403   3.447  0.2006  0.1125 -0.3645
19458SOL    HW157974   7.961   9.501   3.428  1.4259  0.1590  0.2541
19458SOL    HW257975   7.951   9.353   3.360  0.8520  0.6286 -0.6963
19459SOL     OW57976   3.196   3.664   6.052  0.1652 -0.2329 -0.0421
19459SOL    HW157977   3.139   3.599   6.101 -0.8997 -0.1537 -1.1671
19459SOL    HW257978   3.214   3.630   5.960  0.4534  0.5798 -0.2918
19460SOL     OW57979   1.029   7.346   3.815 -0.2781 -0.3804  0.0525
19460SOL    HW157980   1.013   7.321   3.720 -1.8485 -1.6055  0.6112
19460SOL    HW257981   1.074   7.435   3.820  0.3554 -0.5818 -1.8365
19461SOL     OW57982   1.583   5.026   5.237 -0.0266  0.6467 -1.1959
19461SOL    HW157983   1.493   5.003   5.199 -0.0380  1.5365 -1.7216
19461SOL    HW257984   1.631   5.087   5.174  0.1183  1.8345  0.0266
19462SOL     OW57985   3.067   3.058   1.865  0.0745 -0.5436 -0.4128
19462SOL    HW157986   2.976   3.045   1.825  0.0398  0.0413 -0.5246
19462SOL    HW257987   3.063   3.125   1.939  0.5849  0.2101 -1.0575
19463SOL     OW57988   3.492   6.630   0.228  0.1736 -0.1113 -0.2164
19463SOL    HW157989   3.502   6.709   0.289  1.7133  1.4887 -2.4325
19463SOL    HW257990   3.552   6.556   0.258 -0.5637 -0.0952  1.3280
19464SOL     OW57991   0.365   1.015   7.866 -0.0380  0.4766  0.2397
19464SOL    HW157992   0.456   1.051   7.846 -0.0495  0.6233  0.4551
19464SOL    HW257993   0.310   1.016   7.783  0.1217  0.4914  0.1338
19466SOL     OW57994   6.470   0.578   1.404  0.0307  0.2449  0.3703
19466SOL    HW157995   6.555   0.536   1.438 -0.1375 -0.3242  0.0895
19466SOL    HW257996   6.438   0.646   1.470  0.5685  0.2831  0.5978
19467SOL     OW57997   1.001   2.648   6.120  0.1534  0.0317  0.4163
19467SOL    HW157998   0.972   2.600   6.203  0.4003 -1.0965 -0.1397
19467SOL    HW257999   0.987   2.746   6.132  0.9355 -0.0336  2.1083
19468SOL     OW58000   0.183   4.995   0.918 -0.5949  0.4513 -0.1780
19468SOL    HW158001   0.186   4.902   0.954 -1.5506  1.0015  1.3591
19468SOL    HW258002   0.246   5.003   0.840 -1.0165 -1.6549 -0.7619
19469SOL     OW58003   9.992   0.602   6.334 -0.4490  0.1404  0.8759
19469SOL    HW158004   9.934   0.521   6.349 -0.0079 -0.4557 -0.5629
19469SOL    HW258005   9.952   0.659   6.263  0.4786 -0.0371  0.2029
19470SOL     OW58006   3.274   9.452   2.275 -0.3325  0.2525 -0.7287
19470SOL    HW158007   3.341   9.381   2.253  1.9290  1.9631  0.3630
19470SOL    HW258008   3.288   9.531   2.215  1.0991  2.0524  1.8582
19471SOL     OW58009   2.587   7.755   0.918 -0.2239  0.2023  0.5705
19471SOL    HW158010   2.522   7.707   0.860 -0.2486 -0.0559  0.8092
19471SOL    HW258011   2.537   7.809   0.986 -0.1922  0.2983  0.5185
19472SOL     OW58012   2.107   3.436   5.576  0.1844 -0.0465 -0.4083
19472SOL    HW158013   2.059   3.472   5.657  0.4698 -1.8951  0.5973
19472SOL    HW258014   2.043   3.431   5.500 -0.3994  0.5566  0.0255
19473SOL     OW58015   0.876   5.644   3.177 -0.3384  0.5916 -0.0879
19473SOL    HW158016   0.911   5.722   3.125  0.2172  1.2347  1.2115
19473SOL    HW258017   0.917   5.560   3.142  0.2207  1.0429 -0.5350
19475SOL     OW58018   2.074   0.144   3.129  0.4479  0.2886  0.1024
19475SOL    HW158019   2.077   0.205   3.208  0.4588 -0.2203  0.5019
19475SOL    HW258020   2.073   0.049   3.161 -2.1609  0.1040 -0.4004
19476SOL     OW58021   4.859   6.333   0.610 -0.0418  0.3121 -0.1491
19476SOL    HW158022   4.875   6.243   0.650  2.1434  1.0218  0.6164
19476SOL    HW258023   4.931   6.354   0.544 -1.1192  1.0761 -1.1125
19477SOL     OW58024   0.235   5.519   0.820  0.1936  0.3684 -0.3704
19477SOL    HW158025   0.280   5.446   0.770 -0.4337  0.3012 -0.8373
19477SOL    HW258026   0.140   5.493   0.838  1.1809 -0.9342  3.4657
19479SOL     OW58027   5.803   0.825   7.174 -0.3742  0.2102 -0.1066
19479SOL    HW158028   5.848   0.744   7.212 -0.9231  0.0556  0.2156
19479SOL    HW258029   5.867   0.874   7.114  0.2845  0.0867  0.4868
19481SOL     OW58030   9.506   6.871   6.163  0.0435 -0.0846  0.1961
19481SOL    HW158031   9.415   6.912   6.160 -0.5564 -1.4573 -0.2814
19481SOL    HW258032   9.565   6.917   6.096 -0.5858  0.0899 -0.2441
19482SOL     OW58033   7.059   7.270   5.852 -0.0433  0.0375  0.8286
19482SOL    HW158034   7.091   7.180   5.880 -0.3949 -0.4106 -0.1848
19482SOL    HW258035   7.047   7.272   5.753  0.7859  1.4629  0.7324
19483SOL     OW58036   4.733   6.158   3.548 -0.1657 -0.0743 -0.4037
19483SOL    HW158037   4.710   6.066   3.580  0.5235 -0.3623 -0.7317
19483SOL    HW258038   4.765   6.212   3.626 -1.1229  0.0779 -0.1000
19484SOL     OW58039   2.931   9.620   0.355 -0.3990  0.5608 -0.0851
19484SOL    HW158040   2.918   9.719   0.364  1.6702  0.8954 -0.4968
19484SOL    HW258041   2.871   9.572   0.419 -0.4887  2.1434  1.0459
19485SOL     OW58042   7.834   3.145   1.696  0.4880  0.2952  0.1325
19485SOL    HW158043   7.867   3.185   1.611  1.8212 -0.6843  0.1694
19485SOL    HW258044   7.797   3.053   1.678  0.1842  0.3420  0.5043
19486SOL     OW58045   0.372   3.815   0.079  0.2513  0.4919 -0.1639
19486SOL    HW158046   0.353   3.798  -0.017  2.5260 -2.5718 -0.1405
19486SOL    HW258047   0.337   3.740   0.134  1.3975  0.8581  1.1058
19487SOL     OW58048   0.669   3.870   3.455 -0.1413 -0.0103 -0.0422
19487SOL    HW158049   0.682   3.968   3.441 -1.6140 -0.0148 -1.7727
19487SOL    HW258050   0.628   3.853   3.544 -1.9290  1.1635 -0.6176
19488SOL     OW58051   2.231   0.534   4.912 -0.4612 -0.5648 -0.5701
19488SOL    HW158052   2.290   0.454   4.909 -0.0756 -0.3397  0.7895
19488SOL    HW258053   2.257   0.593   4.988 -1.1575  0.5386 -1.1620
19490SOL     OW58054   3.800   9.637   6.038 -0.2509  0.3714 -0.2381
19490SOL    HW158055   3.716   9.582   6.041  0.0608 -0.1717 -1.4131
19490SOL    HW258056   3.823   9.657   5.943  0.7663  0.8141  0.1015
19491SOL     OW58057   2.334   9.996   1.617 -0.0123  0.6479 -0.1944
19491SOL    HW158058   2.342   9.971   1.520  0.8351  2.1256 -0.5266
19491SOL    HW258059   2.247   9.964   1.652 -0.1536 -0.2771 -1.3396
19492SOL     OW58060   9.422   2.803   3.362  0.3733 -0.7149 -0.1309
19492SOL    HW158061   9.364   2.873   3.404  1.4662  2.1393 -3.1675
19492SOL    HW258062   9.497   2.780   3.424 -0.4611  0.1629  1.2400
19493SOL     OW58063   2.247   1.864   2.497 -0.2217 -0.2735  0.0237
19493SOL    HW158064   2.157   1.906   2.490 -0.5507 -0.8563  0.7546
19493SOL    HW258065   2.240   1.766   2.482  0.3175 -0.3038 -0.0632
19494SOL     OW58066   9.214   7.241   4.538  0.3419  0.0176  0.1910
19494SOL    HW158067   9.163   7.324   4.513  0.2004 -0.2646 -0.4781
19494SOL    HW258068   9.179   7.205   4.624 -0.4565 -0.0585 -0.1569
19495SOL     OW58069   5.566   8.238   5.766  0.5547  0.5710 -0.0240
19495SOL    HW158070   5.547   8.150   5.809 -1.0499  0.9885  0.1579
19495SOL    HW258071   5.522   8.242   5.676 -0.4329  1.6356  0.4825
19496SOL     OW58072   8.439   1.827   3.042 -0.0699  0.1579  0.0713
19496SOL    HW158073   8.492   1.765   2.984 -0.7336 -0.0750 -0.2899
19496SOL    HW258074   8.450   1.921   3.008 -1.9029 -0.1970 -1.5421
19498SOL     OW58075   9.565   3.445   1.791  0.1110  0.4488  0.4764
19498SOL    HW158076   9.612   3.434   1.878 -1.2863  0.1493  1.2175
19498SOL    HW258077   9.467   3.426   1.803 -0.1033  0.3988 -1.1554
19499SOL     OW58078   0.855   3.968   7.327 -0.5388  0.3623  0.4581
19499SOL    HW158079   0.814   4.032   7.391  0.3431  0.8665  0.5163
19499SOL    HW258080   0.900   3.894   7.377 -0.3609  0.4357  0.4050
19500SOL     OW58081   9.554   5.844   2.711 -0.7013 -0.7514  0.1191
19500SOL    HW158082   9.625   5.775   2.724  0.9197  0.8276 -0.2162
19500SOL    HW258083   9.596   5.933   2.695 -2.7584  0.5573  1.6684
19501SOL     OW58084   3.673   4.160   3.224 -0.3766  0.7497 -0.4884
19501SOL    HW158085   3.641   4.066   3.239 -0.1575  1.0346  1.9692
19501SOL    HW258086   3.702   4.170   3.129 -3.9876 -0.5851 -1.8199
19502SOL     OW58087   2.612   9.872   4.028  0.3414 -0.0428 -0.4321
19502SOL    HW158088   2.604   9.958   4.077 -0.1303 -0.0217 -0.5464
19502SOL    HW258089   2.521   9.834   4.012  0.4531  0.4171 -2.1390
19503SOL     OW58090   7.895   5.638   2.043  0.2209 -0.3176 -0.3042
19503SOL    HW158091   7.994   5.641   2.035  0.1148  1.0408 -1.1535
19503SOL    HW258092   7.864   5.711   2.105 -0.2785 -0.5419 -0.2849
19505SOL     OW58093   1.424   1.698   7.591 -0.1378  0.1951  0.6433
19505SOL    HW158094   1.434   1.599   7.595  0.3601  0.2340  0.3732
19505SOL    HW258095   1.498   1.741   7.643 -0.1224  0.4358  0.4215
19506SOL     OW58096   8.233   5.365   1.828 -0.2531  0.1608  0.4246
19506SOL    HW158097   8.249   5.267   1.841  0.0431  0.2157  0.4697
19506SOL    HW258098   8.146   5.378   1.781  1.1213 -0.2390 -2.3380
19507SOL     OW58099   2.816   8.655   2.880 -0.6125  0.0299  0.3018
19507SOL    HW158100   2.751   8.713   2.929 -1.6506  0.9381 -2.0457
19507SOL    HW258101   2.828   8.569   2.929 -1.3162  1.0485  2.3085
19509SOL     OW58102   1.258   4.354   6.598  0.1514 -0.2806 -0.3636
19509SOL    HW158103   1.328   4.423   6.615 -0.0396 -0.9757  3.9440
19509SOL    HW258104   1.175   4.398   6.564  0.0160  1.6879  2.3514
19510SOL     OW58105   2.771   6.819   6.709  0.2044 -0.5522  0.4817
19510SOL    HW158106   2.698   6.781   6.652  0.4571 -0.3884  0.0464
19510SOL    HW258107   2.858   6.777   6.685  0.4806  0.2714  0.0216
19511SOL     OW58108   3.868   6.205   4.319  0.0186  0.2986  0.4855
19511SOL    HW158109   3.815   6.179   4.400  0.2327 -0.1770  0.4706
19511SOL    HW258110   3.820   6.175   4.237 -1.1562  2.4516  0.3414
19512SOL     OW58111   5.615   5.907   1.936 -0.5449 -0.2023 -0.2151
19512SOL    HW158112   5.582   5.820   1.972 -0.1539  0.5367  2.0200
19512SOL    HW258113   5.667   5.955   2.007 -1.1077  2.0459 -1.2750
19513SOL     OW58114   2.868   7.808   6.925 -0.3505 -0.0841  0.0999
19513SOL    HW158115   2.965   7.781   6.924 -0.0517  0.9285  1.0174
19513SOL    HW258116   2.847   7.858   6.841  0.1079  0.2899  0.1992
19514SOL     OW58117   1.865   9.349   3.693  0.5365 -0.2831  0.5252
19514SOL    HW158118   1.770   9.379   3.698  0.2062 -1.4592  1.2992
19514SOL    HW258119   1.892   9.307   3.779  1.1191 -1.8203 -0.3783
19515SOL     OW58120   4.997   2.215   0.581 -0.5005  0.0596  0.0777
19515SOL    HW158121   4.999   2.127   0.533  1.9133 -0.0695  0.3630
19515SOL    HW258122   5.011   2.200   0.679 -0.3910  0.7378  0.1674
19516SOL     OW58123   1.333   4.634   4.328 -0.6525  0.2605  0.2067
19516SOL    HW158124   1.382   4.546   4.332 -0.2272  0.3739 -1.9583
19516SOL    HW258125   1.393   4.706   4.362  0.1703  0.1759 -1.0262
19517SOL     OW58126   6.575   9.279   3.873 -0.5368 -0.4753 -0.3396
19517SOL    HW158127   6.533   9.369   3.886  1.1549  0.4002 -0.8555
19517SOL    HW258128   6.576   9.230   3.961 -1.3177  0.0540 -0.0249
19519SOL     OW58129   8.786   2.065   3.186 -0.0840 -0.2614 -0.2970
19519SOL    HW158130   8.723   1.988   3.171  1.0527 -1.0136 -1.3457
19519SOL    HW258131   8.843   2.078   3.105  0.8227  0.6757  0.4689
19520SOL     OW58132   1.003   9.676   2.624  0.2147  0.4837 -0.5621
19520SOL    HW158133   0.974   9.752   2.567  0.6637  2.1265  1.3426
19520SOL    HW258134   1.086   9.635   2.585  0.4632  1.5111 -1.1193
19521SOL     OW58135   3.027   1.661   6.424  0.8583  0.2788 -0.6815
19521SOL    HW158136   2.990   1.701   6.340  1.5440  0.2981 -0.9768
19521SOL    HW258137   2.955   1.612   6.473  0.1409  1.4097 -0.6006
19522SOL     OW58138   4.086   4.973   7.458 -0.1848  0.2940  0.1922
19522SOL    HW158139   4.057   5.048   7.399 -1.3088 -0.6133 -0.4491
19522SOL    HW258140   4.086   5.003   7.553 -1.1477  0.9638 -0.0062
19523SOL     OW58141   2.911   7.358   6.448 -0.0685 -0.4151 -0.2412
19523SOL    HW158142   2.911   7.455   6.471 -0.7083 -0.2514 -0.8962
19523SOL    HW258143   2.999   7.318   6.471  0.9783  0.8202 -1.9732
19524SOL     OW58144   5.654   4.511   1.384  0.2204 -0.1983 -0.4931
19524SOL    HW158145   5.661   4.494   1.483 -1.5599 -2.2711 -0.6813
19524SOL    HW258146   5.636   4.608   1.368  4.0432  0.8823  1.0078
19525SOL     OW58147   9.820   5.875   4.905 -0.0060 -0.1994  0.0617
19525SOL    HW158148   9.827   5.850   5.001  1.4379  1.3700  0.3916
19525SOL    HW258149   9.780   5.799   4.853 -2.6019 -0.3569  2.1732
19527SOL     OW58150   2.109   8.475   2.087 -0.1130 -0.2341 -0.0521
19527SOL    HW158151   2.099   8.438   1.995  0.3254  1.1837 -0.6970
19527SOL    HW258152   2.206   8.476   2.112 -0.2136 -0.4375  0.3543
19528SOL     OW58153   9.797   2.705   0.610 -0.0163 -0.1184 -0.0843
19528SOL    HW158154   9.774   2.770   0.538 -0.2018 -0.9980 -0.8258
19528SOL    HW258155   9.752   2.618   0.593 -0.5757 -0.1471  1.4438
19529SOL     OW58156   1.312   7.785   4.558 -0.1160 -0.1847 -0.0712
19529SOL    HW158157   1.405   7.753   4.540 -0.0791 -1.6242  2.4569
19529SOL    HW258158   1.255   7.770   4.478  1.5891 -0.1366 -1.3218
19530SOL     OW58159   6.462   9.878   3.366  0.2667 -0.3710 -0.4994
19530SOL    HW158160   6.384   9.854   3.424  1.4266 -0.7961  0.9282
19530SOL    HW258161   6.511   9.955   3.406  0.7355 -0.2730 -1.2534
19531SOL     OW58162   0.666   5.846   1.330 -0.7972  0.1544  0.1325
19531SOL    HW158163   0.727   5.835   1.409 -1.7142  2.2029  1.1949
19531SOL    HW258164   0.617   5.761   1.313 -0.7001 -0.2802  1.9007
19532SOL     OW58165   4.517   4.110   5.082 -0.0304  0.7061  0.4019
19532SOL    HW158166   4.614   4.114   5.107 -0.3759  1.3831  1.6913
19532SOL    HW258167   4.461   4.124   5.164 -1.2307 -0.9368 -0.1131
19533SOL     OW58168   4.158   7.951   1.879 -0.3711  0.3124  0.1633
19533SOL    HW158169   4.134   7.854   1.871 -1.0739  0.3841  1.2268
19533SOL    HW258170   4.170   7.973   1.976 -1.5034  1.5854  0.0200
19534SOL     OW58171   3.480   8.117   5.161 -0.0382  0.0919 -0.4308
19534SOL    HW158172   3.444   8.058   5.089  0.2546  0.6583 -1.0430
19534SOL    HW258173   3.499   8.208   5.124  0.7017  0.2054  0.2115
19537SOL     OW58174   5.703   7.846   6.893 -0.0740  0.2290  0.1872
19537SOL    HW158175   5.736   7.939   6.909  2.5728 -0.5526 -0.4386
19537SOL    HW258176   5.695   7.798   6.980 -0.3929  0.6826  0.4132
19540SOL     OW58177   0.709   3.666   5.895  0.1916 -0.4420 -0.6329
19540SOL    HW158178   0.724   3.764   5.891 -0.6029 -0.2333  0.8424
19540SOL    HW258179   0.633   3.641   5.834  0.6569 -0.2007 -1.3106
19541SOL     OW58180   7.904   7.207   3.832  0.1997  0.3642  0.1750
19541SOL    HW158181   7.979   7.141   3.832  0.1512  0.3057 -0.6281
19541SOL    HW258182   7.932   7.290   3.881  1.5757  1.2112 -1.9363
19542SOL     OW58183   9.282   8.505   0.891 -0.1374  0.7243  0.1397
19542SOL    HW158184   9.252   8.566   0.818 -0.5521  0.6951  0.2786
19542SOL    HW258185   9.366   8.459   0.864 -0.7862  0.0108 -0.7039
19543SOL     OW58186   4.370   4.968   3.481 -0.0753 -0.2330  0.1794
19543SOL    HW158187   4.403   5.047   3.532 -0.8279  0.4604 -0.3929
19543SOL    HW258188   4.447   4.923   3.436  0.2079  0.9445 -0.5547
19544SOL     OW58189   3.823   9.085   0.096 -0.4586 -0.3706 -0.0197
19544SOL    HW158190   3.895   9.062   0.031 -0.4372 -0.6965  0.1189
19544SOL    HW258191   3.783   9.001   0.133  0.4117 -0.1982  1.3453
19545SOL     OW58192   9.592   6.099   2.033  0.0924 -0.1700 -0.4447
19545SOL    HW158193   9.511   6.143   1.995 -0.1506  0.6544  1.0073
19545SOL    HW258194   9.674   6.139   1.993 -0.1165  1.7566  0.9691
19547SOL     OW58195   0.934   8.653   6.910 -0.6896 -0.3093  0.2907
19547SOL    HW158196   0.979   8.575   6.955  0.1507  0.7970  1.4099
19547SOL    HW258197   0.891   8.711   6.979  0.3072  1.2242 -0.3338
19548SOL     OW58198   2.924   8.290   0.520 -0.7172  0.1265  0.2569
19548SOL    HW158199   2.973   8.210   0.554 -0.9193  0.0211  0.2947
19548SOL    HW258200   2.978   8.333   0.447 -2.0557 -1.8426 -1.9533
19549SOL     OW58201   6.209   2.914   2.323  0.1530  0.0536  0.4120
19549SOL    HW158202   6.125   2.861   2.309  0.2710 -0.1852  0.6200
19549SOL    HW258203   6.274   2.861   2.377  1.2288 -0.5843 -1.4694
19550SOL     OW58204   1.971   4.458   0.313 -0.4309 -0.3561  0.1597
19550SOL    HW158205   1.994   4.536   0.372  0.3695 -0.4127 -0.0702
19550SOL    HW258206   1.941   4.381   0.370 -0.7165 -0.0547  0.4202
19551SOL     OW58207   0.829   3.623   1.499  0.2642 -0.4408  0.5011
19551SOL    HW158208   0.880   3.660   1.422 -0.2567  0.9048  0.7970
19551SOL    HW258209   0.743   3.583   1.466 -0.6857  1.5159  0.5471
19552SOL     OW58210   6.871   9.479   4.631  0.2085 -0.3000 -0.1341
19552SOL    HW158211   6.851   9.526   4.545 -0.4892 -0.1022  0.1325
19552SOL    HW258212   6.965   9.499   4.659 -0.5091  2.1407  0.7205
19553SOL     OW58213   3.946   1.976   4.056 -0.4240  0.1241  0.4438
19553SOL    HW158214   3.930   1.887   4.013  2.4329 -0.2507  0.1027
19553SOL    HW258215   3.983   1.963   4.148 -0.5180  0.9639  0.6056
19554SOL     OW58216   7.574   8.486   7.932 -0.0288 -0.5276  0.2873
19554SOL    HW158217   7.510   8.521   8.000  0.6060 -0.3581  0.8067
19554SOL    HW258218   7.591   8.557   7.863  0.8935  0.0499  1.0821
19556SOL     OW58219   3.047   4.596   4.285 -0.2532 -0.1749  0.1619
19556SOL    HW158220   3.012   4.504   4.267  0.9503 -0.3678 -1.3422
19556SOL    HW258221   3.094   4.630   4.203  0.8638  1.0619  1.2941
19557SOL     OW58222   2.125   3.709   5.223  0.3592  0.4651 -0.0394
19557SOL    HW158223   2.103   3.723   5.319  0.2796 -1.1148  0.1896
19557SOL    HW258224   2.200   3.642   5.215  0.6305  0.8759 -1.0586
19558SOL     OW58225   3.644   7.633   0.895  0.3702  0.6985  0.1386
19558SOL    HW158226   3.670   7.536   0.896  0.7464  0.6958 -3.2122
19558SOL    HW258227   3.724   7.689   0.918  0.7989  0.3113 -0.4054
19559SOL     OW58228   5.003   3.080   6.701  0.2483 -0.1364  0.0208
19559SOL    HW158229   5.066   3.007   6.676  1.4151  0.7908  0.2240
19559SOL    HW258230   4.909   3.048   6.690  0.7387 -1.9636  0.9496
19560SOL     OW58231   0.089   5.199   4.886 -1.0469  0.2066 -0.1586
19560SOL    HW158232   0.107   5.292   4.918 -1.1283  0.1453  0.0610
19560SOL    HW258233   0.133   5.133   4.947 -0.2245  0.1274 -0.8237
19562SOL     OW58234   1.309   3.341   4.543  0.1867  0.5535  0.0242
19562SOL    HW158235   1.351   3.263   4.589  0.1898  1.1300  1.0176
19562SOL    HW258236   1.210   3.341   4.559  0.0676  0.2955 -0.6728
19564SOL     OW58237   9.427   4.216   2.444  0.4645 -0.2290 -0.1335
19564SOL    HW158238   9.382   4.132   2.414  2.0209 -0.5273 -1.7450
19564SOL    HW258239   9.503   4.193   2.504  0.2175  0.1031  0.3090
19565SOL     OW58240   4.684   1.547   0.577  0.5455  0.4985  0.6944
19565SOL    HW158241   4.751   1.619   0.558  1.3183 -0.3267  0.1974
19565SOL    HW258242   4.632   1.527   0.494  0.0984  0.7213  0.9215
19568SOL     OW58243   1.867   7.738   4.201  0.5783 -0.0435 -0.1741
19568SOL    HW158244   1.770   7.763   4.195  1.0107  2.5422  2.3046
19568SOL    HW258245   1.923   7.814   4.168  1.8391  0.2129  2.4502
19569SOL     OW58246   9.650   7.124   7.620 -0.0926  0.1775 -0.1530
19569SOL    HW158247   9.710   7.063   7.567 -0.7904 -1.1750  0.5724
19569SOL    HW258248   9.564   7.077   7.639 -0.2921  1.0626  1.1947
19570SOL     OW58249   2.711   6.064   1.709  0.0068  0.1355  0.4095
19570SOL    HW158250   2.798   6.091   1.668 -0.5294 -0.6669 -1.3415
19570SOL    HW258251   2.705   6.098   1.803  2.3667 -0.1621  0.6859
19571SOL     OW58252   6.986   5.763   1.124 -0.2842 -0.0873  0.1196
19571SOL    HW158253   6.936   5.838   1.167  0.5186  0.0595  0.8114
19571SOL    HW258254   7.050   5.723   1.189  0.5195 -0.2649 -0.7569
19572SOL     OW58255   3.253   6.141   3.053 -0.5309  0.0419  0.2245
19572SOL    HW158256   3.340   6.171   3.012 -0.8428 -1.3499 -1.5169
19572SOL    HW258257   3.227   6.053   3.014 -2.8373  0.5308  0.6206
19574SOL     OW58258   1.517   0.307   5.254  0.3053 -0.2413  0.2334
19574SOL    HW158259   1.514   0.228   5.193  2.2201 -0.3692  0.2734
19574SOL    HW258260   1.427   0.351   5.256 -0.5809 -1.9593 -0.3755
19575SOL     OW58261   4.588   8.615   1.741 -0.0016  0.1022  0.0685
19575SOL    HW158262   4.647   8.687   1.704 -0.4954  0.4402 -0.0596
19575SOL    HW258263   4.520   8.589   1.673 -2.0716  1.9954  1.3529
19576SOL     OW58264   2.711   0.080   4.914  0.6284 -0.0932  0.0873
19576SOL    HW158265   2.739   0.173   4.890  0.7770 -0.3096 -0.5947
19576SOL    HW258266   2.659   0.082   5.000  0.2415  0.6738 -0.1550
19577SOL     OW58267   0.455   1.687   3.828  0.1169 -0.3892  0.2320
19577SOL    HW158268   0.548   1.718   3.806  0.4248 -0.1809  1.8243
19577SOL    HW258269   0.425   1.621   3.759  0.4389  1.5031 -1.7883
19578SOL     OW58270   5.781   5.001   1.165  0.2546  0.2814  0.2500
19578SOL    HW158271   5.870   4.969   1.135 -0.3706 -1.0204 -0.2885
19578SOL    HW258272   5.790   5.048   1.253  1.4958  0.4200  0.0581
19579SOL     OW58273   0.447   9.650   0.218 -0.1659 -0.0708  0.5641
19579SOL    HW158274   0.350   9.634   0.239  0.0568 -2.3996 -0.0036
19579SOL    HW258275   0.496   9.672   0.302 -0.5340 -2.4747  1.4323
19580SOL     OW58276   0.934   4.554   2.619 -0.4811 -0.3203  0.1742
19580SOL    HW158277   0.896   4.631   2.568  2.4973  1.1475  0.1000
19580SOL    HW258278   0.911   4.563   2.716  2.6987  2.5292  0.7263
19581SOL     OW58279   9.529   1.747   1.896  0.4991  0.1287 -0.1599
19581SOL    HW158280   9.482   1.659   1.890 -0.4790  0.6743 -0.5440
19581SOL    HW258281   9.541   1.772   1.992  0.6086 -0.3240 -0.0526
19583SOL     OW58282   0.552   4.965   1.398  0.1239  0.2266  0.2746
19583SOL    HW158283   0.548   5.064   1.405 -0.3899  0.2858 -0.7774
19583SOL    HW258284   0.467   4.930   1.358  0.7410 -0.5323 -0.4090
19585SOL     OW58285   2.858   1.982   2.141 -0.4651 -0.0485 -0.0013
19585SOL    HW158286   2.815   2.073   2.138 -0.3639  0.0626  1.4435
19585SOL    HW258287   2.906   1.965   2.055 -0.8263  1.0963 -0.4455
19586SOL     OW58288   2.712   5.340   3.826 -0.2605 -0.0355  0.2093
19586SOL    HW158289   2.785   5.290   3.873 -0.5613  1.9986  3.0037
19586SOL    HW258290   2.646   5.275   3.790  1.7141 -1.8179 -0.3009
19587SOL     OW58291   3.567   5.659   3.732  1.1093  0.4855  0.2063
19587SOL    HW158292   3.579   5.560   3.745 -0.2108  0.3832  0.7063
19587SOL    HW258293   3.625   5.689   3.656  1.0479 -0.8021 -0.3789
19588SOL     OW58294   8.918   3.421   3.321  0.3574  0.1579 -0.3872
19588SOL    HW158295   8.859   3.341   3.308 -0.8634  0.9275  0.3146
19588SOL    HW258296   8.999   3.395   3.373  0.0051 -0.6388 -0.2312
19589SOL     OW58297   8.488   3.881   0.331 -0.0817  0.0420 -0.5990
19589SOL    HW158298   8.476   3.916   0.239 -0.1857 -1.1668 -1.0443
19589SOL    HW258299   8.461   3.785   0.335 -2.1072  0.6515  1.1817
19590SOL     OW58300   2.162   2.822   2.711 -0.3230 -0.2751 -0.3744
19590SOL    HW158301   2.093   2.874   2.660 -0.6470 -1.2796 -0.9678
19590SOL    HW258302   2.130   2.729   2.725  0.0264 -0.1643  1.1762
19591SOL     OW58303   5.226   2.262   1.638 -0.4428  0.1962  0.5258
19591SOL    HW158304   5.302   2.237   1.578 -0.0876 -0.0612  1.0775
19591SOL    HW258305   5.200   2.182   1.693 -2.0794 -0.1376 -0.6982
19592SOL     OW58306   5.530   2.331   7.782 -0.7506 -0.0501  0.1609
19592SOL    HW158307   5.470   2.251   7.788  0.0744 -0.6993 -0.1744
19592SOL    HW258308   5.614   2.312   7.832 -0.1135  0.2100 -0.8026
19593SOL     OW58309   5.424   7.505   2.051 -0.8083  0.3475  0.0814
19593SOL    HW158310   5.499   7.441   2.035 -1.7789 -0.9923  0.7128
19593SOL    HW258311   5.455   7.580   2.109 -0.3339 -1.0035  1.6100
19594SOL     OW58312   1.980   6.332   1.595 -0.1047  0.5838 -0.2380
19594SOL    HW158313   1.946   6.426   1.589 -1.0887  0.3696  1.5755
19594SOL    HW258314   2.021   6.317   1.685 -2.2102 -1.4169  0.4312
19595SOL     OW58315   4.354   8.923   6.670  0.2254  0.7963 -0.8193
19595SOL    HW158316   4.322   8.837   6.711  0.7699  0.5353 -0.9312
19595SOL    HW258317   4.335   8.998   6.732 -0.3571  0.6069 -0.7684
19596SOL     OW58318   0.616   6.060   4.214  0.2200  0.3475 -0.0589
19596SOL    HW158319   0.711   6.076   4.238  0.3301 -0.1989 -0.1099
19596SOL    HW258320   0.606   5.967   4.177 -0.3154  0.4267 -0.1285
19597SOL     OW58321   9.061   2.761   2.586  0.0471 -0.3509  0.0049
19597SOL    HW158322   9.108   2.735   2.671  0.2517 -1.7592 -0.5200
19597SOL    HW258323   9.068   2.859   2.573  1.6895 -0.3673  0.6322
19598SOL     OW58324   2.663   2.114   0.080  0.6533 -0.1397 -0.2990
19598SOL    HW158325   2.626   2.035   0.032  2.2215 -0.7353 -0.5506
19598SOL    HW258326   2.675   2.092   0.177  2.0783 -0.5683 -0.5676
19599SOL     OW58327   0.328   2.547   6.444 -0.4476  0.2318 -0.5748
19599SOL    HW158328   0.282   2.507   6.365  0.1399 -0.8338 -0.3932
19599SOL    HW258329   0.398   2.611   6.413  0.4843 -0.9547 -0.9559
19600SOL     OW58330   0.268   5.041   6.005 -0.5870 -0.6584  0.4362
19600SOL    HW158331   0.258   5.011   6.100 -1.6446  0.1546  0.5847
19600SOL    HW258332   0.190   5.007   5.951 -1.6768  1.5815  0.5530
19601SOL     OW58333   9.824   3.123   7.184 -0.6201  0.0152  0.5282
19601SOL    HW158334   9.732   3.133   7.146 -0.0377 -0.7811 -1.1777
19601SOL    HW258335   9.888   3.102   7.110  0.3442 -2.9655  2.0990
19603SOL     OW58336   3.643   7.422   7.543  0.3048  0.1261 -0.4602
19603SOL    HW158337   3.643   7.370   7.628 -0.9773  0.2307 -0.3847
19603SOL    HW258338   3.653   7.359   7.466 -0.9147 -0.2218 -0.3512
19604SOL     OW58339   7.938   6.315   1.303  0.2636  0.1050  0.5123
19604SOL    HW158340   8.009   6.273   1.360  0.2994  1.6942  1.6896
19604SOL    HW258341   7.970   6.405   1.273 -0.3801 -0.0877 -0.7689
19605SOL     OW58342   3.584   5.376   3.565 -0.3814 -0.0371  0.1681
19605SOL    HW158343   3.490   5.344   3.577 -0.2915 -0.1631  0.5506
19605SOL    HW258344   3.590   5.432   3.482 -0.7728 -0.1079  0.0908
19606SOL     OW58345   1.082   4.359   6.164 -0.2190 -0.1815 -0.3838
19606SOL    HW158346   1.122   4.451   6.171  1.3297 -0.9165  0.6455
19606SOL    HW258347   1.155   4.291   6.156 -1.3474 -1.3675 -0.8126
19607SOL     OW58348   9.931   3.514   4.005  0.1968  0.0435 -0.0885
19607SOL    HW158349   9.857   3.447   4.016 -0.1347  0.3282 -0.5405
19607SOL    HW258350   9.950   3.526   3.907  1.4681 -0.7054  0.0645
19608SOL     OW58351   3.871   8.100   2.626  0.3140  0.4765 -0.0714
19608SOL    HW158352   3.952   8.041   2.622  1.8624  2.4680  1.2101
19608SOL    HW258353   3.812   8.071   2.701  2.3396  2.1001  2.2044
19609SOL     OW58354   1.273   7.947   2.470 -0.0391 -0.8227 -0.1276
19609SOL    HW158355   1.284   8.042   2.500 -1.4482 -0.9808  0.9169
19609SOL    HW258356   1.328   7.887   2.528 -1.1199 -0.9011  0.8356
19610SOL     OW58357   3.814   3.246   7.723  0.3756  0.0403 -0.1870
19610SOL    HW158358   3.736   3.310   7.717  0.1519 -0.0420  1.5384
19610SOL    HW258359   3.866   3.249   7.638 -1.0682  0.6838 -1.0733
19611SOL     OW58360   3.180   2.187   7.641  0.4297 -0.0527 -0.0644
19611SOL    HW158361   3.082   2.164   7.644  0.5023 -0.2594  0.6867
19611SOL    HW258362   3.227   2.122   7.583  0.3434 -0.7714  0.6648
19612SOL     OW58363   2.208   5.847   5.856 -0.5122  0.7692  0.2147
19612SOL    HW158364   2.254   5.876   5.773 -2.0111  1.8699 -0.2681
19612SOL    HW258365   2.121   5.804   5.832 -0.9540  1.0924  1.1926
19613SOL     OW58366   9.886   4.474   1.695  0.4376 -0.0404 -0.2013
19613SOL    HW158367   9.864   4.387   1.651 -0.0842 -0.6057  1.1196
19613SOL    HW258368   9.962   4.518   1.648 -0.3282 -0.4565 -1.8400
19614SOL     OW58369   1.217   9.822   4.505  0.3296  0.4929 -0.2348
19614SOL    HW158370   1.251   9.916   4.506  1.5144  0.0681 -0.4796
19614SOL    HW258371   1.241   9.777   4.591 -0.0225  0.3228 -0.2214
19615SOL     OW58372   7.916   3.295   0.395 -0.6590  0.2942 -0.7617
19615SOL    HW158373   7.938   3.272   0.490 -1.3308  3.3586  0.2002
19615SOL    HW258374   7.999   3.327   0.349 -0.2466 -1.5708 -1.3747
19616SOL     OW58375   9.842   3.129   0.496  0.8151 -0.5914 -0.0111
19616SOL    HW158376   9.834   3.201   0.564  1.6266 -1.9064  1.5414
19616SOL    HW258377   9.932   3.135   0.451  1.5086 -1.5199  1.2099
19617SOL     OW58378   9.278   6.382   0.215 -0.1757 -0.0712  0.8935
19617SOL    HW158379   9.340   6.450   0.254 -0.1822  0.4918 -0.0560
19617SOL    HW258380   9.223   6.424   0.143  0.0625 -1.1647  0.0586
19618SOL     OW58381   9.654   0.079   7.590 -0.6584 -0.4022  0.5418
19618SOL    HW158382   9.649   0.102   7.493 -0.5372 -2.1585  0.0954
19618SOL    HW258383   9.684   0.159   7.643 -0.1768  0.3964 -0.9277
19619SOL     OW58384   0.256   2.484   2.649 -0.4800  0.3188 -0.5143
19619SOL    HW158385   0.294   2.525   2.566  2.7913  0.0567  0.7818
19619SOL    HW258386   0.293   2.530   2.729 -0.9274 -1.6535  0.8591
19620SOL     OW58387   6.877   4.992   1.664 -0.0998  0.3760  0.0174
19620SOL    HW158388   6.813   5.064   1.691  0.8582  0.7516  1.3312
19620SOL    HW258389   6.840   4.942   1.585 -1.8896  0.7186  0.6234
19623SOL     OW58390   6.259   3.647   0.248  0.1723  0.2741  0.4658
19623SOL    HW158391   6.250   3.548   0.234  1.2171  0.4057 -1.2537
19623SOL    HW258392   6.183   3.680   0.304 -2.5188 -0.8440 -2.3518
19624SOL     OW58393   2.975   0.211   3.063 -0.1350  0.1491  0.3232
19624SOL    HW158394   2.993   0.290   3.122 -1.1306  0.1988  0.5721
19624SOL    HW258395   3.044   0.207   2.991  0.9277  0.2464  1.3218
19625SOL     OW58396   4.070   9.425   3.270 -0.6070  0.5854 -0.1723
19625SOL    HW158397   4.002   9.352   3.272 -0.5101  0.4982 -0.0204
19625SOL    HW258398   4.118   9.428   3.358 -0.3480  0.5816 -0.3134
19627SOL     OW58399   5.605   8.779   6.528  0.6841  0.0648  0.4013
19627SOL    HW158400   5.619   8.699   6.586  0.2266  0.2788  0.8121
19627SOL    HW258401   5.508   8.800   6.524  0.8431  0.8980  0.7097
19628SOL     OW58402   1.842   2.564   3.418  0.0690  0.3562 -0.8665
19628SOL    HW158403   1.743   2.579   3.411  0.2808  2.1759 -0.3252
19628SOL    HW258404   1.875   2.600   3.505  1.2085 -0.2386 -1.0458
19630SOL     OW58405   0.503   5.221   4.138  0.7208 -0.5662  0.0136
19630SOL    HW158406   0.589   5.181   4.105  0.3305 -1.9081  0.6131
19630SOL    HW258407   0.427   5.160   4.117  0.2777 -0.7655  2.0577
19631SOL     OW58408   2.431   6.124   2.406 -0.5456  0.7308 -0.0180
19631SOL    HW158409   2.361   6.093   2.471 -0.5056  0.7797  0.0493
19631SOL    HW258410   2.432   6.064   2.327  0.4741 -0.2722  0.7315
19632SOL     OW58411   9.813   6.555   5.049 -0.2145 -0.7724 -0.0995
19632SOL    HW158412   9.732   6.608   5.020 -1.0630 -1.0448  1.6894
19632SOL    HW258413   9.889   6.618   5.067 -1.0481 -0.1700  1.4640
19633SOL     OW58414   6.132   8.433   5.471 -0.4222 -0.7246  0.0332
19633SOL    HW158415   6.182   8.516   5.497  0.0682 -0.8850 -0.3862
19633SOL    HW258416   6.109   8.436   5.374  0.6247 -1.5981 -0.2548
19634SOL     OW58417   2.924   1.588   7.014 -0.1208 -0.4245 -0.1659
19634SOL    HW158418   2.998   1.525   7.034 -0.1854  0.3745  2.7846
19634SOL    HW258419   2.949   1.644   6.934  2.0315 -0.8027  0.2059
19635SOL     OW58420   7.148   7.705   2.487  0.0977  0.0908  0.0784
19635SOL    HW158421   7.211   7.752   2.550 -0.1301  1.4930 -0.7071
19635SOL    HW258422   7.191   7.697   2.397  0.5785 -2.2619  0.4852
19636SOL     OW58423   8.720   5.368   3.257 -0.2016 -0.4605 -0.1491
19636SOL    HW158424   8.809   5.356   3.214 -1.0283  0.4876 -2.1672
19636SOL    HW258425   8.648   5.336   3.195 -1.4236  0.9306  0.5212
19638SOL     OW58426   9.194   1.629   4.811  0.8759  0.2459 -0.2808
19638SOL    HW158427   9.128   1.560   4.843  0.3877  0.9174  0.1630
19638SOL    HW258428   9.145   1.711   4.781  1.6016  1.4535  1.7696
19641SOL     OW58429   4.425   8.509   3.010 -0.1846 -0.3913 -0.0178
19641SOL    HW158430   4.445   8.490   2.914  1.7639  1.6820 -0.0519
19641SOL    HW258431   4.393   8.603   3.019 -1.3526 -0.8915  1.2689
19642SOL     OW58432   2.099   1.218   2.724 -0.4115 -0.0641  0.5562
19642SOL    HW158433   2.171   1.179   2.782  1.8623  1.4853 -1.1470
19642SOL    HW258434   2.077   1.310   2.756  0.5337  0.6248 -0.7543
19643SOL     OW58435   1.614   0.628   0.046  0.2106  0.3248 -0.2013
19643SOL    HW158436   1.615   0.625  -0.054  0.8317  2.9262 -0.3208
19643SOL    HW258437   1.690   0.685   0.078 -0.0989 -0.3256  1.7517
19644SOL     OW58438   8.648   7.149   0.115 -0.2302  0.2944 -0.2869
19644SOL    HW158439   8.647   7.170   0.018  2.5518  2.3721  0.0772
19644SOL    HW258440   8.734   7.105   0.139 -1.1874 -0.8477  1.1198
19645SOL     OW58441   1.279   7.226   7.594 -0.3101  0.2903  0.6486
19645SOL    HW158442   1.279   7.251   7.497 -0.8505 -0.9583  0.3164
19645SOL    HW258443   1.294   7.308   7.649  2.3952  0.6715 -0.5700
19646SOL     OW58444   1.431   5.470   2.351 -0.1679 -0.8407  0.2608
19646SOL    HW158445   1.522   5.483   2.311 -0.5017  0.8317 -0.0005
19646SOL    HW258446   1.425   5.522   2.436 -0.9903 -0.6904  0.1153
19647SOL     OW58447   4.226   8.988   0.899 -0.1520  0.2819  0.3276
19647SOL    HW158448   4.315   8.942   0.892 -0.4976 -0.1579 -1.6978
19647SOL    HW258449   4.158   8.937   0.846 -1.2348  1.5134  0.4987
19650SOL     OW58450   3.582   0.265   0.889  0.0261 -0.7067 -0.5452
19650SOL    HW158451   3.569   0.262   0.790 -1.8914  0.7092 -0.3743
19650SOL    HW258452   3.596   0.360   0.918  1.4880 -1.2170  0.4318
19651SOL     OW58453   2.981   3.310   1.054 -0.0679 -0.2227 -0.2356
19651SOL    HW158454   2.918   3.371   1.006  0.0159  0.3337  0.3503
19651SOL    HW258455   3.011   3.354   1.138 -0.4312 -1.3070  0.4681
19652SOL     OW58456   2.267   6.758   2.397 -0.1452 -0.3454  0.2039
19652SOL    HW158457   2.278   6.667   2.357 -0.5807 -0.4472  0.3096
19652SOL    HW258458   2.333   6.820   2.356 -0.4524 -0.4943 -0.5447
19653SOL     OW58459   4.515   9.014   1.714 -0.5242  0.1935 -0.3617
19653SOL    HW158460   4.466   8.939   1.758  0.4176 -0.2097  0.0255
19653SOL    HW258461   4.536   9.084   1.782  0.5736 -0.2414 -0.2414
19654SOL     OW58462   7.696   6.263   1.809  0.2040 -0.0625  0.6097
19654SOL    HW158463   7.647   6.220   1.734 -0.8572 -1.9689  2.3277
19654SOL    HW258464   7.778   6.308   1.775 -0.0760 -1.1828 -1.6090
19655SOL     OW58465   6.599   4.233   1.793 -0.2498 -0.5079 -0.4114
19655SOL    HW158466   6.609   4.261   1.697  1.5977 -2.2766 -0.7729
19655SOL    HW258467   6.646   4.298   1.852 -0.2519 -0.1334 -0.8204
19656SOL     OW58468   9.547   1.110   2.990 -1.0363  0.6262 -0.2302
19656SOL    HW158469   9.603   1.045   2.939  0.1203  1.0255  0.5151
19656SOL    HW258470   9.536   1.194   2.937  0.9989  1.4245  0.5725
19658SOL     OW58471   7.626   1.151   3.176 -0.4952  0.1145 -0.3609
19658SOL    HW158472   7.715   1.171   3.217 -0.3679  0.4707 -0.8051
19658SOL    HW258473   7.554   1.194   3.231 -0.2669  1.2706 -0.9591
19659SOL     OW58474   4.812   6.347   7.787  0.0458 -0.3389 -0.2115
19659SOL    HW158475   4.893   6.343   7.846  1.2626 -0.4412 -1.8601
19659SOL    HW258476   4.759   6.428   7.809  0.5353 -0.3283  0.9721
19660SOL     OW58477   6.532   0.863   3.546  0.5046 -0.0559  0.1199
19660SOL    HW158478   6.433   0.877   3.555  0.0877 -2.2696 -0.6040
19660SOL    HW258479   6.561   0.790   3.607  1.2716 -1.0012 -1.3604
19661SOL     OW58480   9.468   7.504   2.747 -0.5212  0.1635 -0.2409
19661SOL    HW158481   9.518   7.431   2.701  1.5973  0.3214  1.6974
19661SOL    HW258482   9.510   7.592   2.726 -0.6850  0.4221  0.4841
19662SOL     OW58483   7.789   3.861   2.739  0.4860  0.1306 -0.2676
19662SOL    HW158484   7.770   3.875   2.642  2.0743  2.5044 -0.2723
19662SOL    HW258485   7.766   3.944   2.790  4.4882  0.7864  0.6209
19663SOL     OW58486   4.680   6.788   0.364  0.3270  0.2224  0.3372
19663SOL    HW158487   4.613   6.764   0.434  0.9614 -2.2492  0.1181
19663SOL    HW258488   4.659   6.740   0.279  0.8793  1.4635 -0.5207
19664SOL     OW58489   0.247   6.470   2.862  0.0851  0.2003  0.0794
19664SOL    HW158490   0.320   6.488   2.927 -0.3202  0.5985  0.4302
19664SOL    HW258491   0.286   6.448   2.772  0.6020  1.8156 -0.0916
19665SOL     OW58492   9.349   6.758   3.108  0.0617 -0.2686 -0.5799
19665SOL    HW158493   9.302   6.820   3.044  0.1818 -0.3592 -0.7546
19665SOL    HW258494   9.283   6.693   3.146  0.1372 -0.6872 -1.1720
19666SOL     OW58495   7.794   5.289   6.626 -0.4099  0.6001  0.3299
19666SOL    HW158496   7.757   5.355   6.691 -2.5901 -0.6754  0.4385
19666SOL    HW258497   7.738   5.206   6.628  0.8314 -0.3110 -1.5661
19668SOL     OW58498   7.045   0.449   2.185  0.0249 -0.0138 -0.1462
19668SOL    HW158499   7.133   0.458   2.139  0.0191  1.3775  0.1163
19668SOL    HW258500   7.037   0.356   2.221  1.3471 -0.1771 -0.2316
19669SOL     OW58501   8.360   4.511   2.411 -0.1810 -0.4810  0.0528
19669SOL    HW158502   8.335   4.592   2.358  0.2763 -0.4706 -0.1541
19669SOL    HW258503   8.305   4.507   2.494 -1.4370 -0.8932 -0.7804
19670SOL     OW58504   1.713   5.320   5.985 -0.4249  0.1426 -0.4781
19670SOL    HW158505   1.808   5.311   5.954  0.1991  1.1575  1.0709
19670SOL    HW258506   1.665   5.384   5.926 -0.7693 -1.9527 -2.5579
19671SOL     OW58507   2.458   2.174   6.456 -0.1352 -0.4863  0.2994
19671SOL    HW158508   2.363   2.147   6.441 -0.9007  1.6786  1.0582
19671SOL    HW258509   2.488   2.233   6.381 -0.5857  1.7628  1.8315
19673SOL     OW58510   3.858   2.630   6.707 -0.1241  0.4408 -0.2645
19673SOL    HW158511   3.870   2.704   6.641 -1.3090  0.9722  0.1013
19673SOL    HW258512   3.829   2.667   6.795  0.3536 -0.3622  0.2422
19674SOL     OW58513   4.293   8.675   4.061  0.1184  0.5682  0.0192
19674SOL    HW158514   4.208   8.657   4.010  1.0692  1.6239 -2.0298
19674SOL    HW258515   4.362   8.608   4.035  0.9645  1.8031 -0.9776
19675SOL     OW58516   9.015   7.567   4.050 -0.7187 -0.2514  0.4500
19675SOL    HW158517   9.046   7.542   4.141  0.4551  0.7787  0.3537
19675SOL    HW258518   8.997   7.485   3.996 -1.1809 -0.8568  1.5334
19676SOL     OW58519   8.172   4.103   0.438 -0.1535  0.3446 -0.6759
19676SOL    HW158520   8.190   4.043   0.517 -0.6670 -0.9510 -1.5264
19676SOL    HW258521   8.080   4.085   0.403 -0.2625  1.5587 -1.0172
19677SOL     OW58522   8.458   3.778   0.669  0.0285  0.2135  0.3007
19677SOL    HW158523   8.505   3.720   0.601  0.5676  0.3674  0.5372
19677SOL    HW258524   8.514   3.859   0.687  0.5536 -0.5025  1.9530
19678SOL     OW58525   2.057   0.707   1.224  0.1441 -0.2618  0.3769
19678SOL    HW158526   1.999   0.642   1.175 -0.0962 -0.7957  1.3522
19678SOL    HW258527   2.078   0.671   1.315  0.7448  0.6272  0.5985
19679SOL     OW58528   5.222   6.498   1.627  0.0441  0.0025  0.6952
19679SOL    HW158529   5.231   6.409   1.583  0.1133 -0.3924  1.4917
19679SOL    HW258530   5.224   6.570   1.558  0.0331 -0.6099  0.0503
19680SOL     OW58531   6.330   8.222   2.148 -0.3916  0.0650  0.3969
19680SOL    HW158532   6.330   8.261   2.240 -0.1661  0.2452  0.3204
19680SOL    HW258533   6.371   8.131   2.149  1.3386  0.8322  0.1464
19681SOL     OW58534   9.076   8.798   4.841 -0.0674 -0.3697  0.0792
19681SOL    HW158535   9.147   8.741   4.801  1.2240  0.1986  1.5194
19681SOL    HW258536   9.114   8.887   4.865 -0.9306 -0.5291  2.1029
19682SOL     OW58537   0.545   2.793   4.761 -0.6164 -0.7505  0.4008
19682SOL    HW158538   0.583   2.767   4.850  0.1717  0.7060  0.5097
19682SOL    HW258539   0.445   2.801   4.769 -0.4771  0.1759  1.3685
19683SOL     OW58540   2.131   1.954   7.261  0.0275 -0.3996 -0.0846
19683SOL    HW158541   2.167   2.010   7.336  1.3346 -1.2146 -0.0821
19683SOL    HW258542   2.164   1.860   7.271 -0.2451 -0.6415 -1.3697
19684SOL     OW58543   3.359   3.397   1.133 -0.4331 -0.2095 -0.3483
19684SOL    HW158544   3.437   3.403   1.196 -1.1628 -0.9546  0.6430
19684SOL    HW258545   3.274   3.399   1.185 -1.0162 -2.9798 -1.0924
19686SOL     OW58546   5.249   2.094   6.550 -0.1315  0.0722 -0.2319
19686SOL    HW158547   5.286   2.185   6.569 -1.0060  0.2929  0.4627
19686SOL    HW258548   5.229   2.047   6.635 -0.4504 -0.4495 -0.5912
19687SOL     OW58549   6.550   1.999   2.896  0.5783  0.5789 -0.2671
19687SOL    HW158550   6.454   2.023   2.884  0.2622  1.1039  2.9770
19687SOL    HW258551   6.603   2.080   2.918  1.0693 -0.2465  1.7482
19688SOL     OW58552   7.852   9.995   1.380  0.9277  0.2074  0.1502
19688SOL    HW158553   7.783  10.039   1.437  0.3889 -0.7797  0.2845
19688SOL    HW258554   7.888   9.915   1.429  0.7700 -0.3955 -0.7022
19689SOL     OW58555   7.405   0.270   2.717  0.2869  0.0911  0.3263
19689SOL    HW158556   7.333   0.334   2.745 -2.2651 -2.0185 -1.2030
19689SOL    HW258557   7.369   0.177   2.719  1.7655 -0.6948 -4.1956
19691SOL     OW58558   3.101   9.180   6.872 -0.3483 -0.3852  0.4946
19691SOL    HW158559   3.007   9.207   6.894 -1.1756 -1.6212 -1.3593
19691SOL    HW258560   3.141   9.132   6.949 -1.4932 -0.4824  1.0432
19692SOL     OW58561   8.890   2.257   0.086  0.2141  0.1564 -0.1220
19692SOL    HW158562   8.802   2.287   0.125  1.1174  0.3877  1.7907
19692SOL    HW258563   8.893   2.282  -0.011 -0.7927  2.4630  0.4025
19693SOL     OW58564   3.395   7.217   5.016  0.0369 -0.2662  1.0857
19693SOL    HW158565   3.298   7.203   5.038 -0.2969  0.5497  0.1383
19693SOL    HW258566   3.445   7.131   5.031 -0.9283 -0.8495  1.0192
19694SOL     OW58567   3.954   7.971   1.197 -0.4128 -0.0560 -0.6032
19694SOL    HW158568   3.923   8.042   1.134  1.6543  0.3364 -1.2091
19694SOL    HW258569   4.015   7.908   1.149 -0.2778 -0.8040  0.5408
19696SOL     OW58570   1.945   9.350   7.210  0.1941  0.1588  0.0971
19696SOL    HW158571   1.899   9.438   7.211 -0.1114  0.1007 -2.8987
19696SOL    HW258572   1.925   9.300   7.294  2.2789  3.8448  2.9241
19697SOL     OW58573   5.454   1.708   7.463  0.0130 -0.0325 -0.1736
19697SOL    HW158574   5.450   1.677   7.558  0.8003  0.5114  0.0446
19697SOL    HW258575   5.420   1.636   7.403  0.3844 -0.7332  0.4481
19698SOL     OW58576   4.449   5.975   7.648 -0.1056 -0.2167 -0.3815
19698SOL    HW158577   4.531   6.018   7.686 -0.5867  0.7516 -0.4172
19698SOL    HW258578   4.415   5.906   7.712  0.1996  0.0357  0.0556
19699SOL     OW58579   0.201   4.332   6.483  0.4805  0.0837  0.6020
19699SOL    HW158580   0.288   4.284   6.489 -0.3663 -1.2165  3.1197
19699SOL    HW258581   0.214   4.428   6.510  1.3314  0.1725 -0.1142
19700SOL     OW58582   0.778   6.757   4.017 -0.7357 -0.1714  0.1523
19700SOL    HW158583   0.856   6.772   4.078 -0.6080 -0.7369  0.1270
19700SOL    HW258584   0.702   6.718   4.069 -0.9216  0.1530  0.1260
19701SOL     OW58585   6.620   7.393   2.334 -0.2100 -0.0527 -0.3021
19701SOL    HW158586   6.571   7.418   2.418 -2.4990  0.6255 -1.7845
19701SOL    HW258587   6.567   7.326   2.283  1.7658 -1.4113 -0.6320
19702SOL     OW58588   8.188   5.423   0.370 -0.2183  0.4649  0.0546
19702SOL    HW158589   8.101   5.420   0.320 -0.6024  0.0717  0.7303
19702SOL    HW258590   8.205   5.333   0.411  0.2095  0.7194  0.4322
19703SOL     OW58591   5.753   5.158   0.840 -0.1018 -0.3058  0.1790
19703SOL    HW158592   5.698   5.191   0.764  0.7035  1.3655  0.2956
19703SOL    HW258593   5.721   5.200   0.925  0.9228  0.1598  0.3370
19704SOL     OW58594   3.815   3.092   0.555  0.4539 -0.5251  0.5796
19704SOL    HW158595   3.909   3.062   0.567  0.1955 -0.7007  2.2510
19704SOL    HW258596   3.768   3.092   0.643 -1.0287 -0.1540 -0.1884
19706SOL     OW58597   9.165   6.023   5.271  0.0501 -0.1888 -0.8766
19706SOL    HW158598   9.158   5.949   5.204  1.4153 -2.5819  1.5314
19706SOL    HW258599   9.260   6.054   5.276 -0.0098 -0.1631  0.1084
19707SOL     OW58600   9.464   0.319   6.263 -0.1108 -0.2501 -0.1977
19707SOL    HW158601   9.528   0.267   6.207 -1.9752 -2.1196 -0.6661
19707SOL    HW258602   9.442   0.405   6.218  1.4834  0.0876 -0.3704
19709SOL     OW58603   0.899   8.371   5.054  0.6015  0.0893  0.1310
19709SOL    HW158604   0.849   8.286   5.071 -2.1652  1.2693 -1.5896
19709SOL    HW258605   0.965   8.387   5.127  2.3993 -4.3648 -0.3735
19710SOL     OW58606   4.493   5.042   3.990 -0.1029 -1.0018  0.4116
19710SOL    HW158607   4.512   5.137   3.966 -0.3165 -1.1820 -0.4945
19710SOL    HW258608   4.486   4.987   3.907  1.8016 -2.1596  0.9633
19711SOL     OW58609   7.611   8.865   6.570  0.1316  0.0386 -0.3987
19711SOL    HW158610   7.651   8.910   6.650  0.4381 -0.2719 -0.3747
19711SOL    HW258611   7.673   8.876   6.492  0.1392 -0.2186 -0.4277
19712SOL     OW58612   7.573   9.353   3.669 -0.0757 -0.0426  0.0937
19712SOL    HW158613   7.514   9.283   3.710 -1.2535  0.5479 -0.5870
19712SOL    HW258614   7.647   9.376   3.733 -0.5467 -0.8269  0.9229
19713SOL     OW58615   3.615   3.298   6.497 -0.6642 -0.2321  0.1343
19713SOL    HW158616   3.532   3.352   6.515 -0.5815 -0.2308  0.5194
19713SOL    HW258617   3.602   3.244   6.414 -0.9218  0.0318 -0.0002
19714SOL     OW58618   3.903   4.050   6.963  0.3415 -0.2370 -0.0327
19714SOL    HW158619   3.990   4.071   6.919  0.0043  1.1083 -0.0690
19714SOL    HW258620   3.916   3.976   7.029  1.2944 -0.7594 -0.7977
19715SOL     OW58621   8.416   5.344   3.857  0.3622 -0.1722  0.1567
19715SOL    HW158622   8.476   5.402   3.802 -0.5395  0.2942 -0.3441
19715SOL    HW258623   8.398   5.388   3.945  1.4362 -0.7092  0.6611
19716SOL     OW58624   1.197   5.730   1.818  0.1664  0.0326 -0.1335
19716SOL    HW158625   1.135   5.670   1.867  1.5086  0.5014  2.2077
19716SOL    HW258626   1.290   5.721   1.855  0.9783  1.3159 -1.7501
19717SOL     OW58627   1.941   4.889   6.222 -0.3271  0.3312  0.5945
19717SOL    HW158628   1.853   4.926   6.251 -1.8564 -2.7204  0.0040
19717SOL    HW258629   1.965   4.810   6.278 -0.7541 -2.3630 -2.8311
19718SOL     OW58630   8.619   9.835   1.679  0.4389  0.4520 -0.3524
19718SOL    HW158631   8.593   9.787   1.595  0.0947 -0.1067  0.0689
19718SOL    HW258632   8.572   9.923   1.682 -2.3479 -1.0162  0.9310
19719SOL     OW58633   4.063   1.357   0.765  0.0824  0.2797 -0.2140
19719SOL    HW158634   3.980   1.391   0.808  1.3724  1.0179  1.7667
19719SOL    HW258635   4.136   1.424   0.775  0.6164  0.2144 -3.0818
19720SOL     OW58636   7.696   0.544   4.794  0.5712  0.0050 -0.6551
19720SOL    HW158637   7.623   0.479   4.773  0.4373 -0.5812  1.4975
19720SOL    HW258638   7.694   0.619   4.727 -2.6427  0.5365 -0.0473
19723SOL     OW58639   2.559   5.848   5.509 -0.3465 -0.1867  0.2894
19723SOL    HW158640   2.518   5.916   5.571  1.3055  0.7562  0.3887
19723SOL    HW258641   2.486   5.795   5.466 -1.5944  0.0599  1.9915
19724SOL     OW58642   8.105   1.227   0.345 -0.4873 -0.2528 -0.6409
19724SOL    HW158643   8.180   1.290   0.365 -2.0256  1.8150 -1.1728
19724SOL    HW258644   8.141   1.137   0.322  1.7891  0.6302 -0.5882
19725SOL     OW58645   8.714   0.447   2.246  0.0300  0.2530 -0.0671
19725SOL    HW158646   8.657   0.466   2.166  0.3939 -0.4366 -0.4958
19725SOL    HW258647   8.657   0.407   2.319 -0.2924  0.8409  0.0067
19726SOL     OW58648   5.273   7.993   3.888  0.1007  0.4272 -0.2730
19726SOL    HW158649   5.275   7.981   3.988  1.0985  1.2504 -0.1781
19726SOL    HW258650   5.315   8.081   3.865  2.3682 -0.9653 -1.5854
19729SOL     OW58651   3.025   2.802   3.924 -0.1079 -0.1195 -0.2361
19729SOL    HW158652   3.066   2.821   4.013 -0.5364 -2.9780  0.6195
19729SOL    HW258653   2.984   2.711   3.924 -1.3965  0.3854 -2.9130
19730SOL     OW58654   9.942   5.507   0.079  0.1259  0.2929 -0.6563
19730SOL    HW158655   9.887   5.551   0.008 -0.7226  1.6551  0.8085
19730SOL    HW258656  10.015   5.570   0.108  0.0064  0.0549  0.1960
19731SOL     OW58657   7.030   9.292   6.716 -0.2885 -0.0369 -0.3655
19731SOL    HW158658   7.019   9.380   6.669  0.7454  0.6042  0.5931
19731SOL    HW258659   7.053   9.307   6.812 -0.3060 -1.3636 -0.1341
19732SOL     OW58660   0.384   3.950   7.621  0.6382 -0.1095  0.7250
19732SOL    HW158661   0.436   3.876   7.664  0.4199  0.4583  1.9958
19732SOL    HW258662   0.444   4.001   7.560  0.8716 -1.1306  0.0928
19733SOL     OW58663   7.384   3.003   4.660  0.5712 -0.0076  0.0273
19733SOL    HW158664   7.334   3.055   4.729  1.0577 -1.3002  1.3806
19733SOL    HW258665   7.386   3.054   4.574 -1.0763  1.0862  0.6211
19735SOL     OW58666   9.723   4.159   5.832  0.6795 -0.1647  0.3260
19735SOL    HW158667   9.707   4.060   5.833 -0.2928 -0.0319 -0.3457
19735SOL    HW258668   9.708   4.197   5.923  3.1434 -0.9352  1.0713
19736SOL     OW58669   2.078   3.883   0.068 -0.3687 -0.0055 -0.0968
19736SOL    HW158670   2.038   3.963   0.023 -0.8015 -0.3736 -0.3643
19736SOL    HW258671   2.030   3.866   0.155 -1.9165 -1.4504 -1.2079
19738SOL     OW58672   9.801   6.724   4.700  0.0211  0.0130  0.7580
19738SOL    HW158673   9.716   6.726   4.753 -0.7933 -1.5882 -0.4271
19738SOL    HW258674   9.780   6.709   4.603  1.6835 -1.1408  0.5438
19739SOL     OW58675   4.749   1.268   6.869  0.1947 -0.0961  0.2582
19739SOL    HW158676   4.807   1.243   6.946 -0.9493 -0.4140  1.0408
19739SOL    HW258677   4.667   1.316   6.903  0.0981  0.5496 -0.8320
19740SOL     OW58678   9.732   2.895   6.070  0.1039  0.0058  0.1781
19740SOL    HW158679   9.645   2.935   6.043  0.3905  0.2434 -0.4006
19740SOL    HW258680   9.716   2.822   6.137 -0.4516  0.7605  0.8734
19742SOL     OW58681   7.945   1.123   2.491  0.3653 -0.1135 -0.3113
19742SOL    HW158682   7.927   1.171   2.405 -1.2001  0.5616  0.3735
19742SOL    HW258683   7.894   1.037   2.492  0.9090 -0.4373 -0.3322
19743SOL     OW58684   1.760   6.515   2.083 -0.1060 -0.3839  0.0701
19743SOL    HW158685   1.665   6.493   2.105 -0.4761  0.7703 -0.3092
19743SOL    HW258686   1.781   6.481   1.992 -0.6751  0.7801 -0.5147
19744SOL     OW58687   8.331   0.225   4.764 -0.0572  0.1204  0.0907
19744SOL    HW158688   8.314   0.253   4.670  3.1458 -1.3476 -0.9956
19744SOL    HW258689   8.257   0.165   4.795 -0.7392 -0.0255 -1.7926
19745SOL     OW58690   4.054   8.963   6.502  0.6339  0.3099 -0.1595
19745SOL    HW158691   3.994   8.953   6.423 -0.9287  0.2799  1.0179
19745SOL    HW258692   4.116   8.885   6.507 -0.4402 -0.5747 -0.3660
19747SOL     OW58693   2.797   8.335   4.143 -0.2960 -0.2552  0.0040
19747SOL    HW158694   2.872   8.391   4.107 -0.5047  0.6340  0.9320
19747SOL    HW258695   2.735   8.393   4.195  0.0664 -1.5345  1.8862
19748SOL     OW58696   1.690   2.522   1.476 -0.1178  0.0342  0.0233
19748SOL    HW158697   1.723   2.614   1.451 -1.4094  0.6332  0.4979
19748SOL    HW258698   1.594   2.527   1.503 -0.5994 -1.7074 -1.3113
19749SOL     OW58699   1.641   4.974   0.040 -0.9477  0.2417 -0.2600
19749SOL    HW158700   1.592   5.007  -0.041  1.0535  1.0824 -1.1680
19749SOL    HW258701   1.711   4.908   0.011  0.8625  1.7559  0.5977
19753SOL     OW58702   2.460   4.701   1.440 -0.3233  0.2082 -0.3679
19753SOL    HW158703   2.463   4.747   1.528 -0.7657  2.7171 -1.6188
19753SOL    HW258704   2.553   4.679   1.410 -0.2489 -1.7780  1.2726
19754SOL     OW58705   1.981   2.960   4.000  0.2747 -0.1932  0.2266
19754SOL    HW158706   2.044   2.963   4.078  0.5950 -1.7175  0.0444
19754SOL    HW258707   2.024   3.005   3.922 -0.0947  1.4374  0.9616
19755SOL     OW58708   0.382   2.560   2.377  0.1880  0.0166  0.0144
19755SOL    HW158709   0.314   2.581   2.307  0.8636 -0.5989 -0.8268
19755SOL    HW258710   0.474   2.563   2.337  0.6056  0.0710  0.9651
19756SOL     OW58711   8.940   9.101   3.214  0.0530 -0.5633  0.1648
19756SOL    HW158712   8.910   9.193   3.240 -2.0707 -0.8909 -1.0396
19756SOL    HW258713   8.876   9.033   3.249 -1.3727 -1.1958 -3.4837
19758SOL     OW58714   7.419   7.293   2.124 -0.3997 -0.2447 -0.0850
19758SOL    HW158715   7.373   7.231   2.061 -3.2578  0.9318  0.7729
19758SOL    HW258716   7.387   7.276   2.217  1.3494  0.2342  0.6309
19760SOL     OW58717   9.221   4.237   6.369  0.0680  0.1330 -0.3662
19760SOL    HW158718   9.188   4.330   6.385 -0.2163  0.2447 -1.5194
19760SOL    HW258719   9.153   4.171   6.400 -0.0665  0.3262 -0.2548
19761SOL     OW58720   2.070   9.703   1.024  0.3966  0.4351 -0.0697
19761SOL    HW158721   2.164   9.708   1.057  0.4799 -0.4628 -0.1578
19761SOL    HW258722   2.061   9.756   0.940  1.3955 -1.3921 -1.3529
19762SOL     OW58723   9.719   2.298   2.204  0.1302 -0.9704  0.1825
19762SOL    HW158724   9.730   2.317   2.107  2.2621 -2.1370  0.1732
19762SOL    HW258725   9.755   2.375   2.257 -1.8404  0.0620  0.0768
19764SOL     OW58726   2.725   1.156   2.762  0.1467 -0.6342  0.0573
19764SOL    HW158727   2.786   1.194   2.832 -0.1434 -0.2868  0.1288
19764SOL    HW258728   2.778   1.109   2.692  0.6625  1.2987 -0.8939
19765SOL     OW58729   4.888   2.418   1.269  0.3742  0.1936 -0.1611
19765SOL    HW158730   4.988   2.411   1.265  0.3499 -0.3905  0.3494
19765SOL    HW258731   4.855   2.384   1.356 -0.5091 -2.1943 -1.3772
19766SOL     OW58732   1.961   6.570   2.285  0.4356 -0.2226  0.0741
19766SOL    HW158733   1.982   6.666   2.272  0.7432 -0.3110 -0.0734
19766SOL    HW258734   1.865   6.553   2.262  0.8733 -0.3138 -1.7284
19767SOL     OW58735   1.309   5.911   5.121  0.1138 -0.2021 -0.4451
19767SOL    HW158736   1.374   5.924   5.047 -0.5551  0.1109 -0.9857
19767SOL    HW258737   1.293   5.999   5.167 -1.1325  0.0545 -1.3381
19768SOL     OW58738   1.063   9.130   4.503  0.1031  0.5722  0.0695
19768SOL    HW158739   1.078   9.201   4.572  0.0969  1.0336 -0.4080
19768SOL    HW258740   1.136   9.133   4.435  0.3194 -0.1364  0.2607
19769SOL     OW58741   4.167   5.472   1.462  0.2552 -0.5262  0.4662
19769SOL    HW158742   4.080   5.494   1.507  0.7154 -0.0511  1.1394
19769SOL    HW258743   4.212   5.398   1.512  1.0163  0.3613  1.1093
19770SOL     OW58744   3.970   4.434   1.688 -0.1835  0.2836 -0.0470
19770SOL    HW158745   3.997   4.507   1.750  0.6147 -0.0129 -0.0314
19770SOL    HW258746   3.873   4.415   1.698 -0.3055  1.0635  0.2396
19771SOL     OW58747   5.246   3.611   2.070 -0.1126 -0.1722 -0.1138
19771SOL    HW158748   5.249   3.548   2.147  0.8953  0.0059 -0.0080
19771SOL    HW258749   5.150   3.629   2.046 -0.4216 -0.6393  0.7486
19772SOL     OW58750   5.922   9.090   4.110 -1.0049 -0.4291  0.4405
19772SOL    HW158751   6.011   9.124   4.080 -0.8728  0.5429  1.8914
19772SOL    HW258752   5.932   8.999   4.149 -0.4610  0.1038  1.5702
19773SOL     OW58753   6.782   3.862   0.654 -0.2186 -0.1823 -0.0414
19773SOL    HW158754   6.704   3.819   0.699  1.1130 -0.6495  1.9358
19773SOL    HW258755   6.782   3.960   0.673 -0.2067 -0.2213  0.1661
19774SOL     OW58756   4.783   9.701   6.281  0.7719 -0.0188  0.2169
19774SOL    HW158757   4.837   9.770   6.330 -1.2417  1.0078  1.0712
19774SOL    HW258758   4.837   9.662   6.207  2.8553  0.5674  1.3986
19775SOL     OW58759   1.087   3.855   7.639  0.1480  0.0666 -0.1929
19775SOL    HW158760   1.025   3.853   7.718 -1.7793  1.7670 -1.6004
19775SOL    HW258761   1.039   3.820   7.558  0.7614  2.0333 -1.4637
19776SOL     OW58762   9.838   3.003   6.738 -0.2447  0.2216  0.1677
19776SOL    HW158763   9.838   3.097   6.772 -1.8104  0.7293 -1.1721
19776SOL    HW258764   9.869   3.002   6.642 -2.5446 -0.2953 -0.6006
19778SOL     OW58765   0.762   3.899   4.725  0.0123  0.4711  0.0418
19778SOL    HW158766   0.860   3.882   4.733  0.0100 -0.8772 -2.4514
19778SOL    HW258767   0.711   3.823   4.766 -0.0231  1.2729  1.5302
19779SOL     OW58768   3.670   9.555   4.793  0.6477 -0.1259 -0.3611
19779SOL    HW158769   3.582   9.540   4.839  0.4927 -0.2494 -0.6933
19779SOL    HW258770   3.744   9.527   4.854  0.5381  1.6363  0.6032
19781SOL     OW58771   1.182   4.392   5.085 -0.1711  0.0368  0.2936
19781SOL    HW158772   1.159   4.468   5.025 -0.5313 -0.6904 -0.5019
19781SOL    HW258773   1.267   4.350   5.055 -1.9888 -2.3619 -1.7239
19787SOL     OW58774   4.206   0.782   6.844 -0.3405  0.5914  0.0211
19787SOL    HW158775   4.129   0.721   6.829 -0.5482  0.9392 -0.3337
19787SOL    HW258776   4.286   0.729   6.872 -0.4412  0.1346 -0.5475
19788SOL     OW58777   9.588   7.522   4.131 -0.6374 -0.0159  0.5218
19788SOL    HW158778   9.617   7.559   4.042 -2.1035  1.7834  0.7475
19788SOL    HW258779   9.665   7.478   4.175  0.8229  1.4374 -0.4908
19790SOL     OW58780   4.792   2.404   6.446  0.2608  0.4731 -0.3378
19790SOL    HW158781   4.700   2.367   6.456  0.2972  0.4099 -0.2422
19790SOL    HW258782   4.787   2.499   6.415  0.1796  0.0979 -1.4992
19792SOL     OW58783   0.464   4.300   2.561  0.1010 -0.7367 -0.4145
19792SOL    HW158784   0.520   4.224   2.529  1.1515 -0.5547  0.9702
19792SOL    HW258785   0.395   4.267   2.624 -0.3227 -0.7228 -0.8629
19793SOL     OW58786   2.039   2.894   3.057 -0.5313  0.4357 -0.1409
19793SOL    HW158787   2.026   2.993   3.062  0.7961  0.6524 -0.9218
19793SOL    HW258788   2.120   2.873   3.003  0.3158 -1.0178  1.6206
19794SOL     OW58789   8.809   1.021   5.318 -0.3799  0.5417 -0.1938
19794SOL    HW158790   8.748   1.048   5.244 -0.2771  1.4662  0.0570
19794SOL    HW258791   8.900   1.059   5.303 -0.1365  0.0222 -0.0338
19795SOL     OW58792   7.744   9.863   5.003 -0.1142 -0.6383 -0.2016
19795SOL    HW158793   7.818   9.826   5.059  2.3894  2.1053 -1.6333
19795SOL    HW258794   7.719   9.795   4.933  1.9886 -1.0567 -0.5808
19796SOL     OW58795   8.419   6.078   0.253  0.1752  0.2735  0.0800
19796SOL    HW158796   8.461   6.093   0.342 -0.7717 -0.7781  0.7049
19796SOL    HW258797   8.346   6.010   0.260 -0.1448  0.4253 -1.4264
19797SOL     OW58798   7.821   3.160   3.460  0.4448 -0.1197  0.0407
19797SOL    HW158799   7.883   3.168   3.382 -0.0998  1.5080 -0.2605
19797SOL    HW258800   7.865   3.197   3.542  1.0632 -1.9448  0.5397
19798SOL     OW58801   6.678   8.861   4.421 -0.3375  0.3362  0.2042
19798SOL    HW158802   6.665   8.800   4.343 -1.2869  1.9661 -0.9357
19798SOL    HW258803   6.776   8.870   4.440  0.0236  1.2481 -1.8857
19800SOL     OW58804   7.966   7.031   4.873  0.1484 -0.4032  0.4057
19800SOL    HW158805   8.028   6.955   4.893  2.7344  1.0747 -1.7024
19800SOL    HW258806   7.988   7.069   4.783 -2.2084  1.7672  0.7019
19801SOL     OW58807   4.786   4.427   0.320 -0.3860  0.2188 -0.0957
19801SOL    HW158808   4.821   4.498   0.380 -0.0260 -0.6726  0.7611
19801SOL    HW258809   4.848   4.416   0.242  0.9222 -0.9046  1.0793
19802SOL     OW58810   1.523   5.453   5.797  0.3036  0.2171 -0.4524
19802SOL    HW158811   1.453   5.382   5.787  0.8069 -0.5412  1.3356
19802SOL    HW258812   1.598   5.435   5.733  0.2005 -0.5783 -0.3537
19803SOL     OW58813   9.106   5.925   5.515 -0.2132  0.3509  0.0874
19803SOL    HW158814   9.106   5.965   5.424  0.3023  0.0804 -0.0328
19803SOL    HW258815   9.194   5.943   5.559  0.1380 -0.9214 -0.0832
19804SOL     OW58816   1.017   4.927   6.427  0.3897 -0.1707  0.1787
19804SOL    HW158817   0.954   4.928   6.349  1.0057 -2.0236 -0.3872
19804SOL    HW258818   1.051   4.834   6.440  0.2924  0.1198  2.6897
19806SOL     OW58819   2.736   4.255   4.122 -0.0945 -0.0973 -0.3673
19806SOL    HW158820   2.765   4.232   4.029 -2.9259  1.5863 -1.7264
19806SOL    HW258821   2.655   4.314   4.119 -1.2364 -1.3188  3.1840
19807SOL     OW58822   1.496   8.783   3.480 -0.1308 -0.2891  0.1242
19807SOL    HW158823   1.504   8.748   3.574 -0.4759 -1.4125 -0.2624
19807SOL    HW258824   1.528   8.878   3.478 -0.6579 -0.0562  1.5017
19808SOL     OW58825   9.147   3.102   3.386  0.2815 -0.1206  0.1002
19808SOL    HW158826   9.178   3.121   3.479 -2.7549  0.6285  0.9932
19808SOL    HW258827   9.106   3.011   3.383  0.0866 -0.0155 -0.4459
19809SOL     OW58828   1.206   1.260   3.271 -0.1604 -0.6173 -0.4379
19809SOL    HW158829   1.271   1.290   3.201  2.4699 -0.4443  1.9891
19809SOL    HW258830   1.176   1.339   3.325  2.0853 -1.4163  2.0837
19810SOL     OW58831   3.468   2.270   4.936  0.6546 -0.0811  0.0235
19810SOL    HW158832   3.402   2.288   5.009 -0.6250  0.4630 -1.2680
19810SOL    HW258833   3.431   2.299   4.848  1.1606 -3.0733 -1.2321
19811SOL     OW58834   8.636   9.222   0.818 -0.0434 -0.3349  0.7065
19811SOL    HW158835   8.678   9.140   0.778 -1.2195 -0.4798 -0.2508
19811SOL    HW258836   8.680   9.242   0.906  2.4413 -0.1423 -0.5206
19813SOL     OW58837   1.612   0.138   1.320  0.4833 -0.1305  0.0165
19813SOL    HW158838   1.536   0.200   1.340 -0.0453 -0.9859  0.6787
19813SOL    HW258839   1.631   0.082   1.400  3.1102  1.4137  0.5372
19814SOL     OW58840   9.118   9.708   4.707  0.0553 -0.4726  0.0273
19814SOL    HW158841   9.100   9.805   4.726 -2.7586 -1.2688  1.5421
19814SOL    HW258842   9.176   9.702   4.625 -0.0233  2.4681 -0.3242
19816SOL     OW58843   4.544   6.761   3.662  0.2127  0.1920  0.3962
19816SOL    HW158844   4.551   6.773   3.761  0.6029  2.4725  0.1176
19816SOL    HW258845   4.477   6.825   3.625  2.0200  1.2410 -1.1566
19817SOL     OW58846   7.752   5.456   7.814 -0.1661  0.6034 -0.3586
19817SOL    HW158847   7.738   5.519   7.890 -1.0116  1.4172 -1.1813
19817SOL    HW258848   7.846   5.421   7.817 -0.4929 -0.2150  1.6733
19819SOL     OW58849   9.382   6.374   2.111  0.5679  0.4797  0.1845
19819SOL    HW158850   9.305   6.423   2.153 -0.3025 -1.1637  0.5390
19819SOL    HW258851   9.457   6.368   2.176 -0.1787 -0.6443  0.9593
19822SOL     OW58852   9.147   5.008   3.605  0.5170 -0.0678 -0.4013
19822SOL    HW158853   9.204   4.939   3.650  1.5899  0.5728 -0.7475
19822SOL    HW258854   9.072   4.964   3.555 -0.4349 -0.8022  1.6522
19823SOL     OW58855   8.356   6.339   2.024 -0.4469  0.3376 -0.0410
19823SOL    HW158856   8.357   6.257   2.081  1.6342 -1.6050 -2.7169
19823SOL    HW258857   8.267   6.348   1.979 -0.6600 -0.5025  0.2125
19824SOL     OW58858   6.737   6.730   2.134 -0.4450  0.2175 -0.9211
19824SOL    HW158859   6.754   6.784   2.052 -0.7281 -0.0790 -1.1806
19824SOL    HW258860   6.781   6.772   2.213 -0.2487  0.5524 -1.2126
19825SOL     OW58861   7.828   7.373   3.611  0.7521  0.5319 -0.2031
19825SOL    HW158862   7.875   7.312   3.674 -1.8380 -1.6662 -0.3086
19825SOL    HW258863   7.820   7.464   3.651  1.0155 -0.2791  1.7098
19826SOL     OW58864   2.763   8.360   6.780 -0.0476  0.0378 -0.2949
19826SOL    HW158865   2.776   8.431   6.850  0.1144  1.0797 -1.3585
19826SOL    HW258866   2.747   8.404   6.692  1.8046 -1.2344 -1.3020
19827SOL     OW58867   1.885   9.237   2.592 -0.0828  0.5614 -0.4227
19827SOL    HW158868   1.899   9.327   2.634 -0.5201  0.5584 -0.2678
19827SOL    HW258869   1.840   9.249   2.503 -2.8289  0.3243  0.8998
19830SOL     OW58870   7.585   1.781   4.118 -0.4794 -0.2793 -0.7186
19830SOL    HW158871   7.526   1.758   4.195  0.2769  0.1073 -0.0162
19830SOL    HW258872   7.543   1.747   4.033 -2.8535  2.0293 -0.5257
19831SOL     OW58873   1.459   7.338   1.360 -0.0073  0.1804 -0.0020
19831SOL    HW158874   1.513   7.418   1.387 -0.4810  1.1517 -1.8203
19831SOL    HW258875   1.392   7.318   1.431  1.5218  0.0841  1.4365
19832SOL     OW58876   5.167   4.081   1.670  0.4808 -0.0299 -0.0366
19832SOL    HW158877   5.104   4.118   1.739  0.2612 -1.7205  0.7060
19832SOL    HW258878   5.117   4.065   1.585  0.2381 -0.0121  0.1012
19833SOL     OW58879   6.049   3.802   2.837 -0.3188 -0.1932  0.2314
19833SOL    HW158880   6.118   3.814   2.766  0.0558 -1.3015  0.4069
19833SOL    HW258881   6.036   3.705   2.856  0.9499  0.1324  3.0171
19835SOL     OW58882   1.662   3.128   3.305 -0.0551  0.1286 -0.3828
19835SOL    HW158883   1.681   3.030   3.294 -0.9589 -0.3345  1.7861
19835SOL    HW258884   1.662   3.173   3.216 -0.0234 -1.9299 -1.4468
19836SOL     OW58885   4.497   9.575   2.670 -0.0494 -0.2038 -0.1940
19836SOL    HW158886   4.553   9.593   2.588  0.5756  0.3588  0.3508
19836SOL    HW258887   4.457   9.660   2.703  0.8874 -0.1884  0.9379
19837SOL     OW58888   8.207   1.343   3.426  0.1369 -0.3536 -0.3978
19837SOL    HW158889   8.107   1.350   3.431  0.2828  0.8975  1.0624
19837SOL    HW258890   8.237   1.262   3.476 -0.1119 -0.5479 -0.5586
19840SOL     OW58891   6.133   7.904   4.615  0.3360 -0.3258  0.0574
19840SOL    HW158892   6.124   7.936   4.710 -1.1356  0.5834 -0.3566
19840SOL    HW258893   6.124   7.805   4.612  1.2420 -0.4446  0.9619
19841SOL     OW58894   0.748   7.075   7.002  0.1285  0.2087  0.2343
19841SOL    HW158895   0.729   7.106   6.908 -2.4983 -1.4820  0.1785
19841SOL    HW258896   0.701   7.135   7.066 -1.3742 -1.0457  0.3048
19842SOL     OW58897   0.992   3.815   1.024 -0.1797 -0.1961  0.1981
19842SOL    HW158898   1.078   3.764   1.034  1.1049  1.9402  0.1628
19842SOL    HW258899   0.994   3.895   1.083 -1.4613  0.7830 -1.0674
19843SOL     OW58900   0.347   8.605   7.459  0.1572 -0.0368  0.2584
19843SOL    HW158901   0.321   8.630   7.552  2.9050 -1.7232  1.5818
19843SOL    HW258902   0.309   8.515   7.438 -0.4884  0.3582 -0.2741
19844SOL     OW58903   3.717   8.499   7.067  0.7290  0.3887 -0.1959
19844SOL    HW158904   3.672   8.538   6.987  0.6853 -2.2444 -1.4893
19844SOL    HW258905   3.760   8.573   7.120  0.1380  2.2401 -2.2265
19845SOL     OW58906   2.987   0.670   5.770  0.2126  0.6520 -0.0299
19845SOL    HW158907   3.032   0.623   5.846  0.3015  2.6863  1.2196
19845SOL    HW258908   3.046   0.742   5.735 -0.0111  0.0185 -1.7720
19846SOL     OW58909   4.164   2.663   6.923 -0.5197  0.1675  0.9914
19846SOL    HW158910   4.242   2.700   6.973  1.3273 -1.5317 -0.5780
19846SOL    HW258911   4.125   2.586   6.974  1.4797 -1.6860 -0.1582
19847SOL     OW58912   6.578   7.825   6.843  0.2471 -0.0411  0.1447
19847SOL    HW158913   6.526   7.739   6.843 -0.8327  0.5949 -0.2483
19847SOL    HW258914   6.676   7.804   6.837  0.0087 -1.2495  0.1677
19848SOL     OW58915   4.903   3.792   1.139  0.1062  0.0453 -0.3925
19848SOL    HW158916   4.976   3.780   1.206  0.6644 -2.1741 -1.3490
19848SOL    HW258917   4.906   3.885   1.103  0.0149  1.1753  2.3807
19849SOL     OW58918   8.366   8.929   6.686 -0.0088 -0.1258 -0.0216
19849SOL    HW158919   8.384   8.833   6.708  1.5395 -0.0149 -0.7063
19849SOL    HW258920   8.293   8.964   6.744 -1.3332 -2.0117 -0.4947
19850SOL     OW58921   3.164   8.377   6.647 -0.2705  0.2139 -0.1491
19850SOL    HW158922   3.112   8.381   6.562  1.1531 -0.3581 -1.0519
19850SOL    HW258923   3.105   8.341   6.720 -1.8808  1.8817 -0.5629
19853SOL     OW58924   8.116   0.954   4.204  0.2022 -0.5059  0.0704
19853SOL    HW158925   8.105   0.919   4.111  1.1956  1.7713 -0.9627
19853SOL    HW258926   8.201   0.918   4.243  1.3553  0.8625 -1.0832
19854SOL     OW58927   9.164   0.057   3.091 -0.3130  0.4662  0.1315
19854SOL    HW158928   9.236   0.008   3.141  2.9517  4.0959 -0.7198
19854SOL    HW258929   9.128  -0.001   3.019  2.8228 -1.0468 -0.3332
19855SOL     OW58930   1.858   3.127   5.023 -0.0210 -0.1689  0.1012
19855SOL    HW158931   1.926   3.054   5.021 -0.0075 -0.2619  2.3989
19855SOL    HW258932   1.775   3.093   5.069 -1.0433  0.4277 -1.2762
19856SOL     OW58933   2.834   8.964   3.949 -0.0644  0.0509  0.2787
19856SOL    HW158934   2.810   8.954   3.852  1.9123  0.7625 -0.2963
19856SOL    HW258935   2.809   9.056   3.980  1.2971  0.5700 -0.1461
19857SOL     OW58936   8.000   3.638   2.463  0.1707  0.1284 -0.6374
19857SOL    HW158937   8.063   3.621   2.539  0.4406 -0.1698 -0.9303
19857SOL    HW258938   7.916   3.585   2.477 -0.2903  1.0217  0.0863
19859SOL     OW58939   5.340   2.702   4.910  0.1313 -0.1270  0.3862
19859SOL    HW158940   5.267   2.736   4.851  1.1392 -0.1041 -0.8882
19859SOL    HW258941   5.413   2.665   4.853 -0.4448 -3.4309  1.7168
19860SOL     OW58942   8.156   4.108   3.737 -0.3432  0.1151 -0.1480
19860SOL    HW158943   8.244   4.139   3.700 -1.3592  1.8170 -1.2011
19860SOL    HW258944   8.117   4.180   3.795 -1.1595 -0.5466  0.1365
19861SOL     OW58945   2.643   3.067   2.029  0.0131  0.0280  0.2460
19861SOL    HW158946   2.626   2.988   1.971  0.2285  0.0110  0.2047
19861SOL    HW258947   2.656   3.149   1.973 -0.2575  0.1026  0.2902
19862SOL     OW58948   9.866   0.509   1.863 -0.3465 -0.1051  0.4593
19862SOL    HW158949   9.792   0.467   1.916 -1.1969 -1.3998 -1.6966
19862SOL    HW258950   9.952   0.463   1.883 -0.7072 -0.7590  0.5180
19864SOL     OW58951   8.698   9.058   0.595  0.4038 -0.3365  0.0820
19864SOL    HW158952   8.798   9.064   0.598  0.4643 -0.9486 -0.4937
19864SOL    HW258953   8.668   8.973   0.638  0.2439 -0.9886 -1.2939
19865SOL     OW58954   7.504   6.262   4.740  0.1201  0.6332  0.2521
19865SOL    HW158955   7.436   6.189   4.734  1.0599 -0.0633 -3.2048
19865SOL    HW258956   7.588   6.226   4.779  0.2931  0.0548 -0.6320
19866SOL     OW58957   3.311   3.478   0.408 -0.0775  0.3657 -0.3016
19866SOL    HW158958   3.331   3.423   0.326  2.1187  0.0709  0.4029
19866SOL    HW258959   3.263   3.561   0.381  0.2641  0.0797 -1.8496
19867SOL     OW58960   1.287   3.133   3.018  0.0816 -0.1713 -0.1367
19867SOL    HW158961   1.272   3.232   3.025  0.9798 -0.0103 -0.3476
19867SOL    HW258962   1.282   3.106   2.922  0.7597 -0.1680 -0.1770
19868SOL     OW58963   7.430   7.246   3.741 -0.1829  0.3384  0.0700
19868SOL    HW158964   7.367   7.274   3.814 -0.9275 -0.8239 -0.1145
19868SOL    HW258965   7.384   7.180   3.681  0.8242  0.3829 -0.7545
19869SOL     OW58966   1.183   6.059   5.742 -0.0238 -0.1778 -0.3683
19869SOL    HW158967   1.188   6.158   5.730 -2.7865  0.0148 -0.3435
19869SOL    HW258968   1.192   6.037   5.839 -2.1885  0.3111 -0.0297
19870SOL     OW58969   9.901   1.236   4.820  0.5062 -0.6172 -0.3084
19870SOL    HW158970   9.979   1.286   4.856  1.1198 -0.7448 -1.4281
19870SOL    HW258971   9.908   1.140   4.847  0.4547 -0.5252  0.0371
19871SOL     OW58972   6.164   5.416   0.807 -0.0181  0.4831  0.5684
19871SOL    HW158973   6.245   5.458   0.848 -0.7082  1.7371  0.6752
19871SOL    HW258974   6.159   5.442   0.710 -0.5188  0.7574  0.6681
19872SOL     OW58975   1.640   6.886   6.527 -1.0781  0.2289 -0.2109
19872SOL    HW158976   1.601   6.867   6.436 -0.9636  0.3166 -0.2782
19872SOL    HW258977   1.602   6.972   6.562 -1.3310  0.0542 -0.0550
19873SOL     OW58978   0.217   1.899   6.817 -0.1676 -0.3832 -0.2561
19873SOL    HW158979   0.121   1.904   6.842 -0.0596  2.9202 -0.2162
19873SOL    HW258980   0.225   1.889   6.718 -0.5632 -0.1459 -0.3124
19874SOL     OW58981   1.507   9.410   5.281  0.6697 -0.0973 -0.1290
19874SOL    HW158982   1.478   9.374   5.370  1.6062  0.1919  0.3049
19874SOL    HW258983   1.607   9.414   5.278  0.5984  1.4177 -0.6033
19876SOL     OW58984   1.675   4.596   5.775  0.0161  0.5682 -0.4446
19876SOL    HW158985   1.582   4.627   5.756  0.7526  2.6152 -0.8665
19876SOL    HW258986   1.735   4.676   5.789  1.6036 -0.7188  0.3233
19878SOL     OW58987   2.589   1.287   7.353  0.3161 -0.0115 -0.1089
19878SOL    HW158988   2.501   1.334   7.363  0.5356  0.3862 -0.0676
19878SOL    HW258989   2.614   1.245   7.440 -0.3001 -0.9457 -0.3734
19879SOL     OW58990   2.564   5.888   2.998 -0.1263  0.0795  0.0418
19879SOL    HW158991   2.467   5.881   3.021 -0.0492 -0.7766  0.1084
19879SOL    HW258992   2.577   5.961   2.931 -0.7004  0.8125  0.7097
19880SOL     OW58993   7.172   0.040   3.305  0.8988 -0.0446  0.5288
19880SOL    HW158994   7.204   0.025   3.399  2.4800  0.2849  0.0558
19880SOL    HW258995   7.224   0.114   3.264  1.5189 -1.4273 -1.2468
19881SOL     OW58996   2.988   8.720   6.507 -0.0348 -0.1336  0.1684
19881SOL    HW158997   3.086   8.740   6.500 -0.0341  0.0975  0.7889
19881SOL    HW258998   2.947   8.781   6.576 -0.5961 -0.2871 -0.0339
19882SOL     OW58999   6.946   7.819   3.918  0.1734  0.5369 -0.4872
19882SOL    HW159000   6.846   7.808   3.920  0.0097  2.0495 -0.0881
19882SOL    HW259001   6.969   7.915   3.932  1.6570  0.3583 -1.6330
19883SOL     OW59002   2.166   5.697   7.074 -0.2104  0.0170 -0.2288
19883SOL    HW159003   2.204   5.789   7.067  0.4588 -0.2028  0.5194
19883SOL    HW259004   2.211   5.637   7.009 -0.2614  0.0850 -0.3268
19885SOL     OW59005   1.777   9.426   2.819 -0.4909 -0.3610 -0.4133
19885SOL    HW159006   1.761   9.383   2.908  2.8398 -2.0481 -0.5710
19885SOL    HW259007   1.860   9.480   2.822 -0.0939 -0.8064 -2.6253
19886SOL     OW59008   0.153   2.720   5.906  0.5269 -0.6551 -0.0845
19886SOL    HW159009   0.202   2.785   5.847 -0.8665  0.7256  0.2317
19886SOL    HW259010   0.183   2.734   6.001 -1.7207  1.4466  0.3664
19887SOL     OW59011   5.052   9.573   5.771 -0.0467  0.3691  0.1978
19887SOL    HW159012   4.956   9.544   5.769  0.0067  0.1787  0.4616
19887SOL    HW259013   5.060   9.657   5.825 -0.1170  0.5797 -0.1149
19889SOL     OW59014   8.699   0.468   7.802 -0.4634  0.1874 -0.2842
19889SOL    HW159015   8.656   0.446   7.890 -0.7093  1.3127 -0.1226
19889SOL    HW259016   8.650   0.544   7.759  0.4493  0.4894 -0.8002
19891SOL     OW59017   4.539   3.517   0.868  0.2255  0.4351 -0.9728
19891SOL    HW159018   4.557   3.421   0.847 -0.3521  0.0526  0.2525
19891SOL    HW259019   4.613   3.554   0.924  0.5504  0.7622 -1.6170
19892SOL     OW59020   3.668   4.315   1.234 -0.5293  0.6588  0.1301
19892SOL    HW159021   3.730   4.378   1.187  0.0592  0.4092  0.5741
19892SOL    HW259022   3.585   4.365   1.261  0.0439  1.3169  0.7046
19895SOL     OW59023   2.023   1.613   5.043  0.2681 -0.0980 -0.0501
19895SOL    HW159024   1.997   1.677   4.970 -1.2632 -2.8407 -2.0011
19895SOL    HW259025   1.959   1.622   5.119 -0.7563 -0.1998 -0.8797
19896SOL     OW59026   4.134   2.950   5.066 -0.1389 -0.5889 -0.4774
19896SOL    HW159027   4.211   3.014   5.057 -0.9848  0.4898 -0.2038
19896SOL    HW259028   4.058   2.982   5.009 -1.0480 -0.6132  0.6953
19897SOL     OW59029   2.741   4.519   0.274  0.4535 -0.1501  0.3867
19897SOL    HW159030   2.729   4.536   0.372  0.9685  0.9040  0.2715
19897SOL    HW259031   2.738   4.421   0.257  1.2375 -0.3913  1.5806
19898SOL     OW59032   3.549   4.148   2.066 -0.2822  0.5669 -0.0992
19898SOL    HW159033   3.479   4.163   1.997  0.4213  1.0525 -0.7092
19898SOL    HW259034   3.605   4.230   2.075 -0.5316  0.6041  1.2360
19899SOL     OW59035   6.411   4.832   1.630 -0.2080 -0.2425  0.2795
19899SOL    HW159036   6.479   4.904   1.642 -1.2810  0.4829  2.2539
19899SOL    HW259037   6.452   4.743   1.652  0.1678  0.1557  1.1887
19900SOL     OW59038   7.505   1.344   2.422  0.6422 -0.6792  0.3445
19900SOL    HW159039   7.523   1.425   2.479  1.8900 -0.1262 -0.8199
19900SOL    HW259040   7.588   1.319   2.373  0.1006 -2.3395  0.2536
19901SOL     OW59041   8.323   5.830   4.859 -0.6791  0.2440 -0.4469
19901SOL    HW159042   8.409   5.806   4.905 -1.7248 -0.6041  1.1037
19901SOL    HW259043   8.271   5.893   4.916 -1.9906 -0.7989 -0.4699
19902SOL     OW59044   9.496   6.679   6.886  0.2214  0.2001  1.2244
19902SOL    HW159045   9.486   6.652   6.981  1.4735  1.3937  1.7024
19902SOL    HW259046   9.409   6.716   6.853  0.0565  0.6628  2.1773
19904SOL     OW59047   8.698   1.267   6.237  0.3441 -0.3088  0.6223
19904SOL    HW159048   8.610   1.226   6.213  1.2280 -1.0012 -1.5877
19904SOL    HW259049   8.772   1.210   6.201  1.6501  1.6649  0.0969
19905SOL     OW59050   3.101   3.407   0.119 -0.4733 -0.1338 -0.1441
19905SOL    HW159051   3.134   3.440   0.031 -1.6933  0.0892 -0.5323
19905SOL    HW259052   3.173   3.354   0.164  0.3486  0.2233 -1.0202
19906SOL     OW59053   9.320   0.205   6.996 -0.5896 -0.2428  0.4877
19906SOL    HW159054   9.327   0.108   7.017 -0.3065  0.1600  2.3115
19906SOL    HW259055   9.371   0.224   6.912 -2.7615 -2.0792 -1.3325
19907SOL     OW59056   9.437   8.847   3.271 -0.2406 -0.2887  0.3077
19907SOL    HW159057   9.376   8.768   3.267  1.2542 -1.4965  0.7796
19907SOL    HW259058   9.487   8.847   3.357  0.3442  0.7426 -0.0168
19909SOL     OW59059   5.529   0.521   2.581 -0.2017  0.1863 -0.2149
19909SOL    HW159060   5.442   0.551   2.621  0.6246  1.8708  0.3684
19909SOL    HW259061   5.550   0.428   2.611 -2.1195 -0.4948 -0.8958
19910SOL     OW59062   1.112   3.968   4.495 -0.1476  0.0253 -0.7133
19910SOL    HW159063   1.132   3.911   4.575  1.0070  1.2183 -0.1301
19910SOL    HW259064   1.017   3.999   4.498  0.5539  2.1218  1.5567
19911SOL     OW59065   1.008   4.935   5.141  0.3457  0.2475 -0.0978
19911SOL    HW159066   1.060   4.922   5.225 -0.0629 -1.3709 -0.0746
19911SOL    HW259067   0.946   4.857   5.128 -1.0969  1.4856 -0.8129
19912SOL     OW59068   5.012   4.463   6.869 -0.6434  0.0436 -0.1882
19912SOL    HW159069   5.091   4.522   6.854  0.1169 -1.4712 -2.3220
19912SOL    HW259070   4.932   4.501   6.822 -0.5216  0.1685 -0.2941
19913SOL     OW59071   4.363   0.735   3.225 -0.1596 -0.1937  0.6374
19913SOL    HW159072   4.276   0.784   3.214 -0.6027 -0.8193  1.3616
19913SOL    HW259073   4.425   0.790   3.280 -0.3414 -0.0521  0.7009
19914SOL     OW59074   2.466   7.705   7.445 -0.0320  0.0232 -0.2202
19914SOL    HW159075   2.415   7.765   7.506 -0.2442  1.0927 -1.4117
19914SOL    HW259076   2.402   7.648   7.394  0.0626  0.0422 -0.3620
19915SOL     OW59077   2.914   0.599   6.283  0.1697  0.0935 -0.2198
19915SOL    HW159078   2.840   0.633   6.341  0.3478 -0.2089  0.1829
19915SOL    HW259079   2.893   0.619   6.187 -0.9656 -0.9933 -0.2094
19917SOL     OW59080   9.109   0.593   3.869  0.2468  0.3682  0.0652
19917SOL    HW159081   9.087   0.588   3.772 -1.9674  0.1838  0.5662
19917SOL    HW259082   9.117   0.501   3.907 -2.7242  0.4201  0.8886
19918SOL     OW59083   6.385   9.778   3.738 -0.5910 -0.4130  0.5425
19918SOL    HW159084   6.354   9.863   3.782 -1.0014 -0.4977  0.4142
19918SOL    HW259085   6.342   9.769   3.649 -0.8811 -0.9757  0.7378
19919SOL     OW59086   8.787   2.265   3.408 -0.4063  0.3305 -0.1918
19919SOL    HW159087   8.773   2.226   3.499  0.3193 -0.3471 -0.3687
19919SOL    HW259088   8.802   2.192   3.342 -2.6379  0.7271 -1.1783
19920SOL     OW59089   7.000   1.070   2.115 -0.0387  0.2100  0.5885
19920SOL    HW159090   6.923   1.007   2.121  0.6445 -0.7417 -0.4486
19920SOL    HW259091   7.085   1.018   2.110  0.5385  1.2095 -0.2165
19921SOL     OW59092   4.410   0.449   6.195 -0.3397 -0.2853 -0.4583
19921SOL    HW159093   4.502   0.457   6.233 -0.6682 -0.5312  0.4101
19921SOL    HW259094   4.353   0.394   6.257 -1.6176  1.4807 -0.0141
19922SOL     OW59095   6.857   1.997   5.849 -0.0301  0.0376 -0.1504
19922SOL    HW159096   6.928   2.060   5.816  1.6768 -1.3093  0.8434
19922SOL    HW259097   6.860   1.913   5.795  0.0815 -0.5756  0.7956
19923SOL     OW59098   9.094   0.001   4.762  0.1565 -0.1107  0.3353
19923SOL    HW159099   9.121   0.036   4.852  0.4194  1.0292 -0.1769
19923SOL    HW259100   9.149   0.045   4.692 -0.6058 -0.3962 -0.4497
19925SOL     OW59101   8.871   5.219   4.175 -0.1163 -0.5829  0.7773
19925SOL    HW159102   8.856   5.317   4.181 -0.8016 -0.7655  2.1808
19925SOL    HW259103   8.791   5.175   4.134 -0.0419 -0.6187  0.6713
19926SOL     OW59104   9.145   3.612   4.533 -0.1419 -0.4045  0.0657
19926SOL    HW159105   9.123   3.585   4.439 -1.2633  0.1023  0.1720
19926SOL    HW259106   9.139   3.712   4.540  2.1186 -0.2403  0.1342
19928SOL     OW59107   9.682   1.809   0.442  0.4465 -0.0480  0.2635
19928SOL    HW159108   9.775   1.775   0.459 -1.0036 -2.9143  2.7789
19928SOL    HW259109   9.643   1.762   0.363  0.2683 -0.5940  0.6756
19929SOL     OW59110   3.392   8.929   0.348 -0.1735 -0.2676 -0.1245
19929SOL    HW159111   3.396   9.029   0.347  0.9979 -0.3031  0.4764
19929SOL    HW259112   3.396   8.896   0.442  0.0524 -0.9020 -0.3533
19930SOL     OW59113   3.640   6.724   4.277  0.0012  0.7773  0.7201
19930SOL    HW159114   3.547   6.752   4.253 -0.0213 -0.3537 -0.6087
19930SOL    HW259115   3.692   6.803   4.310 -1.5019  1.3664  1.6985
19931SOL     OW59116   7.136   3.328   3.806 -0.0094  0.1959 -0.0193
19931SOL    HW159117   7.075   3.285   3.872  2.4169 -1.2715  1.3375
19931SOL    HW259118   7.147   3.425   3.830  0.1077 -0.1032  1.1865
19932SOL     OW59119   3.592   6.577   2.928 -0.7345  0.2549  0.6882
19932SOL    HW159120   3.592   6.478   2.941  1.1120 -0.0092 -0.9293
19932SOL    HW259121   3.564   6.598   2.834  1.7074  1.0548  0.1031
19933SOL     OW59122   8.368   1.833   6.825 -0.3086  0.2013  0.2810
19933SOL    HW159123   8.463   1.816   6.848 -0.6893 -2.3025  0.1339
19933SOL    HW259124   8.354   1.821   6.727 -1.3860 -2.6443  0.7450
19934SOL     OW59125   8.123   3.519   4.513  0.0135  0.6460  0.2210
19934SOL    HW159126   8.083   3.489   4.426 -1.9936 -1.0436  1.6616
19934SOL    HW259127   8.062   3.587   4.555  0.4904  0.7372  0.7615
19935SOL     OW59128   2.410   7.002   3.688 -0.5237  0.0713 -0.6289
19935SOL    HW159129   2.473   7.055   3.631  0.4123 -1.5705 -1.1652
19935SOL    HW259130   2.328   6.980   3.636 -0.7878  0.7291 -0.4979
19937SOL     OW59131   7.512   0.032   3.069  0.0314  0.0825  0.1581
19937SOL    HW159132   7.471  -0.035   3.007 -0.7158 -0.7206  1.4958
19937SOL    HW259133   7.595  -0.008   3.110 -0.0283  0.2360  0.4290
19938SOL     OW59134   5.833   9.382   5.301  0.2242  0.8280  0.2999
19938SOL    HW159135   5.880   9.470   5.307  0.1900  0.8244  0.6019
19938SOL    HW259136   5.891   9.318   5.249  0.4647  0.8841  0.4972
19939SOL     OW59137   3.127   9.803   0.858  0.0868  0.4128  0.0814
19939SOL    HW159138   3.137   9.889   0.909  1.4451 -0.6735  1.6928
19939SOL    HW259139   3.058   9.746   0.903  0.2524  0.0449 -0.1336
19940SOL     OW59140   0.020   1.096   3.931 -0.1479  0.3252 -0.1491
19940SOL    HW159141   0.063   1.052   4.010 -0.2789  1.0526  0.3325
19940SOL    HW259142  -0.077   1.071   3.927 -0.3195  0.8949  0.3635
19941SOL     OW59143   2.970   7.623   5.372  0.2697  0.2806  0.0452
19941SOL    HW159144   2.961   7.691   5.299  1.0575 -0.7275 -1.0018
19941SOL    HW259145   3.053   7.641   5.424  1.4197 -0.9163 -1.3427
19942SOL     OW59146   1.695   1.828   2.666 -0.4856  0.8344 -1.1139
19942SOL    HW159147   1.734   1.763   2.602 -1.2112 -0.5514 -0.1802
19942SOL    HW259148   1.604   1.856   2.634 -1.9418 -1.8121  0.5409
19943SOL     OW59149   5.277   2.242   7.121  0.1320  0.2151  0.0602
19943SOL    HW159150   5.355   2.190   7.156 -0.0852  0.6508  1.2311
19943SOL    HW259151   5.253   2.313   7.187 -1.2020  0.1317 -0.3270
19944SOL     OW59152   7.860   9.198   5.183 -0.2117 -0.3796  0.7169
19944SOL    HW159153   7.864   9.218   5.281 -2.9160 -0.9559  0.9611
19944SOL    HW259154   7.784   9.247   5.142  0.0162 -1.3004 -0.8429
19946SOL     OW59155   3.540   1.514   0.831 -0.0875  0.4354  0.7614
19946SOL    HW159156   3.468   1.478   0.891  1.1827 -0.6710  1.6504
19946SOL    HW259157   3.500   1.544   0.744 -1.9951  2.3261  2.2576
19947SOL     OW59158   2.380   2.799   7.772  0.0127  0.2197 -0.7288
19947SOL    HW159159   2.289   2.758   7.762 -1.3622  2.8301  0.6576
19947SOL    HW259160   2.412   2.834   7.684 -0.7828  0.2669 -0.9973
19948SOL     OW59161   2.800   8.727   3.547  0.2706 -0.0747  0.4256
19948SOL    HW159162   2.823   8.776   3.463  1.1428 -2.0245 -0.4989
19948SOL    HW259163   2.732   8.656   3.527  0.0248 -0.1540  1.4959
19949SOL     OW59164   6.648   5.546   7.101  0.0301 -0.8461  0.5724
19949SOL    HW159165   6.694   5.472   7.053 -0.4326 -1.6684  1.3843
19949SOL    HW259166   6.588   5.595   7.038  1.2767 -0.3660 -0.2635
19950SOL     OW59167   7.897   8.835   4.109  0.4322 -0.4773 -0.1767
19950SOL    HW159168   7.960   8.877   4.043  2.2279 -2.1094  0.4558
19950SOL    HW259169   7.909   8.736   4.108 -0.7765 -0.6602  1.3675
19952SOL     OW59170   0.350   7.202   2.774  0.5494  0.2280 -0.3014
19952SOL    HW159171   0.300   7.285   2.801  0.6816  0.0784  0.4045
19952SOL    HW259172   0.382   7.212   2.680 -2.8815 -0.6438 -1.6476
19953SOL     OW59173   8.958   1.852   0.978 -0.0530  0.0441 -0.0654
19953SOL    HW159174   9.001   1.907   1.049  1.2838 -0.5030 -0.4444
19953SOL    HW259175   8.942   1.908   0.897 -0.9289  0.4852  0.4036
19954SOL     OW59176   9.777   9.242   6.737 -0.6714  0.1963 -0.2528
19954SOL    HW159177   9.697   9.201   6.780 -0.1050 -0.7872 -0.1067
19954SOL    HW259178   9.775   9.225   6.638  0.9735 -2.7224  0.1443
19955SOL     OW59179   8.556   1.682   1.008 -0.0722 -0.7362 -0.1074
19955SOL    HW159180   8.643   1.670   1.057 -0.8358 -1.9295  1.0034
19955SOL    HW259181   8.509   1.594   1.001 -0.2508 -0.4926 -2.5404
19957SOL     OW59182   8.347   9.332   4.444  0.5371  0.1991 -0.4945
19957SOL    HW159183   8.333   9.387   4.361  1.5179  0.9403 -0.1814
19957SOL    HW259184   8.445   9.331   4.467  0.2082  0.3878  0.9217
19958SOL     OW59185   8.169   6.267   5.312  0.6982  0.3698 -0.4189
19958SOL    HW159186   8.101   6.214   5.261  1.1727 -1.9553  1.2895
19958SOL    HW259187   8.259   6.223   5.305  0.9620  0.5016  1.6477
19959SOL     OW59188   1.124   0.849   7.466 -0.2188  0.1254  0.1093
19959SOL    HW159189   1.206   0.864   7.522 -0.0063 -3.0567  0.7143
19959SOL    HW259190   1.043   0.854   7.524 -0.0729 -2.0706  0.5211
19960SOL     OW59191   5.827   1.652   4.699 -0.2904  0.9044 -0.4109
19960SOL    HW159192   5.863   1.662   4.606  0.6289  1.1329 -0.0396
19960SOL    HW259193   5.738   1.695   4.705  0.2888  2.1769 -0.8061
19963SOL     OW59194   6.378   1.273   5.614 -0.5820  0.3376 -0.0611
19963SOL    HW159195   6.299   1.333   5.625 -2.0879 -1.7248  0.6981
19963SOL    HW259196   6.396   1.225   5.700  0.8274 -0.0058 -0.5339
19964SOL     OW59197   5.193   9.327   5.740  0.2974  0.3383  0.2057
19964SOL    HW159198   5.116   9.391   5.738 -2.9592 -3.3547  1.5130
19964SOL    HW259199   5.270   9.370   5.786 -1.9380  3.1650  1.5221
19965SOL     OW59200   3.490   0.162   4.388 -0.2581  0.2999 -0.0367
19965SOL    HW159201   3.440   0.079   4.415 -0.4921  0.4929  0.1261
19965SOL    HW259202   3.502   0.221   4.468 -0.3621  0.5651 -0.2168
19966SOL     OW59203   4.547   4.122   7.553  0.0957 -0.2691  0.0860
19966SOL    HW159204   4.458   4.163   7.533  0.2721  0.3061  0.4721
19966SOL    HW259205   4.578   4.152   7.643  0.4895 -0.8030  0.1347
19967SOL     OW59206   9.224   1.559   7.103 -0.1221  0.0630 -0.1165
19967SOL    HW159207   9.306   1.565   7.160 -0.6392  1.9965  0.4483
19967SOL    HW259208   9.244   1.595   7.011  0.2078 -1.3599 -0.6133
19968SOL     OW59209   7.727   8.591   1.578  0.5235 -0.4349 -0.2583
19968SOL    HW159210   7.631   8.586   1.605  0.6698 -0.8844  0.1923
19968SOL    HW259211   7.760   8.500   1.555  0.7762 -0.2448 -0.6554
19969SOL     OW59212   2.669   8.873   1.251 -0.0684  0.8759 -0.1769
19969SOL    HW159213   2.590   8.841   1.303  0.8964  1.5219  1.7533
19969SOL    HW259214   2.642   8.891   1.157 -2.3090  1.4328  0.5311
19970SOL     OW59215   4.721   1.715   5.886 -0.3357  0.3953 -0.2067
19970SOL    HW159216   4.760   1.788   5.829  1.6829 -0.1120  0.4933
19970SOL    HW259217   4.721   1.629   5.835  1.0330  0.0402  0.3880
19971SOL     OW59218   8.251   4.035   6.887  0.4784 -0.3922 -0.5404
19971SOL    HW159219   8.214   3.971   6.954  2.0065 -0.8483 -0.1112
19971SOL    HW259220   8.327   3.991   6.837 -0.9003 -0.2224 -2.8720
19972SOL     OW59221   8.896   7.377   1.111 -0.4221 -0.1343  0.6155
19972SOL    HW159222   8.848   7.462   1.088  1.4034  1.1159  1.2506
19972SOL    HW259223   8.901   7.367   1.211  1.7175  0.4525  0.6057
19973SOL     OW59224   7.200   2.113   2.997 -0.0757  0.4597 -0.6728
19973SOL    HW159225   7.230   2.047   3.066 -0.7639  0.5847 -0.2486
19973SOL    HW259226   7.280   2.154   2.953  0.3554 -0.2550 -0.5516
19974SOL     OW59227   1.216   1.317   6.826  0.2193  0.2526 -0.1827
19974SOL    HW159228   1.257   1.234   6.862 -0.2241  0.1612  0.1258
19974SOL    HW259229   1.208   1.311   6.727  0.0969 -0.1149 -0.1484
19976SOL     OW59230   1.722   5.477   1.741 -0.1161  0.1430 -0.2691
19976SOL    HW159231   1.688   5.384   1.758  2.3996 -0.7187  0.2869
19976SOL    HW259232   1.707   5.533   1.823 -3.6959  0.9389 -1.3700
19977SOL     OW59233   1.121   8.924   1.667 -0.0304 -0.1556  0.6021
19977SOL    HW159234   1.063   8.855   1.624  0.9823 -0.1301 -0.8257
19977SOL    HW259235   1.140   8.897   1.762 -1.4124 -0.7408  0.7191
19978SOL     OW59236   2.923   9.970   6.395  0.4345  0.2833  0.6107
19978SOL    HW159237   2.860   9.933   6.327  0.5507  1.3055 -0.0556
19978SOL    HW259238   2.992  10.025   6.351  1.2238 -0.0155  1.4495
19979SOL     OW59239   1.920   2.931   2.550 -0.1131  0.2624  0.4514
19979SOL    HW159240   1.846   2.954   2.612 -0.8437 -0.2439 -0.2133
19979SOL    HW259241   1.936   3.007   2.487 -1.5267 -0.4206 -0.7843
19980SOL     OW59242   6.600   7.601   2.648  0.7566  1.2917  0.4596
19980SOL    HW159243   6.647   7.514   2.662  0.4540  1.2980  1.5620
19980SOL    HW259244   6.664   7.676   2.662  0.9139  1.2578 -0.0715
19981SOL     OW59245   9.184   4.273   5.412  0.0430  0.2644 -0.2437
19981SOL    HW159246   9.220   4.350   5.360 -0.1419  1.5085  1.4347
19981SOL    HW259247   9.163   4.303   5.505  2.1231 -2.3369  1.1384
19982SOL     OW59248   3.346   3.929   3.308  0.1657  0.2657  0.2916
19982SOL    HW159249   3.406   3.982   3.248  0.7470  0.0465  0.6778
19982SOL    HW259250   3.401   3.875   3.371 -0.4275 -0.5744  0.1010
19983SOL     OW59251   3.813   0.516   0.706  0.1010  0.7017  0.4694
19983SOL    HW159252   3.823   0.465   0.620 -0.6151  0.0209  0.7801
19983SOL    HW259253   3.883   0.587   0.712  0.5945  0.2813 -0.3528
19984SOL     OW59254   1.734   0.968   5.607  0.0377  0.4413 -1.1140
19984SOL    HW159255   1.775   1.044   5.658  2.1140 -1.0209 -0.5674
19984SOL    HW259256   1.690   0.905   5.671 -1.3157  0.9426 -1.5351
19985SOL     OW59257   1.788   5.346   3.391  0.3927  0.4836  0.1109
19985SOL    HW159258   1.697   5.304   3.390  0.6750 -0.1153 -1.1883
19985SOL    HW259259   1.856   5.279   3.364  0.9947  1.4409 -0.8049
19987SOL     OW59260   8.904   2.934   4.701  0.1947 -0.0067 -0.4415
19987SOL    HW159261   8.932   2.841   4.726 -2.7833 -0.1828  2.5023
19987SOL    HW259262   8.827   2.931   4.637  0.1141  0.4511 -0.3728
19988SOL     OW59263   0.931   1.276   5.596 -0.1200 -0.3372 -0.0368
19988SOL    HW159264   0.978   1.192   5.568  1.3618 -0.3915  2.4488
19988SOL    HW259265   0.889   1.263   5.685  0.5689  1.7326  0.6174
19989SOL     OW59266   9.655   0.194   6.115 -0.0492  0.2194  0.3575
19989SOL    HW159267   9.682   0.099   6.101  0.1711  0.5369 -1.6136
19989SOL    HW259268   9.633   0.236   6.026  0.1943  2.0969  1.1448
19990SOL     OW59269   3.484   1.544   6.893 -0.3133  0.2987 -0.0864
19990SOL    HW159270   3.507   1.453   6.930  0.1346  0.4064 -0.0953
19990SOL    HW259271   3.418   1.534   6.818  0.6751 -0.1244 -0.9169
19991SOL     OW59272   2.734   3.480   6.077  0.5783  0.0671 -0.1983
19991SOL    HW159273   2.828   3.479   6.111  0.4154  1.8579  0.3809
19991SOL    HW259274   2.734   3.515   5.983  0.3998  1.1098  0.1793
19992SOL     OW59275   6.557   1.746   1.364 -0.7239  0.1392  0.0226
19992SOL    HW159276   6.600   1.762   1.275 -0.4339  0.6537  0.2537
19992SOL    HW259277   6.532   1.650   1.373  0.2067 -0.1227 -0.1864
19993SOL     OW59278   7.162   8.992   6.070  0.1477 -0.3594 -0.1769
19993SOL    HW159279   7.200   8.967   6.158  0.6938  2.3016  0.3949
19993SOL    HW259280   7.226   9.052   6.021 -1.1841  0.1704 -1.3273
19994SOL     OW59281   5.494   9.587   3.482  0.2614  0.3294 -0.7540
19994SOL    HW159282   5.541   9.672   3.459  1.4721 -0.1200  0.0104
19994SOL    HW259283   5.543   9.509   3.441 -0.2207 -0.0863 -0.5460
19995SOL     OW59284   3.952   5.650   3.456 -0.2119  0.2526 -0.5730
19995SOL    HW159285   4.006   5.617   3.378  0.9736  2.1570 -0.5728
19995SOL    HW259286   3.958   5.583   3.531  0.7446 -0.3563 -1.1847
19996SOL     OW59287   5.313   5.921   0.302 -0.6819  0.0223 -0.0332
19996SOL    HW159288   5.282   5.997   0.359 -2.6804  0.0788 -1.1490
19996SOL    HW259289   5.296   5.835   0.350 -2.1701  0.0802 -0.4526
19997SOL     OW59290   3.123   6.646   4.851  0.0501  0.1670 -0.2184
19997SOL    HW159291   3.054   6.590   4.806 -0.2524 -0.5366  1.0878
19997SOL    HW259292   3.207   6.594   4.862  0.1187  0.3280  0.0261
19998SOL     OW59293   1.364   8.404   5.676  0.1650 -0.4079 -0.4705
19998SOL    HW159294   1.375   8.502   5.695  3.3381 -1.2596  2.5056
19998SOL    HW259295   1.418   8.379   5.596 -0.6078  0.2421 -1.2042
19999SOL     OW59296   1.342   9.273   2.064  0.1226  0.0690  0.1411
19999SOL    HW159297   1.287   9.193   2.039  1.1167 -0.6620  0.2500
19999SOL    HW259298   1.298   9.356   2.030 -0.6062 -0.5773 -0.5123
20000SOL     OW59299   8.507   0.422   3.539  0.2634  0.1311  0.4898
20000SOL    HW159300   8.570   0.488   3.580  0.9371 -0.4232  0.3569
20000SOL    HW259301   8.558   0.341   3.510 -0.5662 -0.4740  0.6994
20001SOL     OW59302   1.015   9.593   7.262  0.0772 -0.3985 -0.0953
20001SOL    HW159303   0.970   9.669   7.215 -1.0681 -0.9783  0.0472
20001SOL    HW259304   1.110   9.617   7.280 -0.0482  0.6735 -0.7928
20002SOL     OW59305   2.026   8.005   4.048 -0.2215 -0.1306  0.1295
20002SOL    HW159306   1.972   8.088   4.037  2.5118  1.4266 -2.3612
20002SOL    HW259307   2.037   7.960   3.959  1.3254 -1.2104  0.8307
20003SOL     OW59308   2.796   0.376   7.778 -0.4845  0.0621 -0.3264
20003SOL    HW159309   2.838   0.463   7.806 -0.6810  0.5117 -1.4316
20003SOL    HW259310   2.706   0.394   7.740 -1.9231 -0.9485  2.5061
20004SOL     OW59311   8.049   6.029   3.604 -0.7295  0.4524  0.1984
20004SOL    HW159312   8.038   5.939   3.562 -1.5458  0.2047  0.9230
20004SOL    HW259313   8.131   6.030   3.661  0.3108  0.7469 -1.2660
20005SOL     OW59314   7.015   0.424   6.828 -0.0544 -0.0911 -0.7346
20005SOL    HW159315   7.000   0.367   6.909 -0.2131  1.5125  0.4011
20005SOL    HW259316   7.103   0.400   6.787  0.4135 -0.3750  0.4020
20007SOL     OW59317   6.273   2.003   3.873 -0.2932 -1.1234 -0.0964
20007SOL    HW159318   6.281   2.093   3.828  2.0451 -0.4768  1.5145
20007SOL    HW259319   6.188   2.000   3.926 -0.0911  0.3729  0.3378
20008SOL     OW59320   7.737   9.228   4.026  0.1082 -0.0244 -0.0607
20008SOL    HW159321   7.791   9.193   3.949  2.3689 -0.5150  1.6996
20008SOL    HW259322   7.778   9.314   4.058 -0.6276 -0.0015  0.8279
20009SOL     OW59323   9.574   9.485   3.048  0.4190  0.3481  0.3951
20009SOL    HW159324   9.608   9.471   3.140 -0.2040  2.9860  1.0688
20009SOL    HW259325   9.476   9.467   3.045  0.4282  0.3168  0.2591
20010SOL     OW59326   6.328   9.275   4.278  0.5796  0.0449 -0.1727
20010SOL    HW159327   6.310   9.210   4.351  0.2622  3.1832  2.6546
20010SOL    HW259328   6.418   9.257   4.238  0.5536 -1.9879  0.6628
20011SOL     OW59329   6.625   8.652   7.325 -0.3868  0.3682  0.0918
20011SOL    HW159330   6.632   8.588   7.401 -0.8609  0.7073  0.4260
20011SOL    HW259331   6.565   8.728   7.351  1.9871  2.1428  0.5291
20012SOL     OW59332   1.933   8.406   4.354  0.6409 -0.2958  0.4518
20012SOL    HW159333   1.929   8.425   4.452  0.6348 -2.5846  0.9321
20012SOL    HW259334   1.851   8.444   4.310 -0.2007 -0.7114  1.6199
20013SOL     OW59335   2.093   6.055   1.780 -0.3084 -0.0850  0.0127
20013SOL    HW159336   2.171   6.108   1.750 -0.3523  0.2652  0.5120
20013SOL    HW259337   2.029   6.114   1.830 -1.5733 -0.0553 -1.5922
20014SOL     OW59338   8.931   4.829   3.554  0.3718  0.1900 -0.2158
20014SOL    HW159339   8.897   4.805   3.463 -3.0628  0.3790  0.9643
20014SOL    HW259340   8.935   4.747   3.611 -0.5715  0.5822  0.4226
20015SOL     OW59341   4.455   8.720   7.217  0.2492 -0.1437  0.1498
20015SOL    HW159342   4.491   8.784   7.285 -0.9626 -0.0446  0.7129
20015SOL    HW259343   4.525   8.701   7.149  0.3936  2.4123 -0.4811
20016SOL     OW59344   9.009   8.934   7.574 -0.1225  0.0015 -0.9772
20016SOL    HW159345   9.053   8.845   7.561 -0.6761 -0.7391  1.7707
20016SOL    HW259346   8.929   8.941   7.515 -0.9073 -1.9370 -0.1834
20018SOL     OW59347   2.869   7.341   7.902 -0.5299 -0.0978 -0.2088
20018SOL    HW159348   2.842   7.246   7.916  2.0161 -0.6926  0.9090
20018SOL    HW259349   2.968   7.346   7.893 -0.6487  2.4539 -0.3434
20019SOL     OW59350   8.655   9.641   6.922 -0.1337 -0.0613  0.4418
20019SOL    HW159351   8.688   9.596   6.839  0.8818 -0.8825  1.2838
20019SOL    HW259352   8.563   9.607   6.944 -0.1346 -0.3363  0.0266
20020SOL     OW59353   2.447   0.684   0.439  0.5564 -0.0921  0.6820
20020SOL    HW159354   2.452   0.721   0.531 -0.1416  1.3014  0.1818
20020SOL    HW259355   2.538   0.684   0.397  0.7112  0.2396  1.0157
20023SOL     OW59356   8.930   5.181   1.234  0.7089 -0.6221 -0.0130
20023SOL    HW159357   8.973   5.267   1.262 -0.8602 -0.1221  0.9379
20023SOL    HW259358   8.969   5.151   1.147  0.9399  1.3135 -0.6023
20024SOL     OW59359   7.729   6.031   5.334  0.4217 -0.2530  0.0722
20024SOL    HW159360   7.697   5.955   5.390 -0.9147  0.5641  0.4477
20024SOL    HW259361   7.675   6.113   5.354  0.8887  0.4361 -1.3577
20025SOL     OW59362   8.505   5.088   4.666 -0.3863 -0.2073 -0.3423
20025SOL    HW159363   8.516   5.031   4.585  2.3236  0.7554 -0.7119
20025SOL    HW259364   8.593   5.097   4.713 -1.5803  0.5369  1.8537
20026SOL     OW59365   0.722   7.812   6.823 -0.3701  0.8553  0.3526
20026SOL    HW159366   0.702   7.875   6.749 -1.3348  2.6796  2.1133
20026SOL    HW259367   0.821   7.804   6.834 -0.2383  1.7362 -0.1512
20027SOL     OW59368   6.771   4.426   1.068  0.6108  0.6143  0.5222
20027SOL    HW159369   6.724   4.512   1.085  0.0358  0.1391  1.3730
20027SOL    HW259370   6.785   4.377   1.155 -0.3956 -0.8265 -0.1066
20028SOL     OW59371   2.633   9.681   4.301  0.3266 -0.3357  0.2814
20028SOL    HW159372   2.580   9.765   4.307  0.2624 -0.4482  1.4709
20028SOL    HW259373   2.731   9.703   4.305  0.3968 -0.1129 -2.1111
20029SOL     OW59374   3.216   3.872   7.660  0.4262  0.1957  0.1442
20029SOL    HW159375   3.166   3.877   7.574 -0.7390 -1.4142  0.6876
20029SOL    HW259376   3.295   3.811   7.649 -0.5391 -1.1754  0.5547
20030SOL     OW59377   3.792   5.959   1.200  0.0837  0.2427 -0.3979
20030SOL    HW159378   3.869   5.985   1.258  0.3417  1.4930 -1.2943
20030SOL    HW259379   3.731   6.037   1.187 -0.1829 -0.1383 -1.4928
20031SOL     OW59380   7.649   8.930   6.880 -0.0398  0.1049  0.5003
20031SOL    HW159381   7.739   8.893   6.902 -0.3121  0.6683  2.7222
20031SOL    HW259382   7.587   8.856   6.855  0.1312 -0.6838  2.3205
20032SOL     OW59383   0.112   2.278   3.135  0.1635  0.3589  1.2740
20032SOL    HW159384   0.023   2.309   3.168 -0.3179 -0.3346  0.6308
20032SOL    HW259385   0.136   2.192   3.179 -0.3901 -0.4665 -0.0209
20033SOL     OW59386   4.861   6.097   0.734  0.3526 -0.0138 -0.3004
20033SOL    HW159387   4.818   6.007   0.741  0.6652 -0.1117  0.4374
20033SOL    HW259388   4.956   6.091   0.766  0.1774  0.7161  0.3620
20037SOL     OW59389   0.275   1.012   0.135  0.2299  0.1563 -0.1021
20037SOL    HW159390   0.194   1.064   0.107 -1.8191 -1.2084  2.8672
20037SOL    HW259391   0.333   1.069   0.193 -0.3993  0.1432  0.5612
20038SOL     OW59392   7.456   0.552   2.484  0.5218 -0.2140  0.0616
20038SOL    HW159393   7.472   0.525   2.389 -1.6465 -1.3048 -0.0118
20038SOL    HW259394   7.475   0.650   2.494  1.3466 -0.2155 -1.3514
20039SOL     OW59395   2.301   6.549   1.921 -0.2907 -0.5906  0.4211
20039SOL    HW159396   2.260   6.625   1.973 -1.1027  0.5273 -1.7770
20039SOL    HW259397   2.306   6.574   1.824  2.6303 -2.0109  0.1509
20042SOL     OW59398   1.114   6.561   1.449  0.2253  0.6080  0.2368
20042SOL    HW159399   1.196   6.604   1.487  1.5779  0.2200 -2.1655
20042SOL    HW259400   1.093   6.600   1.360 -1.9361  0.3298  0.5866
20044SOL     OW59401   7.416   2.918   0.569 -0.2023 -0.2497  0.5817
20044SOL    HW159402   7.465   2.916   0.482  0.6535 -1.9390  1.0814
20044SOL    HW259403   7.349   2.845   0.571 -1.5361  0.9488  0.6208
20045SOL     OW59404   2.225   4.141   1.324  0.0637  0.3135 -0.3551
20045SOL    HW159405   2.257   4.187   1.241 -0.6610 -0.6240 -1.1697
20045SOL    HW259406   2.203   4.210   1.394  2.8106  1.0034 -0.1286
20046SOL     OW59407   7.273   7.494   2.993  0.3968  0.5536 -0.8921
20046SOL    HW159408   7.274   7.406   3.040 -3.3384  1.1302  0.4286
20046SOL    HW259409   7.261   7.480   2.895  1.3604 -0.4310 -0.8748
20049SOL     OW59410   2.483   6.073   1.218 -0.2522 -0.6682 -0.7367
20049SOL    HW159411   2.482   5.973   1.219  0.5705 -0.6810  1.5289
20049SOL    HW259412   2.529   6.107   1.300  1.3365  1.5648 -2.4856
20052SOL     OW59413   0.068   9.256   2.248 -0.7570  0.2822 -0.1910
20052SOL    HW159414   0.091   9.238   2.152 -2.4283  0.0418 -0.5567
20052SOL    HW259415  -0.025   9.291   2.254 -0.6722  0.2818  1.3671
20056SOL     OW59416   1.282   5.315   5.835  0.6032  0.1127  0.4860
20056SOL    HW159417   1.262   5.235   5.778 -0.1130  0.2854  0.4897
20056SOL    HW259418   1.243   5.302   5.926  1.2613  0.0818  0.7695
20057SOL     OW59419   1.127   2.628   5.209 -0.1658  0.3766 -0.2025
20057SOL    HW159420   1.033   2.635   5.242 -0.1364  0.7393 -0.1929
20057SOL    HW259421   1.177   2.711   5.232  0.7289 -0.6242  1.5584
20058SOL     OW59422   8.372   2.189   5.073 -0.0798  0.0623 -0.1558
20058SOL    HW159423   8.316   2.149   5.001 -0.1806  0.6232 -0.3924
20058SOL    HW259424   8.454   2.133   5.087  0.2878  0.3253 -1.1898
20060SOL     OW59425   9.271   6.588   5.093  0.1170 -0.0169 -0.1602
20060SOL    HW159426   9.239   6.562   5.002 -2.4763 -1.6664  1.1684
20060SOL    HW259427   9.232   6.526   5.161  3.3701  0.0976  1.9466
20062SOL     OW59428   4.109   5.733   3.713 -0.2926 -0.0182  0.0121
20062SOL    HW159429   4.089   5.756   3.808  1.9326 -0.2766  0.5776
20062SOL    HW259430   4.121   5.817   3.660  0.4762  0.1258  0.4162
20063SOL     OW59431   0.157   9.262   0.455 -0.1770 -0.5925 -0.6070
20063SOL    HW159432   0.195   9.173   0.479 -0.2094 -1.0503 -2.1990
20063SOL    HW259433   0.188   9.331   0.521  0.7380 -1.5614 -0.0168
20064SOL     OW59434   8.732   1.956   2.664  0.1891 -0.6692 -0.0845
20064SOL    HW159435   8.734   1.857   2.678  0.5194 -0.4495  1.5135
20064SOL    HW259436   8.813   1.985   2.614 -0.3610 -1.3190 -1.3558
20066SOL     OW59437   3.444   6.826   1.103 -0.0564 -0.1447 -0.3600
20066SOL    HW159438   3.466   6.903   1.043  0.8157  0.4296  0.6863
20066SOL    HW259439   3.362   6.846   1.156  0.4393  0.2701  0.2585
20067SOL     OW59440   7.451   0.443   7.930 -0.2980 -0.3130 -0.2455
20067SOL    HW159441   7.401   0.397   7.857  1.9686 -0.1017 -2.0152
20067SOL    HW259442   7.438   0.541   7.923 -0.5317 -0.3306 -0.0364
20068SOL     OW59443   3.605   3.515   7.723 -0.1602 -0.3283 -0.0131
20068SOL    HW159444   3.645   3.587   7.781 -0.5307 -1.3319  1.5327
20068SOL    HW259445   3.518   3.548   7.686 -1.6433 -0.8653  2.8194
20069SOL     OW59446   5.752   8.543   2.636  0.6083  0.0489  0.1494
20069SOL    HW159447   5.684   8.616   2.641  0.1263 -0.3395 -0.6870
20069SOL    HW259448   5.841   8.578   2.665  0.1075  0.6173  1.0414
20071SOL     OW59449   4.503   7.966   4.560 -0.0263 -0.2812  0.5485
20071SOL    HW159450   4.412   8.001   4.582 -0.4419 -0.5357 -0.6904
20071SOL    HW259451   4.535   7.906   4.633 -0.7316  0.0472  1.1254
20072SOL     OW59452   9.491   1.883   5.403  0.0106 -0.2873  0.7274
20072SOL    HW159453   9.409   1.906   5.349  0.1091  0.4990  0.9005
20072SOL    HW259454   9.499   1.784   5.411 -0.8768 -0.3732  0.6257
20073SOL     OW59455   1.467   6.904   3.987 -0.0525 -0.2970  0.1568
20073SOL    HW159456   1.425   6.932   4.074  2.0937 -1.6875  1.6773
20073SOL    HW259457   1.536   6.835   4.004 -0.1257 -1.1551 -2.7879
20074SOL     OW59458   2.564   5.896   7.902 -0.2658  0.2355 -0.1545
20074SOL    HW159459   2.654   5.851   7.908 -0.0112  0.6390 -0.9216
20074SOL    HW259460   2.565   5.963   7.828 -1.0371  0.6247  0.1808
20075SOL     OW59461   6.787   0.818   2.368  0.4390  0.0953 -0.2203
20075SOL    HW159462   6.784   0.840   2.466 -1.0911  0.6833 -0.3804
20075SOL    HW259463   6.819   0.724   2.356  0.8122  0.0765  0.8337
20076SOL     OW59464   3.696   9.479   0.975  0.1068  0.3906 -0.5729
20076SOL    HW159465   3.681   9.466   0.877 -1.9678  0.5294 -0.2876
20076SOL    HW259466   3.751   9.561   0.990 -0.2429  0.8167 -1.5789
20077SOL     OW59467   4.607   8.218   4.050 -0.6698  0.6015 -0.0181
20077SOL    HW159468   4.545   8.167   4.110 -0.5037  0.4270  0.0045
20077SOL    HW259469   4.693   8.236   4.098 -0.1113 -0.5041 -0.5824
20078SOL     OW59470   3.144   7.094   7.727 -0.8242  0.2993  0.4524
20078SOL    HW159471   3.094   7.095   7.641 -0.5027  0.7963  0.2660
20078SOL    HW259472   3.166   7.188   7.753  0.5289  0.0550  0.2338
20079SOL     OW59473   1.701   1.301   3.382  0.0947  0.2813 -0.0389
20079SOL    HW159474   1.616   1.353   3.381  0.8338  1.5479  1.3689
20079SOL    HW259475   1.713   1.257   3.471  0.2662 -1.0048 -0.6758
20080SOL     OW59476   1.517   8.670   2.879  0.1492  0.2108 -0.5921
20080SOL    HW159477   1.473   8.729   2.946 -0.4086 -2.7125  1.7048
20080SOL    HW259478   1.600   8.715   2.845  0.5006  1.7335  2.1316
20081SOL     OW59479   5.397   9.384   6.287  0.0467  0.1457 -0.3143
20081SOL    HW159480   5.442   9.447   6.224 -1.3424 -0.3948 -1.8700
20081SOL    HW259481   5.437   9.395   6.379  2.6976  0.3268 -1.4408
20082SOL     OW59482   0.962   6.016   3.908  0.3557 -0.0336 -0.2829
20082SOL    HW159483   0.945   5.977   3.998  0.1521  0.2093 -0.2153
20082SOL    HW259484   0.940   5.948   3.837  0.4262 -0.1904 -0.1553
20083SOL     OW59485   2.347   9.869   0.846  0.3120  0.6696 -0.4527
20083SOL    HW159486   2.249   9.891   0.843 -0.0332 -0.8201 -0.5007
20083SOL    HW259487   2.361   9.776   0.812  1.6542  0.5431  0.4289
20084SOL     OW59488   8.295   0.438   2.772  0.6457 -0.6409 -0.2457
20084SOL    HW159489   8.233   0.512   2.799  1.5256  0.5826 -1.5036
20084SOL    HW259490   8.334   0.459   2.682  1.5786 -2.2191 -0.2173
20085SOL     OW59491   2.289   3.671   7.535 -0.0811 -0.1429  0.1635
20085SOL    HW159492   2.353   3.737   7.495 -0.7023  1.2030  1.3559
20085SOL    HW259493   2.228   3.637   7.464  0.0648  0.7705 -0.4066
20086SOL     OW59494   1.627   0.462   1.884  0.2707  0.0059 -0.4407
20086SOL    HW159495   1.643   0.372   1.925 -0.6279 -0.6884 -1.6048
20086SOL    HW259496   1.578   0.520   1.949  1.6884 -0.0011  0.6849
20087SOL     OW59497   0.693   9.461   3.608 -0.1994 -0.5010  0.3575
20087SOL    HW159498   0.751   9.501   3.536 -0.2025 -0.5576  0.3237
20087SOL    HW259499   0.725   9.491   3.697  0.9028 -1.8447  0.4355
20088SOL     OW59500   8.009   9.265   4.271  0.1928 -0.5090  0.4718
20088SOL    HW159501   8.048   9.286   4.181  2.2728 -0.0557  1.4254
20088SOL    HW259502   7.993   9.167   4.279 -0.4338 -0.4909 -0.5537
20089SOL     OW59503   9.269   6.197   0.822 -0.0432  0.1210  0.1969
20089SOL    HW159504   9.369   6.195   0.818 -0.0581  0.9970 -1.3117
20089SOL    HW259505   9.235   6.265   0.756 -1.6568 -0.8546 -0.0033
20090SOL     OW59506   8.543   7.858   1.601  0.0915 -0.0358 -0.2086
20090SOL    HW159507   8.631   7.904   1.601 -0.5656  1.2939 -1.5754
20090SOL    HW259508   8.555   7.763   1.573  1.2133 -0.1370  0.6083
20091SOL     OW59509   3.057   9.924   2.919 -0.1636  0.1081  0.4921
20091SOL    HW159510   3.070  10.021   2.939  1.0771  0.3394 -1.4072
20091SOL    HW259511   3.141   9.874   2.939 -0.3977 -0.3841  0.2686
20093SOL     OW59512   7.693   9.705   5.389 -0.1683  0.2762  0.3498
20093SOL    HW159513   7.776   9.685   5.442  1.8012  1.2181 -2.2937
20093SOL    HW259514   7.666   9.800   5.405  0.7182  0.7129 -0.6773
20094SOL     OW59515   0.557   0.699   4.191  0.1290 -0.0782 -0.2318
20094SOL    HW159516   0.562   0.672   4.095 -0.3959 -0.1242 -0.2476
20094SOL    HW259517   0.646   0.685   4.235  0.0858 -1.0593 -0.4476
20095SOL     OW59518   9.705   4.513   0.913  0.1300 -0.3826 -0.1788
20095SOL    HW159519   9.646   4.512   0.994 -0.2763 -2.2132 -0.4681
20095SOL    HW259520   9.801   4.511   0.941 -0.0177 -1.4536  0.2637
20096SOL     OW59521   4.304   8.361   1.627 -0.4957  0.5277 -0.0209
20096SOL    HW159522   4.227   8.298   1.635 -0.9159  1.1480  0.8960
20096SOL    HW259523   4.275   8.453   1.652  0.3829  0.8906 -0.2994
20097SOL     OW59524   8.223   9.147   1.344  0.0179  0.3298 -0.0725
20097SOL    HW159525   8.272   9.065   1.374 -1.3379 -1.0574 -1.5400
20097SOL    HW259526   8.255   9.173   1.253 -0.0659  1.0143  0.0915
20098SOL     OW59527   9.817   5.148   3.928  0.1172 -0.9339 -0.3088
20098SOL    HW159528   9.885   5.199   3.979 -0.3765  1.1718 -1.6985
20098SOL    HW259529   9.863   5.078   3.872  1.0563 -0.1507 -0.5319
20100SOL     OW59530   2.361   9.254   3.568 -0.9469 -0.0378  0.6441
20100SOL    HW159531   2.336   9.317   3.641 -2.0843  0.2978 -0.0392
20100SOL    HW259532   2.313   9.278   3.484  0.3822 -0.3981 -0.2466
20101SOL     OW59533   4.074   0.611   7.189 -0.3653 -0.6045 -0.3071
20101SOL    HW159534   4.146   0.549   7.157  1.7549  1.4989  0.2166
20101SOL    HW259535   4.095   0.704   7.160 -1.8144  0.3752  1.6524
20103SOL     OW59536   7.783   6.555   3.098 -0.0819  0.4098  0.0035
20103SOL    HW159537   7.694   6.552   3.143 -0.0988  0.4351 -0.0282
20103SOL    HW259538   7.771   6.577   3.002 -0.0812 -0.0865 -0.1139
20104SOL     OW59539   7.139   9.992   7.891 -0.0781  0.0619 -0.0157
20104SOL    HW159540   7.076  10.006   7.814 -0.1845  0.5313  0.1584
20104SOL    HW259541   7.089  10.000   7.977  0.1235 -0.0510  0.1123
20105SOL     OW59542   2.378   8.489   2.138 -0.3895  0.1253 -0.2735
20105SOL    HW159543   2.470   8.472   2.104 -0.0919  0.5995  0.2835
20105SOL    HW259544   2.381   8.496   2.238 -1.3838 -2.2180 -0.0370
20107SOL     OW59545   9.478   6.969   5.009  0.1067 -0.0314  0.2329
20107SOL    HW159546   9.388   6.955   5.049 -0.5545 -0.1040 -1.2344
20107SOL    HW259547   9.535   6.888   5.025  0.1666  0.3297  1.8297
20108SOL     OW59548   0.572   5.169   2.176  0.3139  0.6226  0.1753
20108SOL    HW159549   0.599   5.241   2.112  1.2788 -0.7641 -1.0364
20108SOL    HW259550   0.538   5.090   2.124  1.3390 -0.6112  1.3401
20109SOL     OW59551   8.088   3.219   5.003  0.4543 -0.0797 -0.2458
20109SOL    HW159552   8.183   3.237   5.029  0.0684  0.7174  0.6303
20109SOL    HW259553   8.077   3.122   4.982  1.5498 -0.1041 -0.7365
20110SOL     OW59554   8.976   4.751   1.210  0.2228 -0.5486  0.2627
20110SOL    HW159555   8.915   4.803   1.151  0.4501 -1.6833 -1.0075
20110SOL    HW259556   8.972   4.787   1.303 -0.9144  0.6105 -0.2257
20112SOL     OW59557   7.868   6.560   3.966 -0.1787  0.1720  0.0813
20112SOL    HW159558   7.823   6.492   4.024 -0.2987  1.0359  1.0033
20112SOL    HW259559   7.860   6.532   3.870  1.7932 -2.3174  0.5808
20113SOL     OW59560   1.733   9.853   1.962 -0.0906  1.1629  0.4143
20113SOL    HW159561   1.736   9.787   2.037 -2.9331  0.2777 -0.2197
20113SOL    HW259562   1.713   9.807   1.876  0.5654  2.5168 -0.4928
20114SOL     OW59563   2.044   5.763   6.276  0.3451 -0.2831  0.2756
20114SOL    HW159564   2.053   5.863   6.272  2.3068 -0.3491  2.1948
20114SOL    HW259565   2.025   5.735   6.370  0.4888 -1.7670 -0.1275
20115SOL     OW59566   9.048   3.855   0.722  0.0513 -0.2624  0.0668
20115SOL    HW159567   9.031   3.942   0.767 -0.7411 -1.1135  1.4540
20115SOL    HW259568   9.027   3.863   0.624  0.1068  1.1288  0.1675
20117SOL     OW59569   3.382   6.674   3.098  0.5662 -0.0377 -0.1299
20117SOL    HW159570   3.300   6.620   3.078 -0.4409  1.8267 -1.1685
20117SOL    HW259571   3.445   6.667   3.021  1.5037 -1.6784  0.7792
20118SOL     OW59572   3.504   1.285   1.069  0.3594 -0.3542  0.0354
20118SOL    HW159573   3.413   1.308   1.105  0.3692  0.3717 -0.4069
20118SOL    HW259574   3.494   1.245   0.978  0.5524  0.6405 -0.4240
20120SOL     OW59575   1.109   6.189   3.247  0.0320 -0.1473  0.7373
20120SOL    HW159576   1.146   6.119   3.186  1.1727  1.0643 -0.0029
20120SOL    HW259577   1.163   6.194   3.330 -0.0853 -0.1937  0.8161
20121SOL     OW59578   9.597   4.464   5.901 -0.5563  0.5434  0.0921
20121SOL    HW159579   9.679   4.480   5.846 -0.8210 -1.4518 -0.9517
20121SOL    HW259580   9.609   4.380   5.954 -1.1553  1.2980  1.4310
20123SOL     OW59581   1.792   0.063   4.910  0.0228  0.4361 -0.2591
20123SOL    HW159582   1.787   0.155   4.870  0.5264  0.3544 -0.5063
20123SOL    HW259583   1.880   0.051   4.956  0.1583 -0.0976 -0.6563
20124SOL     OW59584   0.734   7.765   1.281  0.0876  0.4646 -0.3597
20124SOL    HW159585   0.707   7.723   1.194  0.4459 -0.0020 -0.2450
20124SOL    HW259586   0.822   7.812   1.269 -0.7657  2.0054 -0.7387
20126SOL     OW59587   3.641   7.511   4.057 -0.2208 -0.5642 -0.6248
20126SOL    HW159588   3.620   7.607   4.071 -0.8089 -0.6789 -0.7005
20126SOL    HW259589   3.594   7.478   3.975  0.6094 -0.7113 -1.0451
20127SOL     OW59590   1.621   7.483   4.584  0.0639 -0.1709 -0.2759
20127SOL    HW159591   1.675   7.447   4.508 -0.1317  0.1640 -0.5704
20127SOL    HW259592   1.631   7.422   4.663  0.8695 -0.1138 -0.3288
20132SOL     OW59593   4.333   1.003   4.832  0.4982 -0.4199  0.0984
20132SOL    HW159594   4.242   1.011   4.872 -0.0392  0.9254 -1.3725
20132SOL    HW259595   4.363   1.092   4.799  2.0337 -1.0109 -0.1400
20134SOL     OW59596   0.931   7.234   5.488  0.2311 -1.1386  0.1427
20134SOL    HW159597   0.914   7.333   5.478 -1.3145 -1.4997 -1.1325
20134SOL    HW259598   0.885   7.201   5.570  1.8332 -0.5700  1.2827
20135SOL     OW59599   7.288   6.417   7.558  0.1914 -0.6553  0.3222
20135SOL    HW159600   7.372   6.440   7.605 -0.0571  0.0156  0.4377
20135SOL    HW259601   7.280   6.472   7.475  0.4586 -1.5800 -0.3268
20136SOL     OW59602   5.186   8.912   1.970  0.1272  0.1723  0.5262
20136SOL    HW159603   5.208   8.978   2.042  1.2060  1.1326 -0.6661
20136SOL    HW259604   5.094   8.932   1.934 -0.3085 -0.1521  1.4336
20137SOL     OW59605   3.285   7.795   6.150  0.6237 -0.2511  0.5309
20137SOL    HW159606   3.357   7.864   6.141 -0.4714  0.7862 -0.3970
20137SOL    HW259607   3.266   7.754   6.061 -1.1580  0.7465  0.4259
20138SOL     OW59608   2.500   7.587   4.164  0.0648  0.2453  0.4534
20138SOL    HW159609   2.501   7.654   4.089  1.4923  0.8306  0.9629
20138SOL    HW259610   2.490   7.495   4.126 -0.5340  0.6422 -0.3633
20139SOL     OW59611   2.897   1.023   3.020 -1.1902 -0.1223  0.7422
20139SOL    HW159612   2.867   1.113   2.989 -0.0630  0.4979  1.4137
20139SOL    HW259613   2.919   0.966   2.941 -0.9102  0.5495  0.3257
20140SOL     OW59614   2.663   2.773   3.968 -0.0328  0.4842  0.0416
20140SOL    HW159615   2.599   2.849   3.972 -0.8465 -0.2249  0.8052
20140SOL    HW259616   2.748   2.798   4.014  0.0501  1.2534 -0.5319
20141SOL     OW59617   0.402   9.519   1.034 -0.4595 -0.2763  0.1378
20141SOL    HW159618   0.388   9.572   1.118  0.6927 -1.5944  1.1894
20141SOL    HW259619   0.500   9.517   1.013 -0.6359 -0.8489 -0.6437
20143SOL     OW59620   7.897   9.389   1.310  0.0612 -0.0572 -0.0120
20143SOL    HW159621   7.943   9.325   1.371  0.1702 -0.6273 -0.6908
20143SOL    HW259622   7.802   9.401   1.340  0.3434  0.2925  0.7506
20144SOL     OW59623   1.111   3.809   5.589  0.3974 -0.2815 -0.6685
20144SOL    HW159624   1.055   3.794   5.508  1.2224  0.6175 -1.4255
20144SOL    HW259625   1.147   3.903   5.588  1.3602 -0.6309  0.1441
20145SOL     OW59626   3.187   0.937   3.041  0.4317 -0.0631 -0.6641
20145SOL    HW159627   3.179   0.838   3.053  1.4322  0.0145  0.7053
20145SOL    HW259628   3.095   0.977   3.045 -0.0816 -1.0073 -2.1516
20146SOL     OW59629   1.198   4.567   3.726 -0.5154  0.4154  0.3246
20146SOL    HW159630   1.125   4.499   3.726 -1.1591  1.1011  0.0657
20146SOL    HW259631   1.210   4.604   3.818 -1.2815  1.1417  0.1327
20148SOL     OW59632   9.495   8.359   0.811 -0.3373 -0.0417 -0.0378
20148SOL    HW159633   9.552   8.282   0.840  0.7085  1.1767  1.2120
20148SOL    HW259634   9.544   8.411   0.741  0.1800  1.1314  1.1927
20149SOL     OW59635   2.670   0.165   5.810 -0.0687  0.0518 -0.6167
20149SOL    HW159636   2.576   0.166   5.843  0.4774  0.2788  0.9858
20149SOL    HW259637   2.700   0.071   5.797 -0.0993 -0.0559  0.0988
20151SOL     OW59638   3.068   8.916   1.490 -0.4084 -0.0966  0.1594
20151SOL    HW159639   3.001   8.981   1.527  0.6127 -0.4982  2.8635
20151SOL    HW259640   3.159   8.957   1.494  0.4406 -2.0975  3.1674
20152SOL     OW59641   8.702   0.262   7.624  0.0864 -0.2248  0.5666
20152SOL    HW159642   8.794   0.225   7.634  0.3792  0.3210 -0.0910
20152SOL    HW259643   8.690   0.339   7.687  0.0559 -0.3376  0.6989
20153SOL     OW59644   5.186   5.288   1.612  0.0458 -0.1162 -0.3863
20153SOL    HW159645   5.203   5.200   1.657 -2.3908 -1.2691 -1.5934
20153SOL    HW259646   5.125   5.343   1.668 -1.9560 -1.0245 -1.6362
20155SOL     OW59647   8.261   8.898   5.795  0.1587  0.0927 -0.4762
20155SOL    HW159648   8.255   8.833   5.720  0.1817  0.8046 -1.0928
20155SOL    HW259649   8.280   8.848   5.880 -0.6336 -0.7803 -0.8074
20156SOL     OW59650   8.648   5.188   4.012  0.1618 -0.4196  0.3137
20156SOL    HW159651   8.677   5.166   3.919  1.4754 -0.3726  0.6985
20156SOL    HW259652   8.548   5.196   4.015 -0.0811 -2.6098 -0.6203
20157SOL     OW59653   2.597   6.093   0.312  0.9228 -0.7030  0.4907
20157SOL    HW159654   2.601   6.151   0.394  2.3511 -1.1627  0.7669
20157SOL    HW259655   2.690   6.077   0.279  0.4107 -1.3038 -0.6766
20158SOL     OW59656   7.154   7.627   3.847 -0.0640 -0.0931  0.5403
20158SOL    HW159657   7.233   7.614   3.907 -0.1833  0.6528  0.8725
20158SOL    HW259658   7.098   7.702   3.883  0.3141  0.9229 -0.9764
20159SOL     OW59659   8.120   3.684   1.898 -0.4427  0.5769  0.3266
20159SOL    HW159660   8.037   3.681   1.953 -0.0209  2.9058  1.1634
20159SOL    HW259661   8.185   3.747   1.940  1.2879 -0.3198 -0.9503
20160SOL     OW59662   0.605   1.725   4.982  0.2455 -0.1758  0.3689
20160SOL    HW159663   0.550   1.808   4.995 -0.7277 -0.6511 -0.5544
20160SOL    HW259664   0.702   1.746   4.994 -0.0665  0.9158  0.9674
20161SOL     OW59665   2.169   9.243   4.927 -0.1462 -0.0986 -0.0052
20161SOL    HW159666   2.165   9.302   4.847 -0.4655  2.5160  1.8935
20161SOL    HW259667   2.086   9.188   4.932  0.8184 -1.9466 -2.6198
20162SOL     OW59668   1.144   0.323   7.134 -0.4348  0.2096  0.0565
20162SOL    HW159669   1.083   0.392   7.097 -1.1784 -0.4203  0.1012
20162SOL    HW259670   1.203   0.364   7.204 -0.6021  0.8800 -0.1985
20163SOL     OW59671   1.037   7.375   1.446  0.7458  0.8174  0.1653
20163SOL    HW159672   1.106   7.304   1.433  1.4078  1.4312  0.2979
20163SOL    HW259673   1.013   7.380   1.544 -1.5237 -1.2727 -0.2220
20164SOL     OW59674   9.434   1.966   3.925  0.0336  0.5228 -0.6203
20164SOL    HW159675   9.433   1.871   3.955 -0.4791  0.9360  0.7155
20164SOL    HW259676   9.499   1.977   3.849  1.2295 -0.5883  0.2198
20165SOL     OW59677   3.474   3.862   6.299 -0.0719 -0.4067 -0.0286
20165SOL    HW159678   3.538   3.919   6.246  0.7917 -0.5073  0.8841
20165SOL    HW259679   3.519   3.776   6.321  0.0354  0.1361  1.9419
20167SOL     OW59680   8.074   8.908   6.766  0.1321  0.1818 -0.4466
20167SOL    HW159681   8.070   8.997   6.812 -1.6348 -0.5334  0.8023
20167SOL    HW259682   8.004   8.847   6.803  1.4649 -1.8286 -1.1357
20169SOL     OW59683   8.032   6.500   5.477 -0.5376  0.0011  0.4957
20169SOL    HW159684   8.057   6.594   5.500 -2.2090  0.0254  2.3556
20169SOL    HW259685   8.114   6.450   5.446  0.5341  1.7784  0.3816
20170SOL     OW59686   8.944   4.333   3.515  0.0556  0.2951 -0.6017
20170SOL    HW159687   8.945   4.328   3.415 -0.0224  0.7236 -0.6276
20170SOL    HW259688   8.858   4.297   3.550 -0.5178  1.4601 -0.7742
20172SOL     OW59689   8.733   6.626   1.897  0.5953 -0.0028 -0.1239
20172SOL    HW159690   8.744   6.715   1.940  1.3769  0.4759 -1.3048
20172SOL    HW259691   8.821   6.595   1.860  0.2101 -0.9914 -0.2349
20173SOL     OW59692   3.349   3.926   4.216 -0.1680  0.5208 -0.2490
20173SOL    HW159693   3.332   3.890   4.308  0.3632 -1.8294 -1.0258
20173SOL    HW259694   3.285   4.001   4.197 -0.2660  1.0459  2.0212
20175SOL     OW59695   0.696   0.130   1.378  0.5491  0.2491 -0.2179
20175SOL    HW159696   0.633   0.055   1.360  0.5202  0.6295 -1.8392
20175SOL    HW259697   0.656   0.194   1.444 -0.6637  0.3534 -1.0502
20176SOL     OW59698   2.811   7.549   3.532  0.2296  0.5166  0.8671
20176SOL    HW159699   2.894   7.531   3.479  0.0707  1.4520  0.2881
20176SOL    HW259700   2.833   7.610   3.608  0.3403 -0.3408  1.5201
20177SOL     OW59701   7.959   6.039   7.107  0.8703  0.1386 -0.4347
20177SOL    HW159702   7.896   5.980   7.057  2.1661  1.0940 -3.3171
20177SOL    HW259703   8.007   5.986   7.177  1.0478 -1.9123 -2.0666
20178SOL     OW59704   1.857   1.804   3.948  0.3509  0.2479  0.4231
20178SOL    HW159705   1.797   1.842   3.878 -1.0984  0.1140  1.5586
20178SOL    HW259706   1.951   1.830   3.929  0.3212 -1.7796 -2.8861
20179SOL     OW59707   2.928   6.434   2.453  0.2664 -0.4712  0.1530
20179SOL    HW159708   2.964   6.416   2.544  0.1536  0.4185  0.3849
20179SOL    HW259709   2.912   6.533   2.443 -0.6223 -0.6776 -0.4927
20181SOL     OW59710   3.334   1.518   2.063 -0.1829  0.0562  0.1906
20181SOL    HW159711   3.327   1.617   2.057  0.4389  0.2201  1.7375
20181SOL    HW259712   3.426   1.489   2.037 -0.7977 -0.2656 -1.6786
20182SOL     OW59713   8.526   6.509   0.067  0.1069  0.3133  0.2984
20182SOL    HW159714   8.587   6.446   0.115 -0.3764 -0.0879  0.3957
20182SOL    HW259715   8.431   6.489   0.092 -0.0580  1.0197  0.2558
20183SOL     OW59716   0.505   0.457   2.774  0.5037 -0.0984 -0.6967
20183SOL    HW159717   0.409   0.449   2.799  0.0983  0.1018 -2.1613
20183SOL    HW259718   0.526   0.553   2.753  0.8181 -0.2739 -1.1912
20184SOL     OW59719   8.387   9.850   6.450 -0.0803  0.0369  0.5756
20184SOL    HW159720   8.413   9.798   6.369 -0.1866  0.3865  0.3148
20184SOL    HW259721   8.290   9.836   6.470  0.2535 -1.1282  1.4469
20185SOL     OW59722   1.791   6.955   6.172 -0.5376  0.1456  0.2850
20185SOL    HW159723   1.864   7.014   6.140  0.6329 -2.3863 -1.9293
20185SOL    HW259724   1.818   6.913   6.260 -0.2348  0.8227  0.5171
20186SOL     OW59725   0.610   7.788   7.233  0.4170 -0.4440  0.0918
20186SOL    HW159726   0.601   7.869   7.174 -0.8203 -2.4137 -2.5228
20186SOL    HW259727   0.704   7.779   7.263  1.0897  0.6344 -1.6087
20187SOL     OW59728   1.076   9.888   6.920  0.9355  0.2009 -0.0922
20187SOL    HW159729   0.999   9.829   6.899  0.7927  0.4545 -0.2906
20187SOL    HW259730   1.112   9.866   7.010  0.8963 -0.2006 -0.1765
20188SOL     OW59731   0.392   7.061   4.877  0.8722 -0.2772 -0.0937
20188SOL    HW159732   0.414   6.973   4.920 -1.6553 -2.0199 -2.2169
20188SOL    HW259733   0.399   7.052   4.777 -0.9053  1.5001 -0.4071
20189SOL     OW59734   1.697   1.967   5.978  0.3908  0.5546 -0.5132
20189SOL    HW159735   1.742   1.960   6.067  0.6922  1.9210 -0.5387
20189SOL    HW259736   1.603   1.998   5.990  0.2149  0.0648 -0.6236
20193SOL     OW59737   0.389   2.796   6.575 -0.6661  0.2364  0.0890
20193SOL    HW159738   0.296   2.787   6.537 -0.8870  0.3924  0.5876
20193SOL    HW259739   0.420   2.890   6.566 -0.2869  0.0389 -0.6905
20194SOL     OW59740   5.655   1.474   4.206  0.5449  0.0406 -0.7402
20194SOL    HW159741   5.565   1.504   4.239  0.9050  0.4409 -0.1022
20194SOL    HW259742   5.718   1.552   4.206  1.2497 -0.5151  0.0811
20196SOL     OW59743   1.116   4.416   2.975  0.8262  0.1876  0.3428
20196SOL    HW159744   1.185   4.470   2.928  1.7972 -1.4299 -0.1243
20196SOL    HW259745   1.031   4.419   2.924  1.5398 -0.6213 -0.9199
20197SOL     OW59746   1.553   1.300   2.284 -0.4334  0.1183  0.3247
20197SOL    HW159747   1.570   1.202   2.279 -1.1709  0.1057 -2.5000
20197SOL    HW259748   1.458   1.315   2.311 -0.6625  0.0217 -0.4057
20198SOL     OW59749   3.301   9.967   1.984  0.7293 -0.3180 -0.2169
20198SOL    HW159750   3.335  10.036   2.047  1.5249 -0.2527 -0.7185
20198SOL    HW259751   3.371   9.897   1.969 -0.1013 -1.3046  0.3754
20199SOL     OW59752   8.958   7.032   1.467  0.2743 -0.0875 -0.6422
20199SOL    HW159753   8.991   6.938   1.472  0.1064 -0.1102  0.0521
20199SOL    HW259754   8.877   7.042   1.525 -1.6152 -0.3217 -3.1187
20200SOL     OW59755   1.747   2.892   2.279  0.5095 -0.2600 -0.4407
20200SOL    HW159756   1.768   2.990   2.281  0.5453 -0.1871 -2.6646
20200SOL    HW259757   1.704   2.865   2.365  3.2856  1.0574  1.4491
20202SOL     OW59758   3.441   8.103   7.136  0.0001  0.3062 -0.7308
20202SOL    HW159759   3.444   8.011   7.176  1.1612  0.3426 -0.7081
20202SOL    HW259760   3.437   8.171   7.209  1.2827  0.3425 -0.6876
20203SOL     OW59761   7.488   4.149   3.840  0.1226  0.0517  0.5212
20203SOL    HW159762   7.486   4.083   3.915 -1.1994 -0.0707  0.3851
20203SOL    HW259763   7.518   4.238   3.875  0.1335 -0.1629  1.0640
20206SOL     OW59764   0.234   0.703   2.918 -0.4215 -1.2110  0.3732
20206SOL    HW159765   0.232   0.724   2.820 -0.2769  0.3089  0.6910
20206SOL    HW259766   0.304   0.758   2.963 -3.2850  1.1724  2.0413
20207SOL     OW59767   2.092   0.127   0.471 -0.6285  0.3869  0.3595
20207SOL    HW159768   2.148   0.049   0.499 -1.2519 -0.2137 -0.0477
20207SOL    HW259769   2.066   0.181   0.551  0.8706  0.9052  0.5106
20208SOL     OW59770   0.435   7.745   3.390  0.0095  0.4444 -0.9923
20208SOL    HW159771   0.373   7.818   3.361 -0.2390  1.5303  2.1445
20208SOL    HW259772   0.526   7.784   3.406 -0.2060  0.1554  1.0065
20210SOL     OW59773   0.537   3.723   2.663 -0.0866 -0.1507  0.4690
20210SOL    HW159774   0.536   3.656   2.737 -0.3410  0.7379  1.2818
20210SOL    HW259775   0.561   3.813   2.699 -0.3302  0.3208 -0.5095
20211SOL     OW59776   9.014   3.106   4.537 -0.1461  0.5565  0.2315
20211SOL    HW159777   8.989   3.037   4.606 -1.3469  0.4212 -0.3215
20211SOL    HW259778   8.970   3.193   4.560 -0.4786  0.5333 -0.3009
20212SOL     OW59779   3.736   2.074   7.725 -0.1648 -0.5558 -0.3519
20212SOL    HW159780   3.651   2.114   7.689  0.2078  1.7723  1.2391
20212SOL    HW259781   3.740   1.977   7.700 -2.4422 -0.2939 -1.9516
20213SOL     OW59782   7.192   8.429   4.962  0.3898  0.4013  0.0538
20213SOL    HW159783   7.196   8.474   5.051 -0.8719  1.0240 -0.1917
20213SOL    HW259784   7.278   8.442   4.913 -0.2058  3.1375 -0.2982
20215SOL     OW59785   3.395   3.655   7.614 -0.1608 -0.3381 -0.2037
20215SOL    HW159786   3.306   3.609   7.622 -0.2615  0.0737  1.2182
20215SOL    HW259787   3.425   3.652   7.519 -0.7647 -2.2115 -0.3683
20216SOL     OW59788   0.326   2.520   5.833  0.1749 -0.2185 -0.5225
20216SOL    HW159789   0.356   2.487   5.922  0.8402  0.0738 -0.6355
20216SOL    HW259790   0.253   2.587   5.844  1.1081  0.7466 -0.1409
20217SOL     OW59791   9.111   1.595   2.453  0.2168 -0.2903  0.2116
20217SOL    HW159792   9.019   1.634   2.454 -0.3866 -1.6856  2.2783
20217SOL    HW259793   9.123   1.539   2.372 -1.0870 -0.8612  0.4097
20218SOL     OW59794   1.159   2.456   2.538  0.0182 -0.2262  0.0858
20218SOL    HW159795   1.134   2.376   2.593 -1.7011 -0.3213 -0.8048
20218SOL    HW259796   1.184   2.531   2.599  1.0924 -1.2527  0.9389
20220SOL     OW59797   9.851   2.717   7.584 -0.1179  0.1196  0.6937
20220SOL    HW159798   9.944   2.684   7.601 -0.1395 -0.2182  0.1825
20220SOL    HW259799   9.818   2.768   7.663  0.4374  0.0853  0.9476
20221SOL     OW59800   1.131   5.704   5.174 -0.1468 -0.4293 -0.0270
20221SOL    HW159801   1.195   5.778   5.157  0.7653 -0.8110  1.6040
20221SOL    HW259802   1.058   5.736   5.234 -0.9359 -0.2732 -1.0575
20224SOL     OW59803   3.342   4.596   0.341  0.2845 -0.3544 -0.3225
20224SOL    HW159804   3.337   4.576   0.243 -1.2045  0.5942 -0.4679
20224SOL    HW259805   3.411   4.667   0.357  3.0131 -2.9415 -0.2352
20225SOL     OW59806   7.910   9.092   5.602  0.6707 -0.0392 -0.2206
20225SOL    HW159807   7.954   9.014   5.559  0.1967  0.1940 -1.1392
20225SOL    HW259808   7.811   9.079   5.603  0.7874 -1.1646  3.0041
20226SOL     OW59809   9.237   4.954   1.662  0.0790  0.0718  0.3663
20226SOL    HW159810   9.201   4.875   1.711 -0.3869  0.3053  0.3997
20226SOL    HW259811   9.310   4.925   1.600  0.0372 -0.3521  0.5196
20227SOL     OW59812   9.775   7.436   1.959 -0.7588  0.1816  0.5818
20227SOL    HW159813   9.842   7.362   1.965  0.9055  1.7062  1.4189
20227SOL    HW259814   9.683   7.399   1.974  0.1350 -1.5274  2.0176
20228SOL     OW59815   9.599   4.475   3.389 -0.4405  0.4143 -0.2219
20228SOL    HW159816   9.680   4.488   3.446  0.1218  0.0819 -0.9463
20228SOL    HW259817   9.559   4.386   3.408 -0.1769  0.2491 -0.4419
20229SOL     OW59818   0.197   0.123   7.475 -0.4212 -0.7994 -0.3821
20229SOL    HW159819   0.098   0.122   7.487 -0.0233 -0.8300  3.2481
20229SOL    HW259820   0.223   0.050   7.411 -2.8240  0.1196 -2.4694
20230SOL     OW59821   6.975   0.450   7.112 -0.2909 -0.1775  0.4092
20230SOL    HW159822   6.993   0.517   7.040 -0.3225  1.1608  1.6367
20230SOL    HW259823   6.985   0.493   7.201  2.2638 -2.4673  1.2823
20231SOL     OW59824   8.170   4.310   1.199  0.4229 -0.6136  0.4623
20231SOL    HW159825   8.133   4.369   1.127  1.3135 -1.3449 -0.6052
20231SOL    HW259826   8.095   4.259   1.243 -0.0883 -0.3762 -0.1322
20233SOL     OW59827   4.455   3.559   3.141  0.2484 -0.1998  0.1183
20233SOL    HW159828   4.359   3.586   3.141 -0.2901 -2.0983 -1.1503
20233SOL    HW259829   4.485   3.542   3.235 -0.4884  0.8697  0.5611
20234SOL     OW59830   6.341   9.216   6.527  0.1525  0.1220 -0.1147
20234SOL    HW159831   6.438   9.194   6.526  0.1617  0.1596 -0.0354
20234SOL    HW259832   6.317   9.262   6.442  0.0830 -0.4036 -0.3835
20235SOL     OW59833   6.311   1.173   6.543 -0.7225  0.3508  0.8886
20235SOL    HW159834   6.256   1.218   6.613 -1.8061  0.1711  0.1551
20235SOL    HW259835   6.366   1.241   6.494 -0.0971  0.4969  1.7793
20236SOL     OW59836   2.624   0.679   6.373 -0.4026 -0.1285 -0.8657
20236SOL    HW159837   2.619   0.580   6.382 -0.9011  0.0333  0.9785
20236SOL    HW259838   2.532   0.717   6.372 -0.2085  0.3334 -1.3076
20237SOL     OW59839   5.532   8.730   2.625 -0.3295  0.7829 -0.2576
20237SOL    HW159840   5.483   8.813   2.650  0.5803  1.5682 -1.0254
20237SOL    HW259841   5.470   8.666   2.581 -1.4896  0.2214  2.1031
20239SOL     OW59842   3.779   3.242   0.330 -0.1483 -0.0850 -0.7625
20239SOL    HW159843   3.776   3.187   0.414 -2.8462 -0.5390 -1.1152
20239SOL    HW259844   3.803   3.337   0.353  0.1358 -0.4207  0.3763
20240SOL     OW59845   3.621   9.237   6.683 -0.6577 -0.3520  0.6355
20240SOL    HW159846   3.621   9.254   6.781  2.0815 -1.8690  0.9665
20240SOL    HW259847   3.584   9.146   6.665 -1.0010 -0.1406  0.2708
20242SOL     OW59848   6.632   9.112   4.087 -0.0518  0.3242  0.2500
20242SOL    HW159849   6.551   9.056   4.103 -0.4930  1.0331  0.5032
20242SOL    HW259850   6.675   9.136   4.174  0.5176 -0.1769  0.1102
20243SOL     OW59851   2.721   7.402   3.791  0.3426  0.8842 -0.1693
20243SOL    HW159852   2.741   7.499   3.802  0.7545  0.8317 -0.4361
20243SOL    HW259853   2.677   7.387   3.702  0.2132  0.8411 -0.0962
20244SOL     OW59854   1.347   5.651   2.568 -0.3511 -0.9518  0.8814
20244SOL    HW159855   1.248   5.640   2.561 -0.0109 -2.4600 -2.7207
20244SOL    HW259856   1.369   5.749   2.568 -1.7362 -0.6135 -0.8568
20246SOL     OW59857   4.246   9.032   4.761 -0.2342 -0.2460  0.2094
20246SOL    HW159858   4.312   8.990   4.698 -0.7859 -1.4112  0.3955
20246SOL    HW259859   4.200   8.960   4.813 -0.4430  0.6622  1.2849
20247SOL     OW59860   4.234   2.734   1.527 -0.2278  0.0748  0.2698
20247SOL    HW159861   4.306   2.803   1.520 -1.4381  1.3379 -0.0413
20247SOL    HW259862   4.184   2.731   1.440 -0.8497 -0.4437  0.6480
20248SOL     OW59863   6.931   3.005   4.533  0.0402 -0.0531  0.6435
20248SOL    HW159864   6.843   3.012   4.485  0.9387  0.9278 -0.8903
20248SOL    HW259865   6.960   2.909   4.537  0.2221 -0.0920 -1.2704
20249SOL     OW59866   3.395   1.899   1.787  0.0436 -0.1830  0.0907
20249SOL    HW159867   3.366   1.849   1.868  0.6590  0.1905  0.5412
20249SOL    HW259868   3.473   1.853   1.745  1.9932  1.5368  1.7208
20250SOL     OW59869   0.355   8.796   3.478 -0.0324 -0.2999 -0.0004
20250SOL    HW159870   0.291   8.829   3.548 -0.6539 -1.9047  0.1935
20250SOL    HW259871   0.316   8.812   3.387  0.0516  0.2887  0.0658
20251SOL     OW59872   1.434   8.601   3.221  0.4238 -0.1753 -0.5793
20251SOL    HW159873   1.434   8.683   3.162 -1.4042  0.0766 -0.2810
20251SOL    HW259874   1.522   8.592   3.266  2.0639 -0.6600 -3.7469
20252SOL     OW59875   9.905   7.188   2.276 -0.2001 -0.0830  0.4202
20252SOL    HW159876   9.923   7.284   2.256  1.7006 -0.3741  0.6077
20252SOL    HW259877   9.958   7.160   2.356 -1.1935 -1.1256  0.7238
20253SOL     OW59878   8.451   0.795   0.232 -0.0751  0.3464  0.1241
20253SOL    HW159879   8.518   0.803   0.159  0.4498 -2.1498  0.2921
20253SOL    HW259880   8.444   0.699   0.261 -1.7463  0.9835  1.9513
20254SOL     OW59881   8.504   5.349   5.318  0.2201  0.1690 -0.0453
20254SOL    HW159882   8.412   5.363   5.281  0.2256  0.7929  0.1596
20254SOL    HW259883   8.558   5.432   5.303  0.7188 -0.1633 -0.0806
20255SOL     OW59884   2.473   8.215   3.071  0.2895 -0.1483  0.3057
20255SOL    HW159885   2.470   8.120   3.040 -0.5551 -0.0979  0.2186
20255SOL    HW259886   2.429   8.273   3.003  0.4173  0.2493  0.5642
20256SOL     OW59887   2.530   9.492   4.457  0.4867 -0.6554 -0.5191
20256SOL    HW159888   2.571   9.542   4.381 -2.2223 -0.3965 -1.8949
20256SOL    HW259889   2.492   9.406   4.424  2.0092 -2.0053  1.1702
20258SOL     OW59890   3.855   4.150   5.976 -0.7206 -0.3792 -0.1076
20258SOL    HW159891   3.898   4.094   5.905 -0.4150 -0.2677 -0.0116
20258SOL    HW259892   3.858   4.102   6.063 -0.6357 -0.2963 -0.0647
20259SOL     OW59893   3.414   9.752   7.261  0.4601 -0.4192 -0.0815
20259SOL    HW159894   3.357   9.792   7.189  0.6851 -0.7761 -0.4659
20259SOL    HW259895   3.456   9.668   7.226  0.4221 -0.6918  0.5362
20260SOL     OW59896   0.892   1.024   3.677 -0.1788 -0.2833 -0.2409
20260SOL    HW159897   0.975   1.071   3.645  0.1460 -0.0060  0.9984
20260SOL    HW259898   0.910   0.980   3.765 -1.2523 -0.5201 -0.1334
20261SOL     OW59899   1.480   9.240   4.480  0.6168  0.1841  0.2667
20261SOL    HW159900   1.457   9.246   4.577  0.5785  0.4627  0.2403
20261SOL    HW259901   1.400   9.261   4.425  0.6708  0.1509  0.1752
20262SOL     OW59902   1.665   4.242   2.766  0.5308 -0.6244 -1.2720
20262SOL    HW159903   1.672   4.145   2.789  2.0134  0.0023  1.0672
20262SOL    HW259904   1.580   4.279   2.803  1.1389 -0.4679 -0.0367
20265SOL     OW59905   1.498   6.404   4.731  0.1674  0.2244 -0.1186
20265SOL    HW159906   1.419   6.342   4.727 -0.9032  1.4378  1.6709
20265SOL    HW259907   1.574   6.356   4.775  0.5174 -0.9936 -1.9646
20266SOL     OW59908   5.834   1.665   4.235 -0.0115 -0.3082 -0.1750
20266SOL    HW159909   5.863   1.685   4.142 -1.3756  2.2706 -0.0936
20266SOL    HW259910   5.914   1.657   4.295  0.7791 -0.2132 -1.2153
20267SOL     OW59911   1.863   6.051   5.955  0.1957 -0.0966  0.0227
20267SOL    HW159912   1.952   6.087   5.984 -0.3347  0.3377  1.1068
20267SOL    HW259913   1.828   5.988   6.024 -1.0170  0.8519  0.2700
20268SOL     OW59914   1.823   7.541   3.668 -0.0810 -0.2171 -0.1064
20268SOL    HW159915   1.768   7.542   3.584 -0.0029  1.0806 -0.1553
20268SOL    HW259916   1.897   7.475   3.658  0.8909  1.0784 -1.7052
20269SOL     OW59917   7.393   6.968   2.494  0.4703  0.0556  0.5485
20269SOL    HW159918   7.390   6.883   2.546 -2.7134 -0.3164 -0.1341
20269SOL    HW259919   7.369   7.045   2.553 -0.2716 -0.0043  0.3341
20271SOL     OW59920   7.767   8.396   4.332 -0.0417 -0.2136 -0.2594
20271SOL    HW159921   7.743   8.431   4.422  2.1942 -2.2990  1.2207
20271SOL    HW259922   7.684   8.370   4.282 -1.2287 -0.4643  1.8165
20272SOL     OW59923   2.783   0.375   0.135  0.2250  0.3437  0.4154
20272SOL    HW159924   2.812   0.280   0.149  0.5070  0.5606  1.3270
20272SOL    HW259925   2.763   0.389   0.038  1.9978 -0.1364 -0.0423
20273SOL     OW59926   5.646   8.676   7.291  0.0763 -0.6761  0.5562
20273SOL    HW159927   5.712   8.683   7.216 -0.7039 -0.8757 -0.1475
20273SOL    HW259928   5.679   8.730   7.369  0.1740  0.7359 -0.4438
20274SOL     OW59929   0.083   5.770   1.384  0.4260 -0.2328  0.3655
20274SOL    HW159930   0.123   5.830   1.315 -0.0073 -0.6358 -0.2464
20274SOL    HW259931   0.138   5.687   1.392  0.4273 -0.2242  0.4421
20275SOL     OW59932   1.917   2.683   5.411  0.5809 -0.4078 -0.5641
20275SOL    HW159933   1.836   2.629   5.435 -0.4442 -0.0842 -3.0706
20275SOL    HW259934   1.908   2.776   5.447  0.5008 -0.7768  0.3721
20276SOL     OW59935   1.184   2.116   4.231 -0.1263 -0.3630 -0.5842
20276SOL    HW159936   1.121   2.161   4.295  1.2351 -0.3923  0.7909
20276SOL    HW259937   1.248   2.184   4.196 -0.8970 -0.3366 -1.9886
20279SOL     OW59938   9.317   9.354   3.804  0.1324  0.0719  0.0253
20279SOL    HW159939   9.346   9.384   3.714 -1.2483  1.2689 -0.0353
20279SOL    HW259940   9.316   9.431   3.867  0.9129 -0.7170  1.0269
20280SOL     OW59941   8.234   1.735   0.546 -0.2914 -0.4208 -0.4950
20280SOL    HW159942   8.247   1.825   0.504 -1.0672  0.4160  1.0089
20280SOL    HW259943   8.145   1.699   0.520 -0.7705  0.0966  0.3967
20281SOL     OW59944   8.389   4.926   5.296  0.4798 -0.0441  0.5570
20281SOL    HW159945   8.323   4.998   5.276  2.2624  1.5104  0.0558
20281SOL    HW259946   8.349   4.837   5.274 -0.2588  1.0697 -3.0541
20282SOL     OW59947   2.910   9.455   1.871  0.2367  0.1939  0.2953
20282SOL    HW159948   2.943   9.538   1.826  3.1397 -0.8457  0.4107
20282SOL    HW259949   2.948   9.449   1.964 -1.6730 -0.2036  1.0830
20284SOL     OW59950   1.101   6.964   3.372  0.0884 -0.1691  0.1650
20284SOL    HW159951   1.004   6.985   3.383 -0.3449 -2.3569  0.8426
20284SOL    HW259952   1.152   7.049   3.358 -1.8129  1.0783  0.5570
20285SOL     OW59953   1.510   6.842   1.190  0.3838 -0.4550 -0.1443
20285SOL    HW159954   1.588   6.831   1.129 -0.6983 -1.1569 -1.4226
20285SOL    HW259955   1.494   6.939   1.207  0.1758 -0.1988 -1.6943
20286SOL     OW59956   1.064   6.598   4.532 -0.2509 -0.4966 -0.3089
20286SOL    HW159957   1.003   6.666   4.574 -0.4199 -0.1847 -1.0603
20286SOL    HW259958   1.146   6.643   4.497 -0.9437 -0.4819 -1.9643
20287SOL     OW59959   3.821   6.341   3.944  0.2369  0.2633  0.5388
20287SOL    HW159960   3.791   6.303   3.856  1.6209 -0.1442  0.2228
20287SOL    HW259961   3.754   6.406   3.977 -1.1028 -0.8067 -0.0224
20288SOL     OW59962   8.593   9.166   1.113 -0.9594 -1.2939  0.3575
20288SOL    HW159963   8.683   9.205   1.091 -1.3443 -0.9535 -0.6598
20288SOL    HW259964   8.605   9.073   1.147 -0.3921 -2.4413 -2.7814
20289SOL     OW59965   9.286   0.545   2.546 -0.1087 -0.0859 -0.4293
20289SOL    HW159966   9.224   0.478   2.505 -0.3804  0.9538 -1.7644
20289SOL    HW259967   9.374   0.542   2.499  0.3335 -0.4469  0.4108
20290SOL     OW59968   7.178   2.786   5.055  0.1764  0.2328 -0.0205
20290SOL    HW159969   7.274   2.762   5.064  0.1699  0.5729  0.9676
20290SOL    HW259970   7.121   2.713   5.094  0.0749  0.5900  0.5072
20291SOL     OW59971   0.241   8.756   0.167  0.1579  0.3441  0.2832
20291SOL    HW159972   0.186   8.734   0.247 -0.8559 -0.0310 -0.5110
20291SOL    HW259973   0.182   8.770   0.088  1.0132  2.6892  0.0291
20293SOL     OW59974   5.503   9.653   3.732 -0.0784 -0.0014  0.0696
20293SOL    HW159975   5.496   9.598   3.649 -1.6909  0.8031 -0.3556
20293SOL    HW259976   5.530   9.594   3.809  2.3080 -0.5801 -1.1667
20294SOL     OW59977   0.433   7.990   1.902  0.0840  0.1634 -0.3948
20294SOL    HW159978   0.449   7.929   1.979  0.5968 -2.0164 -2.1641
20294SOL    HW259979   0.341   8.029   1.907 -0.5298 -1.3902  0.3456
20295SOL     OW59980   0.055   9.864   3.635  0.4017  0.1157 -0.0400
20295SOL    HW159981  -0.011   9.917   3.582  1.4665  0.2078 -1.2822
20295SOL    HW259982   0.028   9.768   3.635 -0.0622  0.2441 -0.0264
20296SOL     OW59983   2.786   5.434   0.744 -0.3273  0.0773  0.0808
20296SOL    HW159984   2.884   5.445   0.758 -0.0857 -1.5164 -0.2203
20296SOL    HW259985   2.739   5.437   0.832  0.0924 -0.0386  0.3106
20298SOL     OW59986   9.526   7.757   2.713  0.5217  0.4744  0.7030
20298SOL    HW159987   9.621   7.738   2.738  0.5591 -0.6655 -0.2755
20298SOL    HW259988   9.523   7.838   2.654  0.6320  1.9527  2.6883
20299SOL     OW59989   2.687   9.855   4.728  0.3376 -0.0105  0.4376
20299SOL    HW159990   2.768   9.797   4.722  0.2210 -0.0948 -0.3247
20299SOL    HW259991   2.711   9.942   4.771  1.0490  0.3650 -0.7102
20301SOL     OW59992   0.103   8.245   1.169  0.5094 -0.1181  0.4874
20301SOL    HW159993   0.170   8.175   1.195  0.3890 -0.1395  0.7317
20301SOL    HW259994   0.059   8.282   1.250  0.5979  0.2686  0.3618
20303SOL     OW59995   6.195   7.639   4.306 -0.1339  0.3425  0.7276
20303SOL    HW159996   6.279   7.668   4.352 -0.5652  3.2737 -0.2761
20303SOL    HW259997   6.116   7.680   4.352 -0.9851 -1.4919  0.9681
20304SOL     OW59998   9.490   8.315   7.472 -0.1985  0.1526 -0.2399
20304SOL    HW159999   9.461   8.235   7.524 -0.5244  1.1537  1.1394
20304SOL    HW260000   9.572   8.292   7.419  0.4944 -0.7202  1.1639
20306SOL     OW60001   9.295   5.447   5.620 -0.3944  0.6667  0.0656
20306SOL    HW160002   9.329   5.357   5.594 -0.1455  1.6105 -3.1872
20306SOL    HW260003   9.199   5.440   5.648 -0.9134 -0.4048 -1.8500
20307SOL     OW60004   5.668   9.452   7.333 -0.2761  0.9274 -0.3785
20307SOL    HW160005   5.615   9.476   7.414 -0.1406  0.2935 -0.1029
20307SOL    HW260006   5.765   9.447   7.356 -0.3430 -0.3643 -0.3077
20308SOL     OW60007   6.958   4.876   7.772 -0.0920  0.7001  0.2854
20308SOL    HW160008   7.047   4.875   7.818 -0.4472 -1.3197  1.0065
20308SOL    HW260009   6.952   4.956   7.712  2.2535  0.8099  0.1301
20309SOL     OW60010   8.641   7.497   0.323  0.6441  0.4008  0.5687
20309SOL    HW160011   8.581   7.417   0.332  0.8000  0.1117 -0.8053
20309SOL    HW260012   8.595   7.567   0.270  1.5880  0.0925 -0.6818
20310SOL     OW60013   9.025   3.972   3.677  0.2801 -0.1647  0.6017
20310SOL    HW160014   8.944   3.919   3.652 -1.7185  2.3192  1.5279
20310SOL    HW260015   9.038   3.968   3.776  0.2297  0.9066  0.6518
20311SOL     OW60016   6.865   7.612   7.075  0.3468 -0.9011 -0.2655
20311SOL    HW160017   6.839   7.520   7.046 -1.3779 -0.3204 -0.6176
20311SOL    HW260018   6.835   7.627   7.169 -0.1747 -0.3951 -0.5099
20312SOL     OW60019   9.713   0.925   5.109 -0.7262  0.0548  0.1229
20312SOL    HW160020   9.650   0.926   5.031 -0.3612  1.8431 -0.1820
20312SOL    HW260021   9.724   1.019   5.144  1.4534 -0.2827  0.4121
20313SOL     OW60022   7.744   9.385   7.644 -0.5683 -0.0906 -0.2666
20313SOL    HW160023   7.773   9.404   7.738 -0.0615 -1.3291 -0.1608
20313SOL    HW260024   7.645   9.394   7.637 -0.5727  0.3254  0.3083
20314SOL     OW60025   8.081   3.775   7.507  0.1459  0.1805  0.2510
20314SOL    HW160026   8.138   3.694   7.495 -0.3754  0.0021 -1.1557
20314SOL    HW260027   8.003   3.752   7.565  0.7239  0.0412  0.9746
20315SOL     OW60028   9.811   8.982   1.807 -0.6368 -0.2674  0.3417
20315SOL    HW160029   9.826   9.060   1.868  1.4089  0.5288 -1.1261
20315SOL    HW260030   9.737   8.925   1.843  1.0696 -0.3079  4.0054
20316SOL     OW60031   4.326   9.701   1.797  0.1570 -0.0221  0.6041
20316SOL    HW160032   4.370   9.715   1.708 -0.8191 -1.7017 -0.1730
20316SOL    HW260033   4.262   9.776   1.814 -0.4540 -0.2459 -0.6281
20318SOL     OW60034   7.323   0.692   5.088 -0.6937  0.6551 -0.4313
20318SOL    HW160035   7.379   0.729   5.162  1.3122 -3.3794  0.1928
20318SOL    HW260036   7.364   0.716   5.000  0.2291  0.4058 -0.0675
20319SOL     OW60037   7.381   9.319   2.159 -0.1653  0.1847  0.2095
20319SOL    HW160038   7.472   9.350   2.187  0.2042 -0.3198 -0.3983
20319SOL    HW260039   7.388   9.271   2.071 -1.0566  0.3593  0.0354
20320SOL     OW60040   0.474   2.467   4.817 -0.0035  0.8913  0.6353
20320SOL    HW160041   0.479   2.368   4.832  1.1607  0.9815  0.8895
20320SOL    HW260042   0.509   2.515   4.898  0.8018  1.4760 -0.0441
20321SOL     OW60043   3.091   7.064   1.692 -0.0045 -0.1981 -1.3170
20321SOL    HW160044   3.188   7.056   1.669 -0.3110 -0.5826 -2.4991
20321SOL    HW260045   3.075   7.028   1.784  0.7708 -1.3006 -1.6078
20322SOL     OW60046   8.270   1.548   0.915 -0.0827  0.1524 -0.3875
20322SOL    HW160047   8.278   1.448   0.913  1.7430  0.2922 -1.9927
20322SOL    HW260048   8.342   1.588   0.859  0.7434  2.4924  2.2570
20323SOL     OW60049   0.110   9.625   3.924  0.1674 -0.2608  0.2366
20323SOL    HW160050   0.202   9.587   3.921  0.8387  1.3692 -0.8263
20323SOL    HW260051   0.078   9.631   4.018  1.2643 -0.5884  0.6277
20325SOL     OW60052   4.323   5.430   3.325  0.3843  0.4882 -0.1157
20325SOL    HW160053   4.417   5.395   3.325 -1.4446 -4.9337 -0.3887
20325SOL    HW260054   4.281   5.409   3.413 -1.5779 -0.2926 -1.2145
20327SOL     OW60055   2.672   2.348   7.641  0.0216 -0.4122  0.8211
20327SOL    HW160056   2.670   2.250   7.664 -1.3928 -0.5568  0.1795
20327SOL    HW260057   2.579   2.385   7.647  0.5520  0.9155  1.0931
20328SOL     OW60058   1.177   2.679   0.868  0.1937  0.0464  0.0402
20328SOL    HW160059   1.120   2.685   0.950  0.6058  0.6862  0.2876
20328SOL    HW260060   1.190   2.770   0.830  2.2854  0.1225  0.8576
20329SOL     OW60061   4.869   6.999   1.947  0.8749 -0.0955  1.2638
20329SOL    HW160062   4.783   7.049   1.938  0.8571 -0.7178 -3.0981
20329SOL    HW260063   4.940   7.061   1.981  0.0367  2.0019 -0.6912
20330SOL     OW60064   9.999   4.698   3.164  0.3375  0.0172  0.6608
20330SOL    HW160065   9.918   4.750   3.137  1.0907  0.5778 -0.5620
20330SOL    HW260066  10.005   4.615   3.109  0.3080 -0.2745  1.1025
20331SOL     OW60067   1.737   0.652   0.379 -0.1719  0.0872 -0.2086
20331SOL    HW160068   1.680   0.594   0.438  0.2116 -1.4999 -1.3642
20331SOL    HW260069   1.771   0.598   0.302  1.9033  1.3239 -0.1968
20333SOL     OW60070   4.199   8.596   1.703  0.0964 -0.4511 -0.2293
20333SOL    HW160071   4.125   8.629   1.762 -0.8220 -1.3988 -0.8404
20333SOL    HW260072   4.239   8.674   1.654  0.6256  0.2984  1.3377
20336SOL     OW60073   2.624   5.502   1.188 -0.1143 -0.1991  0.0074
20336SOL    HW160074   2.670   5.490   1.276 -0.2668 -0.1178  0.0985
20336SOL    HW260075   2.555   5.573   1.196  1.1214  1.1099 -0.6586
20338SOL     OW60076   6.853   2.115   1.693  0.2023 -0.7898  0.0465
20338SOL    HW160077   6.800   2.160   1.621  0.5886  1.1719  0.9588
20338SOL    HW260078   6.797   2.043   1.735 -0.0477 -1.9005 -2.1257
20339SOL     OW60079   8.957   0.932   1.905 -0.3389 -0.3330  0.0217
20339SOL    HW160080   8.912   0.854   1.949 -2.0148  0.2619 -0.5838
20339SOL    HW260081   9.052   0.938   1.936 -0.7649 -1.4276  1.6006
20340SOL     OW60082   2.222   0.214   2.332  0.5023 -0.2544  0.6864
20340SOL    HW160083   2.268   0.131   2.363 -0.4725 -1.0704 -0.0153
20340SOL    HW260084   2.127   0.213   2.361 -0.1457 -0.5320 -1.3325
20341SOL     OW60085   8.732   2.339   0.934  0.1510 -0.0534  0.2562
20341SOL    HW160086   8.672   2.419   0.937 -0.5565 -0.5608 -0.2493
20341SOL    HW260087   8.817   2.363   0.887  0.0260  0.4629  0.2911
20342SOL     OW60088   3.813   6.407   2.117 -1.0452  0.4041 -0.4219
20342SOL    HW160089   3.849   6.500   2.107  1.1585 -0.5051 -1.3005
20342SOL    HW260090   3.873   6.355   2.178 -0.5009 -1.2962 -2.3258
20343SOL     OW60091   0.434   4.744   7.124  0.0204  0.4390 -0.3166
20343SOL    HW160092   0.490   4.687   7.064  1.2424 -0.6398  1.7769
20343SOL    HW260093   0.337   4.728   7.105  0.3042 -3.0207  0.7679
20344SOL     OW60094   9.729   2.493   3.427  0.4518 -0.1423 -0.0078
20344SOL    HW160095   9.752   2.584   3.395 -1.6965  0.2211 -0.6176
20344SOL    HW260096   9.795   2.463   3.496  0.7317  2.1710  0.7420
20346SOL     OW60097   8.328   2.285   6.965 -0.0379  0.1026 -0.4625
20346SOL    HW160098   8.426   2.279   6.986  0.2266 -0.6650 -1.8519
20346SOL    HW260099   8.313   2.352   6.892 -0.6708  0.9593  0.4400
20347SOL     OW60100   7.455   4.686   1.094 -0.0125  0.1870  0.7759
20347SOL    HW160101   7.489   4.682   1.188  0.1934 -1.5891  0.6249
20347SOL    HW260102   7.496   4.765   1.047  1.3830 -0.0530  1.5804
20348SOL     OW60103   8.070   5.633   2.621  0.2751 -0.6517 -0.0253
20348SOL    HW160104   8.048   5.669   2.712  3.4192 -0.6961  0.8256
20348SOL    HW260105   8.030   5.542   2.611 -2.5415  0.5222  0.1747
20349SOL     OW60106   3.479   4.679   3.314  0.3523 -0.3732 -0.2869
20349SOL    HW160107   3.456   4.728   3.230 -1.1748 -0.2312  0.2044
20349SOL    HW260108   3.499   4.584   3.292  3.2020  0.3840 -1.2281
20350SOL     OW60109   3.510   2.880   0.223  0.0974  0.9107  0.0336
20350SOL    HW160110   3.410   2.884   0.226 -0.0539 -2.3440  0.7356
20350SOL    HW260111   3.545   2.852   0.313  1.5618  0.3978 -0.6768
20352SOL     OW60112   9.298   1.914   6.981  0.0442 -0.3695 -0.3294
20352SOL    HW160113   9.212   1.893   7.028 -0.6208  1.7642 -0.4995
20352SOL    HW260114   9.277   1.954   6.891  1.1997  0.1583 -0.3712
20353SOL     OW60115   4.747   2.995   6.703  0.2796 -0.2898 -0.3043
20353SOL    HW160116   4.676   2.989   6.634  1.0870 -1.6325 -1.0371
20353SOL    HW260117   4.718   2.946   6.785 -0.3704  0.6782  0.0529
20354SOL     OW60118   0.051   7.816   2.883  0.1446  0.5462  0.8983
20354SOL    HW160119   0.097   7.739   2.839 -1.0414  0.7076 -0.6576
20354SOL    HW260120   0.082   7.901   2.842  0.9536  0.8693  2.1608
20357SOL     OW60121   3.133   7.228   4.492 -0.2260 -0.5608 -0.0982
20357SOL    HW160122   3.131   7.202   4.588  0.4305 -0.9480 -0.1884
20357SOL    HW260123   3.106   7.323   4.483 -2.6851 -1.1827  0.2370
20358SOL     OW60124   3.569   1.405   4.454  0.7842  0.2659 -0.0934
20358SOL    HW160125   3.597   1.501   4.444 -1.2373  0.8374 -0.3995
20358SOL    HW260126   3.484   1.400   4.506 -0.6380 -1.1544 -2.4914
20360SOL     OW60127   4.191   1.013   7.671  0.0792 -0.1597 -0.3217
20360SOL    HW160128   4.278   0.971   7.646  0.4015 -1.7543  3.3041
20360SOL    HW260129   4.116   0.956   7.637  0.4673 -0.7186 -0.2468
20361SOL     OW60130   3.941   4.771   5.648  0.7437  0.0114  0.3719
20361SOL    HW160131   4.040   4.752   5.651  0.4566 -1.7410 -0.7992
20361SOL    HW260132   3.914   4.798   5.556 -0.2200 -1.5392  0.1838
20362SOL     OW60133   3.411   4.840   4.272  0.1459 -0.7754  0.0698
20362SOL    HW160134   3.380   4.823   4.366 -0.8934  0.7485  0.0224
20362SOL    HW260135   3.472   4.919   4.272 -1.6085  0.6191 -0.8224
20363SOL     OW60136   8.453   9.099   5.808  0.2254  0.2232 -0.0658
20363SOL    HW160137   8.387   9.025   5.806  2.2978 -1.7376  1.2767
20363SOL    HW260138   8.435   9.159   5.886 -0.2580 -0.0046 -0.0059
20364SOL     OW60139   6.515   8.291   4.169 -0.5097 -0.6272  0.0427
20364SOL    HW160140   6.440   8.278   4.104 -1.5922 -0.2520  1.2024
20364SOL    HW260141   6.584   8.350   4.128 -0.8516 -0.9462 -1.0244
20366SOL     OW60142   5.097   1.081   6.219  0.0158 -0.2971  0.5423
20366SOL    HW160143   5.016   1.035   6.181  0.5969 -1.5176  0.7733
20366SOL    HW260144   5.162   1.099   6.145 -0.3951  0.5759  0.3771
20367SOL     OW60145   7.644   4.176   1.000 -0.3070 -0.0860 -0.2078
20367SOL    HW160146   7.677   4.115   1.072 -0.2863 -0.0864 -0.2177
20367SOL    HW260147   7.624   4.123   0.918  1.3772  0.1618 -0.7935
20368SOL     OW60148   7.249   0.995   1.487 -0.4053  0.0229  0.0359
20368SOL    HW160149   7.315   0.930   1.450 -0.8939 -1.0968  1.1121
20368SOL    HW260150   7.164   0.990   1.433 -0.9507 -1.2732  0.9904
20369SOL     OW60151   2.324   4.314   3.840  0.1710 -0.4457 -0.1010
20369SOL    HW160152   2.254   4.243   3.842 -0.9594  0.6710  1.2191
20369SOL    HW260153   2.280   4.404   3.845  1.4967  0.4134 -3.0161
20370SOL     OW60154   9.050   9.556   2.050  0.2193 -0.2103 -0.3935
20370SOL    HW160155   9.068   9.503   2.133 -0.8328  1.4866  0.9433
20370SOL    HW260156   8.969   9.520   2.004  0.1274 -0.4244 -0.0671
20371SOL     OW60157   9.978   2.868   3.944  0.5262  0.1333 -0.4133
20371SOL    HW160158  10.006   2.874   3.848 -0.9816  0.9013 -0.8181
20371SOL    HW260159   9.928   2.951   3.970 -2.4344 -1.6992 -0.0685
20372SOL     OW60160   1.922   5.100   5.584 -0.2786 -0.1647 -0.0545
20372SOL    HW160161   1.966   5.021   5.628 -0.3711  0.3941  1.0561
20372SOL    HW260162   1.927   5.179   5.645 -0.1847  0.6889 -1.1746
20373SOL     OW60163   4.161   3.526   1.047  0.3781  0.0493  0.1719
20373SOL    HW160164   4.125   3.434   1.056  1.3048 -0.2693  0.6983
20373SOL    HW260165   4.191   3.542   0.953 -0.5540  0.1066 -0.1169
20374SOL     OW60166   5.677   0.963   3.677 -0.0873  0.1178  0.3985
20374SOL    HW160167   5.660   1.045   3.732  1.5484 -0.9387  2.5850
20374SOL    HW260168   5.766   0.924   3.703  0.0116 -1.2866 -1.9507
20375SOL     OW60169   1.391   8.904   2.444  0.1665 -0.1471 -0.2104
20375SOL    HW160170   1.409   8.820   2.394  0.7788 -0.6108  0.7765
20375SOL    HW260171   1.366   8.883   2.539  2.3965  0.8350  0.6382
20376SOL     OW60172   5.082   4.003   0.190  0.2917  0.0351 -0.1697
20376SOL    HW160173   5.004   3.941   0.197  1.0534 -1.0083 -0.6241
20376SOL    HW260174   5.151   3.963   0.129  1.1397  0.9707  0.1541
20377SOL     OW60175   3.176   0.045   1.142  0.1509 -0.6919 -0.1579
20377SOL    HW160176   3.273   0.073   1.141  0.2879 -0.9825  2.0926
20377SOL    HW260177   3.118   0.126   1.134  0.5797 -0.3447  0.2265
20379SOL     OW60178   5.307   4.575   6.500 -0.2816 -0.0607 -0.2395
20379SOL    HW160179   5.272   4.483   6.480 -0.0184  0.1244 -1.5320
20379SOL    HW260180   5.337   4.619   6.416 -1.9361  1.8498  0.1445
20380SOL     OW60181   8.164   4.798   0.589 -0.0806 -0.0653  0.1636
20380SOL    HW160182   8.124   4.861   0.522  0.3778  0.4622  0.3851
20380SOL    HW260183   8.229   4.738   0.543  0.7465  0.7547  0.2587
20381SOL     OW60184   3.558   8.233   4.831  0.1896 -0.2647  0.2258
20381SOL    HW160185   3.653   8.214   4.808  0.2185  0.9555 -0.6642
20381SOL    HW260186   3.498   8.176   4.774  0.3876 -1.8976  1.5958
20383SOL     OW60187   4.781   0.837   2.082  0.2883 -0.0041  0.3123
20383SOL    HW160188   4.864   0.832   2.138  1.0772 -0.5339 -0.8746
20383SOL    HW260189   4.767   0.930   2.050  1.9952 -0.4055 -1.7540
20384SOL     OW60190   6.085   9.414   4.714 -0.2390 -0.0968 -0.0119
20384SOL    HW160191   6.113   9.484   4.780 -0.5028  0.8213 -0.8659
20384SOL    HW260192   5.994   9.381   4.738 -0.5116  0.5420 -0.1628
20385SOL     OW60193   3.187   7.803   2.789 -0.7032  0.0737  0.9410
20385SOL    HW160194   3.273   7.752   2.785 -2.9332 -3.7578 -0.4870
20385SOL    HW260195   3.177   7.857   2.706  1.4902  2.7140  2.2913
20386SOL     OW60196   1.679   8.970   0.423 -0.3646  0.6337  0.1605
20386SOL    HW160197   1.671   9.004   0.517  1.9187  0.0921  0.5797
20386SOL    HW260198   1.695   8.872   0.424 -0.4213  0.6119 -0.8083
20387SOL     OW60199   2.437   8.009   5.767 -0.4608 -0.2615  0.6801
20387SOL    HW160200   2.484   7.991   5.681  0.6854  0.9356  1.0400
20387SOL    HW260201   2.370   7.937   5.784 -1.5392  0.0982 -1.7837
20388SOL     OW60202   8.820   3.081   6.216 -0.1093  0.3360 -0.0420
20388SOL    HW160203   8.849   3.152   6.281 -0.2435  0.1994  0.1704
20388SOL    HW260204   8.721   3.068   6.224  0.0862 -0.7370  0.8006
20390SOL     OW60205   3.418   2.532   5.687 -0.4518  0.4270 -0.5943
20390SOL    HW160206   3.457   2.502   5.600 -0.6113 -0.9043 -0.2186
20390SOL    HW260207   3.336   2.479   5.707  0.2003 -0.0566  0.8983
20391SOL     OW60208   8.858   8.832   4.063  0.4146 -0.3679 -0.0557
20391SOL    HW160209   8.779   8.841   4.123 -1.7241  0.2895 -2.8692
20391SOL    HW260210   8.907   8.919   4.059  1.0104 -0.6340  1.3037
20392SOL     OW60211   8.482   6.331   0.436 -0.4460 -0.5389 -0.1919
20392SOL    HW160212   8.387   6.302   0.426  0.2591 -2.5884 -1.3367
20392SOL    HW260213   8.523   6.283   0.513  0.0684 -0.8194 -0.6356
20393SOL     OW60214   4.726   3.634   0.210  0.3746 -0.4670  0.5183
20393SOL    HW160215   4.647   3.623   0.270 -0.7858  1.8639 -0.5504
20393SOL    HW260216   4.708   3.590   0.122  0.7789 -1.0022  0.6952
20394SOL     OW60217   5.669   1.451   5.962  0.4468 -0.2439 -0.5870
20394SOL    HW160218   5.684   1.369   6.019  1.3554 -0.0620 -0.5484
20394SOL    HW260219   5.627   1.523   6.017  0.2625 -0.4616 -0.4437
20395SOL     OW60220   9.448   0.716   1.441 -1.2643 -0.7666 -0.2157
20395SOL    HW160221   9.396   0.774   1.504  0.8556  1.9282 -0.8546
20395SOL    HW260222   9.424   0.739   1.347  2.1051  1.7234 -0.5936
20396SOL     OW60223   8.749   5.977   3.920 -0.2466 -0.3856 -0.2328
20396SOL    HW160224   8.818   5.947   3.855  0.1733 -0.9116  0.4418
20396SOL    HW260225   8.783   5.962   4.013 -2.1031 -2.6020  0.1289
20397SOL     OW60226   9.141   9.158   5.296 -0.2101 -0.2210 -0.4625
20397SOL    HW160227   9.105   9.150   5.204 -0.2529  0.6250 -0.5251
20397SOL    HW260228   9.123   9.074   5.347 -1.4869 -0.1380 -0.7662
20398SOL     OW60229   8.414   3.505   7.037 -0.5778 -0.0652  0.8368
20398SOL    HW160230   8.410   3.473   7.131 -0.7575  3.0734  1.9472
20398SOL    HW260231   8.488   3.571   7.027 -0.9434  0.0885 -1.0767
20400SOL     OW60232   4.457   9.771   5.212 -0.0126 -0.1334  0.3431
20400SOL    HW160233   4.514   9.817   5.144  0.0011 -0.1937  0.3136
20400SOL    HW260234   4.401   9.702   5.166  0.6771 -0.8182  0.5310
20402SOL     OW60235   2.551   6.667   5.970  0.0694 -0.3547  0.0279
20402SOL    HW160236   2.567   6.730   6.046  0.7697  0.2143 -0.5828
20402SOL    HW260237   2.605   6.584   5.983 -1.2412 -1.0649  1.0927
20403SOL     OW60238   2.347   7.487   4.525 -0.3817  0.0923 -0.3997
20403SOL    HW160239   2.432   7.435   4.521 -1.1574 -1.2411  0.2540
20403SOL    HW260240   2.279   7.447   4.464 -0.7450  0.7905 -0.4693
20404SOL     OW60241   9.607   5.331   0.028 -0.4623 -0.1192  0.4482
20404SOL    HW160242   9.701   5.298   0.028  1.0249  3.8248 -0.3120
20404SOL    HW260243   9.569   5.323  -0.065 -0.2666 -0.0337  0.3609
20405SOL     OW60244   6.900   4.860   0.072  0.2780 -0.1661  0.7415
20405SOL    HW160245   6.883   4.809   0.156  2.5250 -2.6450 -0.2383
20405SOL    HW260246   6.844   4.822  -0.002  0.7857 -0.1665  0.3566
20406SOL     OW60247   8.390   3.460   4.513 -0.3238  0.3633  0.3518
20406SOL    HW160248   8.291   3.476   4.512 -0.2187  1.0330 -0.0030
20406SOL    HW260249   8.437   3.548   4.519  0.2342 -0.0302  1.7386
20407SOL     OW60250   6.566   5.932   0.816 -0.5120 -0.1494 -0.3331
20407SOL    HW160251   6.595   5.973   0.729  1.2918 -0.1717  0.2408
20407SOL    HW260252   6.569   5.832   0.809 -1.1333 -0.1564 -0.4975
20408SOL     OW60253   7.070   0.970   7.569  0.2816  0.1972 -0.6976
20408SOL    HW160254   7.021   1.023   7.638 -0.3805 -2.3674  0.9042
20408SOL    HW260255   7.004   0.931   7.504  0.4432 -1.0752 -0.1124
20409SOL     OW60256   8.976   8.589   1.282 -0.2753 -0.2820 -0.1774
20409SOL    HW160257   8.907   8.649   1.242  0.0759 -0.6557 -1.3836
20409SOL    HW260258   9.064   8.605   1.238  0.1695 -0.5628  0.6031
20410SOL     OW60259   3.384   4.012   3.011 -0.1253 -0.1939  0.2129
20410SOL    HW160260   3.291   3.978   3.030 -0.2183 -0.4050 -0.6323
20410SOL    HW260261   3.381   4.111   3.000 -0.1168 -0.0994  0.9939
20412SOL     OW60262   1.921   0.421   3.121 -0.4527 -0.4792 -0.1382
20412SOL    HW160263   1.903   0.351   3.190  0.9051 -0.5146  0.1961
20412SOL    HW260264   1.863   0.405   3.042 -1.3937 -0.9602  0.6376
20414SOL     OW60265   2.982   5.277   1.764 -0.0669  0.2640  0.5809
20414SOL    HW160266   2.955   5.345   1.696  1.5546  2.3465  1.9510
20414SOL    HW260267   3.000   5.189   1.718  1.3375  1.7003 -1.7501
20415SOL     OW60268   7.314   5.385   1.704  0.4529  0.0765  0.5623
20415SOL    HW160269   7.220   5.416   1.711  0.0281 -0.6796 -1.2734
20415SOL    HW260270   7.324   5.297   1.751  0.5251  0.7116  1.7388
20417SOL     OW60271   7.526   9.543   5.249  0.6618 -0.4999  0.4467
20417SOL    HW160272   7.580   9.613   5.296  1.1157 -1.8509  1.9782
20417SOL    HW260273   7.436   9.581   5.226  0.9452  0.6301  1.1461
20418SOL     OW60274   9.025   9.947   6.829  0.4921  0.3227  0.1340
20418SOL    HW160275   9.073   9.862   6.849  0.0003  0.3996  1.6446
20418SOL    HW260276   8.940   9.928   6.781  0.3454 -0.0306  0.5421
20419SOL     OW60277   2.120   6.158   0.402  0.3900 -0.9079 -0.2414
20419SOL    HW160278   2.143   6.233   0.340  1.4429  0.4957  1.7858
20419SOL    HW260279   2.027   6.170   0.436  0.9454  0.1529  0.9627
20420SOL     OW60280   2.542   7.916   7.016  0.6485  0.4776 -0.7509
20420SOL    HW160281   2.563   7.846   7.084 -1.3799  1.3278  0.8011
20420SOL    HW260282   2.610   7.989   7.021  0.0794  0.9163  0.9439
20421SOL     OW60283   4.417   3.461   4.918 -0.1657 -0.3682  0.3872
20421SOL    HW160284   4.418   3.555   4.886  1.0313  0.1480  1.8569
20421SOL    HW260285   4.361   3.405   4.857 -1.7883  1.5035  0.1051
20422SOL     OW60286   8.068   4.867   4.987  0.5259 -0.0036  0.1544
20422SOL    HW160287   8.011   4.940   5.023  0.1425 -0.1547 -0.1415
20422SOL    HW260288   8.118   4.824   5.062  0.3149  0.1854  0.4051
20423SOL     OW60289   7.396   2.685   3.094 -0.0941  0.0335 -0.0317
20423SOL    HW160290   7.488   2.723   3.104  0.4113 -1.3452  0.7338
20423SOL    HW260291   7.403   2.587   3.072 -1.3802 -0.0454 -0.1254
20424SOL     OW60292   0.411   3.120   1.106 -0.0154  0.2460  0.3581
20424SOL    HW160293   0.417   3.109   1.007  1.5417  0.1038  0.4586
20424SOL    HW260294   0.499   3.151   1.142 -0.3322 -0.4709  1.7985
20425SOL     OW60295   0.463   8.699   5.230 -0.0115  0.6905 -0.5197
20425SOL    HW160296   0.399   8.677   5.304 -0.1365  0.7875 -0.5987
20425SOL    HW260297   0.476   8.619   5.172  1.1392  0.1960  0.3898
20428SOL     OW60298   9.354   9.272   1.476 -0.0940  0.0961 -0.0957
20428SOL    HW160299   9.343   9.314   1.566 -2.1872  0.5265 -0.5397
20428SOL    HW260300   9.451   9.265   1.454  0.5832 -1.9550  3.1240
20429SOL     OW60301   1.739   4.027   5.295  0.2322 -0.4186 -0.6406
20429SOL    HW160302   1.654   4.058   5.254  0.0900  0.1779  0.0981
20429SOL    HW260303   1.724   3.942   5.346  0.5032 -1.4095 -2.1834
20430SOL     OW60304   2.769   2.934   1.319 -0.5263  0.1604  0.5966
20430SOL    HW160305   2.845   2.970   1.374  0.7902 -1.8799  0.1841
20430SOL    HW260306   2.766   2.834   1.328 -0.6484 -0.1845 -2.5253
20433SOL     OW60307   2.395   9.916   3.748 -0.1246 -0.0789 -0.6965
20433SOL    HW160308   2.485   9.880   3.724  1.0638  0.6132  2.4439
20433SOL    HW260309   2.370   9.884   3.839 -0.5484  4.1164  0.7881
20434SOL     OW60310   2.048   3.331   3.904  0.4102 -0.4534 -0.3705
20434SOL    HW160311   2.006   3.381   3.829  0.1995  0.0381  0.0680
20434SOL    HW260312   2.094   3.395   3.965  0.7432 -0.8673 -0.1870
20435SOL     OW60313   5.431   0.962   1.762 -0.0274 -0.3429 -0.1690
20435SOL    HW160314   5.458   0.867   1.744 -1.0017 -0.7645  0.5451
20435SOL    HW260315   5.376   0.965   1.846  0.5313  0.9435  0.1599
20437SOL     OW60316   7.916   4.123   0.336 -0.2492 -0.0337 -0.5852
20437SOL    HW160317   7.853   4.049   0.357 -0.1476  0.3459  1.1311
20437SOL    HW260318   7.874   4.184   0.268 -1.5243 -0.0817  0.1297
20438SOL     OW60319   0.515   7.385   5.793  0.7785  0.3075  0.6427
20438SOL    HW160320   0.568   7.323   5.851 -0.4008  0.0487  1.4612
20438SOL    HW260321   0.458   7.332   5.730  1.9668  0.5873 -0.6873
20439SOL     OW60322   7.451   1.283   3.337 -0.8928 -0.2720 -0.1156
20439SOL    HW160323   7.365   1.326   3.312 -0.7090  0.1379 -0.0491
20439SOL    HW260324   7.507   1.348   3.388 -0.4587 -0.4683 -0.3390
20441SOL     OW60325   1.986   3.826   2.523  0.4424 -0.0591 -0.2810
20441SOL    HW160326   1.998   3.919   2.557 -0.2802 -0.3089  0.6745
20441SOL    HW260327   1.889   3.810   2.502  0.4845 -0.7494  0.0361
20442SOL     OW60328   6.442   0.559   5.033  0.2669  0.2710  0.2028
20442SOL    HW160329   6.485   0.541   4.944 -0.9712  1.3901 -0.6467
20442SOL    HW260330   6.435   0.657   5.048  0.5581  0.0903  1.5974
20443SOL     OW60331   8.777   5.342   7.849 -0.5123  0.0524 -0.0146
20443SOL    HW160332   8.681   5.372   7.849 -0.5712 -0.1285 -0.4712
20443SOL    HW260333   8.780   5.243   7.865 -0.2936  0.3727  2.0113
20444SOL     OW60334   0.274   3.925   1.428 -0.3656 -0.0723  0.2697
20444SOL    HW160335   0.317   4.005   1.469  0.6201 -1.2062  1.5109
20444SOL    HW260336   0.283   3.930   1.328  0.5552  0.8795  0.3868
20445SOL     OW60337   1.978   2.145   6.638  0.4511 -0.1712 -0.1981
20445SOL    HW160338   2.003   2.092   6.719 -0.0904  1.5314  1.1318
20445SOL    HW260339   1.895   2.198   6.657  0.7468  0.8340 -1.6030
20446SOL     OW60340   7.113   9.388   2.034  1.0949 -0.4115 -0.3841
20446SOL    HW160341   7.062   9.325   2.093  1.0032  1.6175  1.7709
20446SOL    HW260342   7.211   9.376   2.048  1.0843 -0.2246 -0.1663
20448SOL     OW60343   6.851   1.360   1.241 -0.4702 -0.5194  0.0924
20448SOL    HW160344   6.763   1.382   1.200 -1.6513 -2.2020  1.6861
20448SOL    HW260345   6.924   1.388   1.179 -2.0520  2.0599 -0.7087
20450SOL     OW60346   7.333   5.128   1.267 -0.2883  0.1153  0.4725
20450SOL    HW160347   7.293   5.115   1.177  1.3655 -1.9115 -0.0005
20450SOL    HW260348   7.297   5.058   1.330 -1.3646  1.4566  1.3897
20451SOL     OW60349   0.458   4.647   3.722 -0.9271  0.7663 -0.1444
20451SOL    HW160350   0.463   4.737   3.680  0.1774 -0.0505 -1.8128
20451SOL    HW260351   0.548   4.604   3.720 -1.7362 -0.9310 -0.6143
20452SOL     OW60352   2.019   6.884   7.500  0.1147 -0.5258 -0.4193
20452SOL    HW160353   2.058   6.889   7.408  0.3367 -0.1764 -0.3074
20452SOL    HW260354   1.955   6.960   7.513 -0.4387 -0.9716 -0.5248
20453SOL     OW60355   3.519   0.314   1.869  0.0762 -0.1232  0.4297
20453SOL    HW160356   3.555   0.240   1.812  0.5615 -0.1756  0.7910
20453SOL    HW260357   3.502   0.395   1.813 -1.0296 -0.6995 -0.0676
20454SOL     OW60358   9.645   7.930   7.578  0.0037  0.1869 -0.3656
20454SOL    HW160359   9.632   8.025   7.604 -3.0619 -0.2927  0.0842
20454SOL    HW260360   9.678   7.878   7.657  0.8565  0.6955 -0.3809
20457SOL     OW60361   0.361   0.022   0.747  0.1287 -0.4604 -0.3213
20457SOL    HW160362   0.297  -0.055   0.755 -0.1253 -0.3369 -1.1620
20457SOL    HW260363   0.440  -0.006   0.693 -1.1549  0.6095 -2.8303
20458SOL     OW60364   7.596   1.109   4.576  0.3747 -0.0628 -0.3029
20458SOL    HW160365   7.662   1.183   4.563  0.7910 -0.1218  1.4251
20458SOL    HW260366   7.532   1.133   4.648  0.3346 -1.2561  0.0686
20459SOL     OW60367   4.244   3.702   7.566  0.1849  0.2866  0.1317
20459SOL    HW160368   4.176   3.771   7.592  1.6541  1.8030  0.0323
20459SOL    HW260369   4.197   3.618   7.539 -1.6128  0.9673  1.0243
20460SOL     OW60370   6.191   2.658   3.562  0.5552 -0.4303 -0.2637
20460SOL    HW160371   6.186   2.595   3.639 -0.6657 -1.2549 -1.0130
20460SOL    HW260372   6.277   2.709   3.567  0.7130 -0.8183  1.3669
20461SOL     OW60373   8.011   6.581   1.234 -0.1554  0.2152  0.4043
20461SOL    HW160374   8.000   6.611   1.329  0.3538  0.9829  0.2233
20461SOL    HW260375   8.055   6.653   1.181  1.9024 -1.2150  0.1440
20462SOL     OW60376   1.942   5.639   4.938  0.1053  0.5993 -0.4946
20462SOL    HW160377   1.874   5.639   5.011  0.6457  1.0307  0.0176
20462SOL    HW260378   2.029   5.673   4.974  0.7233 -0.4069 -1.0199
20463SOL     OW60379   7.865   1.925   0.071  0.3366 -0.1496  0.1297
20463SOL    HW160380   7.890   2.019   0.049 -0.2216  0.4455  1.9993
20463SOL    HW260381   7.765   1.916   0.071  0.3648 -0.4808  1.0321
20464SOL     OW60382   6.282   8.367   4.833 -0.5770 -0.4627  0.5886
20464SOL    HW160383   6.358   8.419   4.873  0.9489  0.0588 -2.8391
20464SOL    HW260384   6.205   8.429   4.815 -0.4719 -0.2997  0.6965
20465SOL     OW60385   2.536   7.093   0.407 -0.3139 -0.4609 -0.0090
20465SOL    HW160386   2.577   7.083   0.317 -1.9064 -0.9877 -0.6857
20465SOL    HW260387   2.452   7.039   0.413  0.8832 -2.1491  2.5162
20466SOL     OW60388   7.272   9.204   3.544 -0.2346 -0.2230 -1.2020
20466SOL    HW160389   7.255   9.120   3.493 -0.3778 -0.4997 -0.6959
20466SOL    HW260390   7.186   9.243   3.574 -0.1176 -0.3531 -0.6953
20467SOL     OW60391   5.191   6.602   2.768 -0.4685 -0.0349 -0.8431
20467SOL    HW160392   5.274   6.637   2.726 -0.4249  0.2970 -0.4782
20467SOL    HW260393   5.115   6.664   2.749 -0.4699  0.0643 -0.5187
20468SOL     OW60394   4.862   8.719   6.861  0.1986  0.4822 -0.0354
20468SOL    HW160395   4.859   8.656   6.783 -0.6141  0.9983 -0.4308
20468SOL    HW260396   4.870   8.667   6.946 -1.5013 -0.2038 -0.2796
20469SOL     OW60397   8.933   1.306   1.019 -0.2867  0.2357  0.1776
20469SOL    HW160398   8.886   1.323   1.106 -0.4678  1.0395 -0.0668
20469SOL    HW260399   8.936   1.391   0.966  1.5476  0.2193  0.2245
20470SOL     OW60400   4.973   7.763   5.110  0.2652 -0.0184  0.7544
20470SOL    HW160401   4.952   7.826   5.184  1.8772  0.2323  1.0145
20470SOL    HW260402   4.900   7.767   5.041  0.0038  1.6104  1.1036
20471SOL     OW60403   5.913   8.499   3.887  0.0994 -0.3939 -0.1234
20471SOL    HW160404   5.874   8.407   3.873 -1.3964 -0.0483  1.5931
20471SOL    HW260405   5.845   8.557   3.931 -0.1055  2.5003 -4.0232
20472SOL     OW60406   2.485   8.553   0.444  0.1504 -0.1678  0.1296
20472SOL    HW160407   2.488   8.465   0.398 -0.8733  0.2390 -0.7611
20472SOL    HW260408   2.439   8.543   0.532 -1.0194 -0.3207 -0.4860
20473SOL     OW60409   8.733   7.476   7.034 -0.0667 -0.3235  0.4461
20473SOL    HW160410   8.678   7.528   6.969 -0.7814 -1.7431 -0.0986
20473SOL    HW260411   8.830   7.497   7.020 -0.3247  0.5510 -0.0329
20475SOL     OW60412   6.914   3.862   2.961 -0.3039  0.2984  0.2938
20475SOL    HW160413   6.954   3.924   3.029  0.2259  0.8931 -0.5545
20475SOL    HW260414   6.986   3.825   2.902 -0.7875 -0.0303 -0.0972
20477SOL     OW60415   3.069   2.116   3.613 -0.0186 -0.2698 -0.3088
20477SOL    HW160416   3.108   2.097   3.703  1.5759 -0.7915 -1.0904
20477SOL    HW260417   3.128   2.077   3.542 -1.0731  0.4331 -1.5978
20478SOL     OW60418   3.961   7.291   1.913 -0.2151 -0.3413 -0.3896
20478SOL    HW160419   3.997   7.335   1.995 -1.1958  2.5267 -1.4162
20478SOL    HW260420   4.022   7.218   1.884  0.4322 -1.0207  2.5498
20479SOL     OW60421   9.461   7.944   7.095  0.3822 -0.0658 -0.3369
20479SOL    HW160422   9.415   7.892   7.023 -1.1633  3.3782 -1.9543
20479SOL    HW260423   9.407   7.941   7.179  0.7029 -1.6655 -0.1743
20480SOL     OW60424   2.847   3.501   3.539  0.2516 -0.2232 -0.2661
20480SOL    HW160425   2.900   3.504   3.455 -0.2153 -0.5030 -0.5719
20480SOL    HW260426   2.757   3.462   3.521 -0.2721  0.7907  0.1387
20481SOL     OW60427   1.090   7.375   0.934  0.0047 -0.1370 -0.5580
20481SOL    HW160428   1.172   7.377   0.877  1.5529 -0.5765  1.6025
20481SOL    HW260429   1.103   7.433   1.014 -1.8338 -0.1289 -0.2515
20482SOL     OW60430   5.778   6.018   0.701  0.0817 -0.0452 -0.0868
20482SOL    HW160431   5.853   6.074   0.666  1.2789 -1.5821 -0.0070
20482SOL    HW260432   5.810   5.926   0.719 -1.5058 -0.3671  1.2597
20483SOL     OW60433   8.100   2.679   5.804  0.1610 -0.2683 -0.6089
20483SOL    HW160434   8.070   2.773   5.786  0.6069  0.2069  1.0472
20483SOL    HW260435   8.069   2.620   5.730 -0.5172  1.1059 -1.4492
20484SOL     OW60436   4.280   9.645   3.400  0.0211 -0.4962  0.5288
20484SOL    HW160437   4.358   9.667   3.459 -0.1388 -1.8317  1.2468
20484SOL    HW260438   4.229   9.569   3.439 -2.1616  0.9275  0.5155
20485SOL     OW60439   7.144   8.731   1.994 -0.3549  0.3581  0.2740
20485SOL    HW160440   7.192   8.673   2.060 -0.6163 -1.9021 -1.4784
20485SOL    HW260441   7.091   8.800   2.043 -0.3371 -1.1169  2.4174
20486SOL     OW60442   0.356   3.799   4.919  0.3092 -0.7608  0.0753
20486SOL    HW160443   0.294   3.760   4.852  0.6158 -0.6685 -0.2616
20486SOL    HW260444   0.331   3.894   4.938 -0.8165 -1.2945  1.3513
20487SOL     OW60445   3.101   4.288   7.822 -0.3295 -0.7745  0.2189
20487SOL    HW160446   3.156   4.275   7.905  0.4012  0.9587  0.0377
20487SOL    HW260447   3.025   4.349   7.843  0.2697  0.2555 -0.5437
20488SOL     OW60448   9.836   0.162   1.857  0.0997  0.2475 -0.0358
20488SOL    HW160449   9.848   0.087   1.922  1.8933 -0.1093 -0.7545
20488SOL    HW260450   9.784   0.235   1.901  0.1947 -0.5097  1.3834
20490SOL     OW60451   8.385   3.582   0.859  0.0115 -0.5372 -0.6652
20490SOL    HW160452   8.412   3.653   0.794 -0.9024  1.6985  1.3028
20490SOL    HW260453   8.285   3.580   0.868  0.1498 -0.1612  1.3061
20492SOL     OW60454   0.579   6.933   5.211  0.0505  0.1083 -0.7538
20492SOL    HW160455   0.486   6.969   5.208  0.7500  1.8624 -2.7533
20492SOL    HW260456   0.604   6.913   5.306 -2.0688  0.3669 -0.1189
20493SOL     OW60457   1.430   4.449   2.024 -0.1979 -0.1988  0.0508
20493SOL    HW160458   1.408   4.503   1.943  0.8689  0.4427  0.1826
20493SOL    HW260459   1.482   4.505   2.089 -1.7999 -0.4093  1.5875
20494SOL     OW60460   5.173   4.324   7.498 -0.4911  0.1280  0.0868
20494SOL    HW160461   5.098   4.318   7.432 -1.4609 -0.8342  1.2219
20494SOL    HW260462   5.168   4.244   7.559  1.6985 -0.1368 -0.0670
20495SOL     OW60463   6.967   1.747   3.863 -0.1581  0.2122  0.3717
20495SOL    HW160464   7.047   1.797   3.896 -0.8981  0.7669  1.3624
20495SOL    HW260465   6.913   1.716   3.941 -0.5913 -0.6967 -0.2802
20496SOL     OW60466   4.616   7.394   3.710 -0.7673  0.2546 -0.1726
20496SOL    HW160467   4.569   7.410   3.623 -1.6628  0.6327  0.3657
20496SOL    HW260468   4.592   7.304   3.746 -0.4415  0.1204 -0.2991
20498SOL     OW60469   9.075   4.446   7.073 -0.0606  0.2815  0.1463
20498SOL    HW160470   8.999   4.380   7.070 -0.0624  0.3179 -0.7215
20498SOL    HW260471   9.048   4.530   7.026 -0.3902  1.2691  2.0479
20500SOL     OW60472   5.509   3.490   2.062 -0.3370 -0.4379 -0.4994
20500SOL    HW160473   5.553   3.468   1.974  2.5840  1.2748  0.4422
20500SOL    HW260474   5.420   3.532   2.045  0.9892  1.6726 -2.7987
20501SOL     OW60475   9.341   6.990   1.387 -0.4850  0.4920 -0.2535
20501SOL    HW160476   9.294   6.902   1.378  1.5531 -0.6626 -0.0153
20501SOL    HW260477   9.417   6.980   1.453 -0.8653  2.6995  0.5545
20502SOL     OW60478   6.995   8.373   5.925  0.1235 -0.2789  0.3774
20502SOL    HW160479   7.030   8.466   5.918  1.2218 -0.6485  0.7426
20502SOL    HW260480   7.072   8.310   5.939 -0.6954 -1.1280  1.0834
20503SOL     OW60481   5.722   7.310   4.326 -0.4195  0.1333 -0.1839
20503SOL    HW160482   5.778   7.327   4.406  0.5481 -0.6399 -0.6826
20503SOL    HW260483   5.760   7.233   4.274 -0.2569  1.4652 -2.0893
20504SOL     OW60484   4.466   6.069   2.703  0.7020 -0.0245 -0.4635
20504SOL    HW160485   4.394   6.002   2.687 -0.7760  1.7349 -1.2313
20504SOL    HW260486   4.517   6.043   2.786 -1.8474 -0.3856  1.0281
20506SOL     OW60487   3.732   4.332   0.757 -0.3460 -0.0386 -0.2296
20506SOL    HW160488   3.686   4.263   0.812  0.5047 -1.5731 -1.3805
20506SOL    HW260489   3.820   4.356   0.799 -0.5248  0.1460  0.0360
20508SOL     OW60490   6.424   1.983   1.796 -0.4073 -0.5559  0.6163
20508SOL    HW160491   6.360   2.060   1.794 -0.1907 -0.3578  1.0549
20508SOL    HW260492   6.465   1.970   1.706 -0.8475 -0.4971  0.4094
20509SOL     OW60493   0.702   6.160   2.094  0.1203 -0.7089  0.2212
20509SOL    HW160494   0.695   6.249   2.048 -2.2969 -1.3919 -0.8191
20509SOL    HW260495   0.735   6.173   2.187  3.1151  0.9146 -0.9999
20510SOL     OW60496   9.179   6.642   2.274 -0.1703 -0.5138 -0.3321
20510SOL    HW160497   9.254   6.699   2.307 -1.2397  0.5580  0.2719
20510SOL    HW260498   9.111   6.632   2.346 -2.0477  1.0168 -1.8614
20511SOL     OW60499   8.882   8.377   0.525  0.3619 -0.3551 -0.0036
20511SOL    HW160500   8.923   8.286   0.521  0.8900 -0.0809 -0.9322
20511SOL    HW260501   8.917   8.426   0.605 -0.8399 -1.3900  1.1986
20513SOL     OW60502   1.825   1.424   0.670 -0.0607 -0.3236 -0.3682
20513SOL    HW160503   1.731   1.408   0.639 -1.4783  2.4012  2.2146
20513SOL    HW260504   1.843   1.369   0.751  1.0335 -1.7085 -1.5125
20514SOL     OW60505   8.049   5.476   3.773  0.1667 -0.3457  0.3253
20514SOL    HW160506   8.005   5.457   3.860  2.2024 -1.0720  1.2156
20514SOL    HW260507   8.086   5.392   3.735  0.1851  0.1370 -0.7608
20516SOL     OW60508   3.233   8.070   4.214 -0.2273 -0.9626 -0.1104
20516SOL    HW160509   3.223   8.010   4.294  1.1289  2.5114  2.8266
20516SOL    HW260510   3.146   8.075   4.165 -1.0013 -3.4300  0.9393
20517SOL     OW60511   0.769   1.988   0.894 -0.0326 -0.0354 -0.2020
20517SOL    HW160512   0.862   1.996   0.857  0.1854  0.6606  0.4799
20517SOL    HW260513   0.709   2.052   0.847  0.4130  1.4052  1.1634
20518SOL     OW60514   4.776   2.222   6.980 -0.2406  0.8041  0.7334
20518SOL    HW160515   4.874   2.214   6.966 -0.2844 -0.3601  1.0214
20518SOL    HW260516   4.732   2.252   6.895  0.3724  1.5169  0.6591
20519SOL     OW60517   3.819   1.517   0.822  0.3692 -0.2130 -0.3587
20519SOL    HW160518   3.826   1.575   0.741  0.2807  0.0055 -0.2098
20519SOL    HW260519   3.723   1.500   0.842  0.3305  1.4140  0.9004
20520SOL     OW60520   2.526   5.349   2.769 -0.4563  0.1968  0.5136
20520SOL    HW160521   2.504   5.419   2.837 -0.9099 -1.0862  1.7014
20520SOL    HW260522   2.445   5.329   2.715 -0.2479  0.7850 -0.0335
20521SOL     OW60523   7.760   1.481   1.495 -0.3245 -0.1117 -0.5791
20521SOL    HW160524   7.706   1.436   1.567 -0.2210  0.2204 -0.2959
20521SOL    HW260525   7.848   1.435   1.487 -0.1658  0.1201 -0.1960
20522SOL     OW60526   8.881   1.703   4.868  0.4697 -0.0294  0.1629
20522SOL    HW160527   8.944   1.776   4.896  0.3516  1.1223 -2.4489
20522SOL    HW260528   8.917   1.615   4.899  1.1259  1.0186  2.4841
20524SOL     OW60529   3.348   4.322   5.974  0.7680 -0.1233  0.5599
20524SOL    HW160530   3.366   4.400   6.034  1.2311  1.2056 -1.2815
20524SOL    HW260531   3.307   4.248   6.028 -0.3129  1.6181  2.1863
20525SOL     OW60532   9.540   6.512   7.580 -0.3768  0.0804 -0.2594
20525SOL    HW160533   9.621   6.456   7.563  0.1891  1.1162 -1.0298
20525SOL    HW260534   9.489   6.523   7.495 -1.1943 -0.3376  0.1651
20526SOL     OW60535   5.875   8.321   2.191 -0.2162  0.0734  1.1759
20526SOL    HW160536   5.874   8.232   2.147 -0.0564  0.7231 -0.1593
20526SOL    HW260537   5.964   8.364   2.178 -1.2733  1.7326 -0.8790
20527SOL     OW60538   3.680   9.817   4.904 -0.7351  0.0773  0.4270
20527SOL    HW160539   3.659   9.887   4.836 -0.9760  0.5453  0.9801
20527SOL    HW260540   3.675   9.726   4.862 -0.8232  0.3674 -0.1889
20528SOL     OW60541   0.667   9.518   0.956  0.0168  0.2765 -0.0499
20528SOL    HW160542   0.725   9.463   0.897  0.6792  1.6784 -0.7354
20528SOL    HW260543   0.725   9.578   1.012 -0.7441  1.5161 -0.5718
20529SOL     OW60544   8.921   4.943   1.385 -0.1130 -0.4281 -0.3013
20529SOL    HW160545   8.917   5.017   1.318 -0.3089 -0.8654 -0.7810
20529SOL    HW260546   8.966   4.975   1.468 -0.3437  0.2729 -0.4420
20530SOL     OW60547   3.319   1.278   1.577  0.2930  0.4574 -0.3198
20530SOL    HW160548   3.294   1.283   1.674  0.3388 -0.8332 -0.2410
20530SOL    HW260549   3.253   1.331   1.524 -1.3355 -1.0737  0.1327
20531SOL     OW60550   9.663   7.762   0.605  0.5225  0.2274 -0.6516
20531SOL    HW160551   9.727   7.771   0.682  0.5774  0.3611 -0.7120
20531SOL    HW260552   9.640   7.853   0.571 -0.3593  0.2208 -0.0838
20532SOL     OW60553   3.868   3.974   3.498  0.2965  0.1319  0.2592
20532SOL    HW160554   3.957   3.950   3.537 -1.3819 -2.3077  2.7791
20532SOL    HW260555   3.819   4.033   3.562 -0.6117 -0.0089 -0.3028
20536SOL     OW60556   2.236   6.468   6.308 -0.0765 -0.2055 -0.4185
20536SOL    HW160557   2.185   6.383   6.300 -1.7751  0.7443  0.1083
20536SOL    HW260558   2.329   6.455   6.272 -0.4749 -2.1201 -0.7915
20537SOL     OW60559   0.041   0.095   5.066  0.4501  0.5651  0.3982
20537SOL    HW160560   0.049  -0.004   5.079  0.7961  0.7289  1.4832
20537SOL    HW260561  -0.055   0.121   5.072  0.5721  0.6266  2.7805
20538SOL     OW60562   2.918   0.472   0.481 -0.2304  0.0480 -0.1225
20538SOL    HW160563   2.936   0.398   0.416 -0.0085  0.2374 -0.2785
20538SOL    HW260564   2.819   0.483   0.492 -0.2771  0.4119 -0.8801
20539SOL     OW60565   8.487   4.408   0.662 -0.6747 -0.5430  0.1752
20539SOL    HW160566   8.426   4.354   0.605 -0.4954  1.1707 -1.6861
20539SOL    HW260567   8.433   4.458   0.730 -0.9907 -1.7965  0.8537
20540SOL     OW60568   9.885   8.632   1.819 -0.1271 -0.0853 -0.1311
20540SOL    HW160569   9.824   8.671   1.888  1.7094  0.9644  0.9567
20540SOL    HW260570   9.938   8.704   1.776 -0.1937 -0.9008 -1.6205
20541SOL     OW60571   8.360   2.192   3.290  0.3026  0.1034 -0.1203
20541SOL    HW160572   8.317   2.112   3.247  0.4838  0.3672 -0.8063
20541SOL    HW260573   8.456   2.172   3.307  0.0660 -0.2502  0.8045
20542SOL     OW60574   5.598   7.293   2.085 -0.2880  0.1953  0.1627
20542SOL    HW160575   5.540   7.245   2.150 -0.4615 -0.3752 -0.4042
20542SOL    HW260576   5.691   7.256   2.091 -0.3095  0.1243  0.0762
20543SOL     OW60577   1.894   8.616   0.076  0.0373 -0.5298  0.4381
20543SOL    HW160578   1.875   8.518   0.065 -1.3275 -0.4012  1.5635
20543SOL    HW260579   1.993   8.631   0.071  0.3115 -2.0562  0.9902
20544SOL     OW60580   5.291   9.624   1.296 -0.2111 -0.2745  0.2497
20544SOL    HW160581   5.274   9.661   1.387 -1.1804 -2.5414  1.0139
20544SOL    HW260582   5.310   9.526   1.302 -2.4347 -0.9279 -2.1547
20545SOL     OW60583   7.477   4.883   6.957  0.7549 -0.0451 -0.0046
20545SOL    HW160584   7.399   4.821   6.971 -0.9778  2.0590 -0.2265
20545SOL    HW260585   7.485   4.906   6.861 -0.0934  1.9805  0.3976
20546SOL     OW60586   1.504   1.089   5.076  0.1448  0.0138 -0.2037
20546SOL    HW160587   1.483   1.050   5.165 -0.2177  1.1468  0.2220
20546SOL    HW260588   1.461   1.179   5.068 -0.9874 -0.6667 -2.0657
20547SOL     OW60589   2.373   9.359   0.164 -0.0796  0.0266  0.1950
20547SOL    HW160590   2.412   9.446   0.134  3.5385 -1.5148  0.2800
20547SOL    HW260591   2.393   9.345   0.261 -1.8325 -0.3110  0.5255
20548SOL     OW60592   8.715   8.236   3.442 -0.3646  0.6504 -0.5198
20548SOL    HW160593   8.773   8.243   3.361 -0.4806 -0.2532 -0.6839
20548SOL    HW260594   8.771   8.231   3.524 -0.1906 -0.9360 -0.7298
20549SOL     OW60595   2.243   0.610   0.283  0.3993 -0.0346 -0.7333
20549SOL    HW160596   2.232   0.513   0.264 -0.0054 -0.1975  0.2999
20549SOL    HW260597   2.310   0.622   0.356  2.2089  0.5994 -2.4267
20550SOL     OW60598   1.395   3.961   2.064  0.7814 -0.4497 -0.1230
20550SOL    HW160599   1.338   4.001   2.136  0.2323  0.9724 -1.3227
20550SOL    HW260600   1.486   3.941   2.101  1.3825  2.8114  0.3106
20551SOL     OW60601   7.583   1.350   7.337  0.5084 -0.2085  0.4108
20551SOL    HW160602   7.588   1.281   7.410 -0.1959  0.2151  0.8693
20551SOL    HW260603   7.578   1.441   7.378  2.3833  0.1813 -0.2062
20552SOL     OW60604   9.103   5.365   1.929 -0.6467  0.2474 -0.0127
20552SOL    HW160605   9.023   5.320   1.967 -1.1594  0.9333 -0.2685
20552SOL    HW260606   9.125   5.446   1.982 -0.6745  0.5679 -0.4824
20553SOL     OW60607   7.744   7.512   0.614 -0.7761  0.2518  0.4684
20553SOL    HW160608   7.783   7.555   0.533  0.8679  2.7507  2.5223
20553SOL    HW260609   7.697   7.428   0.588 -1.2575  1.5918 -3.2167
20554SOL     OW60610   2.513   0.108   4.165  0.2303 -0.3214  0.0622
20554SOL    HW160611   2.470   0.193   4.135 -0.1470 -0.4612  0.2026
20554SOL    HW260612   2.602   0.128   4.207  0.6668 -0.1047 -0.9419
20555SOL     OW60613   6.641   0.986   6.197  0.2251  0.1317 -0.4913
20555SOL    HW160614   6.567   1.050   6.215  0.8231  1.1067 -1.4883
20555SOL    HW260615   6.702   0.982   6.277 -0.0546  0.4593 -0.2616
20556SOL     OW60616   0.954   8.624   7.273  0.0837  0.1251 -0.4598
20556SOL    HW160617   0.998   8.638   7.362  0.6746 -2.0807 -0.3775
20556SOL    HW260618   0.959   8.708   7.220  0.8584  1.0846  1.0968
20557SOL     OW60619   2.698   4.523   6.548 -0.6232 -0.0780  0.0714
20557SOL    HW160620   2.754   4.558   6.624 -0.7044  0.4431 -0.1129
20557SOL    HW260621   2.704   4.585   6.470  0.5833 -1.3283 -0.8509
20559SOL     OW60622   8.319   5.439   2.291 -0.2192 -0.0019  0.7630
20559SOL    HW160623   8.222   5.432   2.313 -0.9054  1.7464 -1.5372
20559SOL    HW260624   8.368   5.479   2.369 -1.4839 -0.0801  1.6077
20560SOL     OW60625   7.051   6.663   3.217 -0.1269  0.1981 -0.2184
20560SOL    HW160626   7.034   6.761   3.203  2.8975  0.5241 -2.0894
20560SOL    HW260627   7.002   6.611   3.147 -1.3608  0.3758  0.4924
20561SOL     OW60628   9.407   5.647   7.053 -0.3243 -0.2751  0.4345
20561SOL    HW160629   9.349   5.568   7.071 -0.2242  0.4153  4.2604
20561SOL    HW260630   9.356   5.731   7.076 -0.1352  0.7850 -2.7439
20562SOL     OW60631   3.854   4.254   4.174  0.6225  0.0338  0.5621
20562SOL    HW160632   3.756   4.246   4.194  0.5187  0.1059  0.0908
20562SOL    HW260633   3.869   4.334   4.116  0.9914  0.1650  0.8437
20564SOL     OW60634   6.874   5.212   1.445 -0.5248 -0.3120  0.2060
20564SOL    HW160635   6.857   5.281   1.516  1.7861 -0.1677  0.6572
20564SOL    HW260636   6.792   5.155   1.434 -2.2611  2.0668  0.2793
20565SOL     OW60637   0.098   2.542   5.258 -0.0712 -0.4750 -1.1139
20565SOL    HW160638   0.009   2.584   5.272  0.3373 -0.1270  0.5819
20565SOL    HW260639   0.153   2.598   5.196  0.0611  0.9095  0.2425
20566SOL     OW60640   5.743   0.109   4.497 -0.7312  0.1841  0.0986
20566SOL    HW160641   5.781   0.089   4.406 -2.7147  1.5625 -1.0846
20566SOL    HW260642   5.685   0.032   4.526 -1.3886  0.4276 -0.5470
20568SOL     OW60643   8.454   6.123   2.892  0.0245 -0.2553 -0.0726
20568SOL    HW160644   8.522   6.097   2.823 -0.5989 -0.5571 -0.5819
20568SOL    HW260645   8.455   6.222   2.904  1.0803 -0.3292  0.4734
20569SOL     OW60646   2.261   5.549   2.908 -0.5026 -0.9245 -0.0623
20569SOL    HW160647   2.315   5.579   2.986 -2.3174 -2.1428  1.7408
20569SOL    HW260648   2.320   5.533   2.829  1.4878 -0.5016  1.3264
20570SOL     OW60649   7.372   0.222   1.439 -0.4255  0.3042 -0.7031
20570SOL    HW160650   7.437   0.147   1.451  0.6556  0.9418 -2.3040
20570SOL    HW260651   7.313   0.203   1.362 -1.1552  0.4152 -0.1741
20571SOL     OW60652   7.977   9.457   4.755  0.0101 -0.2104  0.1081
20571SOL    HW160653   7.968   9.497   4.846  0.5488 -0.6088  0.3327
20571SOL    HW260654   7.894   9.405   4.733 -0.1946  0.0350  0.2969
20572SOL     OW60655   8.950   7.086   7.170 -0.1847  0.9007 -0.1315
20572SOL    HW160656   8.868   7.076   7.225 -1.3959  0.9081 -1.8908
20572SOL    HW260657   8.982   7.181   7.175  1.3781  0.2768  2.8004
20575SOL     OW60658   4.427   5.061   2.294 -0.3831  0.1717 -0.0448
20575SOL    HW160659   4.469   5.017   2.215 -0.0888 -0.2773  0.3613
20575SOL    HW260660   4.486   5.136   2.325 -0.3120  0.1047 -0.0160
20576SOL     OW60661   5.960   3.292   2.062 -0.5665  0.3132  0.3290
20576SOL    HW160662   6.014   3.327   1.986 -0.7611  0.3664  0.2162
20576SOL    HW260663   5.913   3.208   2.034 -0.3278  0.1183  0.5104
20577SOL     OW60664   1.981   2.363   7.619 -0.2874  0.1672 -0.2898
20577SOL    HW160665   2.036   2.320   7.691  0.5725  1.3214 -0.2326
20577SOL    HW260666   1.953   2.295   7.552 -1.8617 -1.1108  1.6051
20578SOL     OW60667   2.616   5.195   3.504 -0.1996 -0.2983 -0.5724
20578SOL    HW160668   2.564   5.219   3.423  1.7758 -1.2885 -2.1741
20578SOL    HW260669   2.671   5.113   3.486 -0.0678 -0.8094  1.9083
20579SOL     OW60670   1.845   4.671   3.479 -0.0954 -0.1260  0.1540
20579SOL    HW160671   1.848   4.749   3.416 -1.5800  0.1327  0.3635
20579SOL    HW260672   1.873   4.588   3.431  2.2571  0.6569  0.1417
20583SOL     OW60673   2.678   8.388   3.776  0.1973  0.5241 -0.2532
20583SOL    HW160674   2.664   8.474   3.826 -0.2964  1.3980 -1.8547
20583SOL    HW260675   2.625   8.390   3.691  0.9749 -0.9620 -0.7933
20584SOL     OW60676   3.663   0.890   6.734 -0.1807  0.0610 -0.0084
20584SOL    HW160677   3.713   0.892   6.647 -0.6846  1.4585 -0.2822
20584SOL    HW260678   3.713   0.945   6.802 -1.2615  1.3464 -0.2437
20586SOL     OW60679   0.255   3.956   7.261  0.0187 -0.1772  0.0911
20586SOL    HW160680   0.352   3.965   7.238  0.0805 -0.3925  0.2636
20586SOL    HW260681   0.236   3.862   7.288 -0.6652 -0.6357 -1.9303
20587SOL     OW60682   2.934   6.334   6.591  0.0998  0.0183  0.1564
20587SOL    HW160683   2.859   6.282   6.632 -0.1133 -1.0635 -1.5726
20587SOL    HW260684   3.017   6.279   6.591  0.2386  0.2270 -0.3472
20589SOL     OW60685   4.347   0.250   6.365 -0.3823 -0.3413  0.9702
20589SOL    HW160686   4.414   0.182   6.336 -0.3830  0.0094  0.1320
20589SOL    HW260687   4.274   0.205   6.416  0.0596 -0.8469  1.1530
20592SOL     OW60688   4.551   9.510   3.742  0.3341 -0.3723 -0.1107
20592SOL    HW160689   4.579   9.483   3.650 -0.8311  0.1454 -0.6332
20592SOL    HW260690   4.622   9.485   3.808  1.7256  0.3870 -1.3082
20593SOL     OW60691   2.476   3.924   2.732  0.0529  0.5305 -0.4204
20593SOL    HW160692   2.499   3.833   2.765 -1.4807  0.1705 -0.3056
20593SOL    HW260693   2.456   3.984   2.811  2.4545  1.3738 -0.4180
20594SOL     OW60694   3.821   1.121   3.112  0.2536 -0.1892 -0.0725
20594SOL    HW160695   3.895   1.182   3.083 -0.0257 -0.0247 -0.4462
20594SOL    HW260696   3.794   1.062   3.035 -1.1913  0.9581 -0.4686
20598SOL     OW60697   7.538   4.448   7.806  0.4722  1.0719  0.1620
20598SOL    HW160698   7.626   4.449   7.758 -1.7478 -0.0083 -4.1496
20598SOL    HW260699   7.520   4.356   7.840  0.7770  1.1912  0.6558
20600SOL     OW60700   9.855   8.754   3.571 -0.3608  0.2160  0.2257
20600SOL    HW160701   9.803   8.721   3.492  0.5327  0.9693 -0.6789
20600SOL    HW260702   9.814   8.839   3.605  0.4674  1.0033 -0.7084
20601SOL     OW60703   9.215   6.978   3.261 -0.3308 -0.3866 -0.1542
20601SOL    HW160704   9.260   7.054   3.308 -0.6400 -0.4451  0.2437
20601SOL    HW260705   9.283   6.922   3.213  0.0823 -0.8203  0.9300
20602SOL     OW60706   3.762   8.326   5.183  0.2758  0.7025  0.0982
20602SOL    HW160707   3.828   8.395   5.152 -0.4338  0.6362 -1.5762
20602SOL    HW260708   3.671   8.366   5.188  0.1423  0.3294  0.7669
20603SOL     OW60709   4.060   8.576   5.548 -1.1782  0.0317  0.1085
20603SOL    HW160710   4.113   8.491   5.543 -1.8645 -0.2786 -2.2670
20603SOL    HW260711   4.123   8.653   5.557 -0.4924 -0.5913  0.8157
20604SOL     OW60712   4.794   5.994   2.670 -0.0845  0.3219  0.3458
20604SOL    HW160713   4.840   5.940   2.740 -0.3412 -0.2482  0.0798
20604SOL    HW260714   4.822   6.090   2.677  0.8197  0.0500  0.4467
20605SOL     OW60715   2.676   7.787   0.114  0.3108 -0.0904  0.1415
20605SOL    HW160716   2.759   7.822   0.071  0.2778  0.8910  0.8653
20605SOL    HW260717   2.610   7.761   0.044  0.0964  1.8872 -0.4086
20606SOL     OW60718   6.606   3.263   1.824 -0.2631 -0.3675  0.6722
20606SOL    HW160719   6.621   3.333   1.894 -0.2245 -0.8520  1.1467
20606SOL    HW260720   6.522   3.213   1.844 -0.1077 -0.6880  0.5191
20607SOL     OW60721   0.686   2.273   7.625  0.1204  0.0019  0.0811
20607SOL    HW160722   0.601   2.327   7.619 -1.1528 -1.8091  1.2436
20607SOL    HW260723   0.708   2.259   7.721  1.6627  0.2904 -0.2240
20611SOL     OW60724   9.435   0.592   1.924  0.0749 -0.7342  0.0255
20611SOL    HW160725   9.495   0.587   1.843 -0.5150 -0.2386 -0.4484
20611SOL    HW260726   9.340   0.584   1.895 -0.1649 -0.1306  0.6295
20612SOL     OW60727   2.412   1.839   2.942  0.0805  0.9621 -0.1271
20612SOL    HW160728   2.464   1.816   3.024  0.6237  1.6756 -0.2707
20612SOL    HW260729   2.366   1.757   2.908 -1.3208  0.9568  1.6998
20613SOL     OW60730   4.337   8.996   1.202  0.0982  0.7896  0.3405
20613SOL    HW160731   4.294   8.907   1.222  2.0883 -0.5447 -1.1027
20613SOL    HW260732   4.333   9.014   1.104  0.3867  1.9594  0.5375
20615SOL     OW60733   3.324   6.029   0.700  1.0143  0.6926 -0.0779
20615SOL    HW160734   3.233   6.000   0.669  1.0301  0.0043  0.5000
20615SOL    HW260735   3.350   6.114   0.653 -0.2463  1.3001  0.3040
20616SOL     OW60736   0.306   0.355   6.085 -0.4099 -0.8388 -0.1926
20616SOL    HW160737   0.357   0.273   6.111  1.5213  0.4777  0.2183
20616SOL    HW260738   0.283   0.408   6.166  0.2237  0.1129 -0.6203
20618SOL     OW60739   1.032   6.721   2.975  0.3753 -0.3609  0.1321
20618SOL    HW160740   0.943   6.749   3.009  0.9456  2.9207 -0.9560
20618SOL    HW260741   1.092   6.698   3.052 -1.3154 -2.4695  0.8629
20619SOL     OW60742   8.719   7.457   7.708 -0.2461  0.3516  0.2970
20619SOL    HW160743   8.801   7.483   7.657  0.4970  1.5664  2.0471
20619SOL    HW260744   8.642   7.514   7.679 -0.3775 -0.4973 -1.0455
20621SOL     OW60745   7.085   2.441   1.188  0.3208  0.2854  0.6052
20621SOL    HW160746   7.069   2.360   1.245  0.6073 -0.2753 -0.0914
20621SOL    HW260747   7.184   2.459   1.185  0.2153  0.9699  1.1714
20622SOL     OW60748   2.309   1.611   4.272  0.2465 -0.4969 -0.1555
20622SOL    HW160749   2.246   1.534   4.278 -0.2706  0.0793  2.4951
20622SOL    HW260750   2.298   1.657   4.184 -2.1237 -1.1785 -0.2416
20623SOL     OW60751   6.510   6.002   2.044 -0.0008  0.1583  0.0354
20623SOL    HW160752   6.588   5.994   1.981 -0.6600 -1.2846 -0.6117
20623SOL    HW260753   6.461   5.915   2.048 -2.3792  1.4298 -0.5739
20624SOL     OW60754   3.532   8.479   6.356 -0.2299  0.1904 -0.3274
20624SOL    HW160755   3.575   8.539   6.424  1.3790 -1.6423  0.2860
20624SOL    HW260756   3.433   8.494   6.358 -0.3734 -0.7034  3.3166
20625SOL     OW60757   8.108   0.442   5.349 -0.5918 -0.0394 -0.2264
20625SOL    HW160758   8.152   0.432   5.261 -0.0427 -0.0044  0.0421
20625SOL    HW260759   8.020   0.395   5.348 -0.6576  0.0932 -0.8396
20626SOL     OW60760   3.509   9.535   0.433 -1.0751  0.2978 -0.4465
20626SOL    HW160761   3.556   9.498   0.513 -0.3175 -0.2175 -1.1132
20626SOL    HW260762   3.464   9.621   0.457 -1.7530 -0.3859  0.7899
20627SOL     OW60763   5.238   7.430   2.638 -0.2840 -0.0256  0.0218
20627SOL    HW160764   5.257   7.367   2.562 -0.8300 -0.7181  0.4530
20627SOL    HW260765   5.218   7.521   2.601 -1.3365 -0.5416 -0.7142
20628SOL     OW60766   9.159   5.277   3.640 -0.6328 -0.1274  0.1081
20628SOL    HW160767   9.177   5.323   3.726 -0.1118  0.4912 -0.3264
20628SOL    HW260768   9.174   5.179   3.651 -2.0550 -0.2447  1.1205
20630SOL     OW60769   1.992   6.563   6.760 -0.5149 -0.0053  0.0621
20630SOL    HW160770   2.071   6.623   6.759  0.3178 -1.0850 -0.4727
20630SOL    HW260771   1.922   6.599   6.822  1.2689 -0.1366  2.1946
20631SOL     OW60772   8.910   8.167   4.248  0.0989  0.4902 -0.0650
20631SOL    HW160773   8.982   8.106   4.280 -0.0340 -0.8960 -2.2986
20631SOL    HW260774   8.949   8.256   4.225  0.3064  1.2891  3.1256
20633SOL     OW60775   3.040   5.058   5.990  0.4121 -0.8371  0.3993
20633SOL    HW160776   3.116   5.005   6.027 -1.1696 -2.5344  1.2711
20633SOL    HW260777   3.041   5.150   6.029  0.6451 -1.5964  2.2152
20634SOL     OW60778   9.410   0.513   7.928  0.3074  0.3427  0.1305
20634SOL    HW160779   9.357   0.598   7.931  0.3831  0.4561 -1.2163
20634SOL    HW260780   9.359   0.444   7.877  0.5629 -0.1911  0.6000
20635SOL     OW60781   0.332   7.888   5.167  0.1711  0.4069  0.3128
20635SOL    HW160782   0.324   7.987   5.155 -0.4369  0.3849  0.5344
20635SOL    HW260783   0.243   7.850   5.191  0.4972 -0.1363  0.6676
20636SOL     OW60784   0.096   4.236   0.141  0.0962 -0.2372  0.8969
20636SOL    HW160785   0.128   4.268   0.051  0.2615 -1.7621  0.3906
20636SOL    HW260786   0.160   4.167   0.176  0.0005  0.3137  2.1634
20637SOL     OW60787   1.432   1.485   6.561  0.4250 -0.4782 -0.0353
20637SOL    HW160788   1.349   1.540   6.571  1.5020  1.0299  0.8145
20637SOL    HW260789   1.489   1.495   6.642  1.8642 -0.7666 -0.9969
20638SOL     OW60790   6.894   1.140   5.553  0.1256  0.0748 -0.2170
20638SOL    HW160791   6.972   1.170   5.607 -0.0494  0.2094 -0.0361
20638SOL    HW260792   6.812   1.190   5.582 -0.3506 -1.1823  0.6826
20641SOL     OW60793   4.692   3.189   6.084  0.1954 -0.6450 -0.2522
20641SOL    HW160794   4.641   3.106   6.061  0.5030 -0.6086 -1.0912
20641SOL    HW260795   4.708   3.243   6.001 -1.0049  0.8344  0.4419
20642SOL     OW60796   6.322   5.782   1.701  0.8932  0.3101 -0.5764
20642SOL    HW160797   6.378   5.863   1.719  1.5087 -0.1767 -0.2738
20642SOL    HW260798   6.375   5.717   1.647  0.5009 -0.0099 -0.5758
20643SOL     OW60799   1.822   8.227   4.764  0.3967 -0.0532  0.0038
20643SOL    HW160800   1.786   8.192   4.678 -0.1786  2.3359 -0.7714
20643SOL    HW260801   1.870   8.313   4.748  2.0413 -0.5987  1.7896
20644SOL     OW60802   1.111   3.221   3.655  0.0935  0.0531  0.3225
20644SOL    HW160803   1.067   3.249   3.570  1.2949 -1.1105 -0.7138
20644SOL    HW260804   1.129   3.301   3.712  0.4350  0.9983 -1.0915
20645SOL     OW60805   5.135   9.186   2.674  0.3752  0.2618  0.0504
20645SOL    HW160806   5.112   9.105   2.620 -0.8356  1.5820 -1.4665
20645SOL    HW260807   5.052   9.235   2.698  1.0624  0.8079  1.3916
20646SOL     OW60808   3.938   2.501   7.340 -0.0959 -0.3951  1.0561
20646SOL    HW160809   3.930   2.490   7.241  0.1556  2.3656  0.6771
20646SOL    HW260810   3.991   2.426   7.378  0.9821 -0.7619 -1.0968
20647SOL     OW60811   8.486   8.046   4.677  0.2336  0.3614 -0.5759
20647SOL    HW160812   8.498   8.088   4.767  0.1062  0.9901 -0.8475
20647SOL    HW260813   8.545   8.092   4.610  0.5656 -0.3150 -0.7474
20648SOL     OW60814   4.343   9.478   6.164  0.1455 -0.7676 -0.6189
20648SOL    HW160815   4.268   9.469   6.229 -1.3805 -0.3057 -2.2677
20648SOL    HW260816   4.405   9.550   6.194 -0.7691 -0.2746  0.1146
20649SOL     OW60817   2.051   5.845   1.223  0.1316  0.3039 -0.1572
20649SOL    HW160818   2.093   5.849   1.314 -2.2636 -0.8127  1.0232
20649SOL    HW260819   2.079   5.926   1.170 -0.3472  2.2324  2.4309
20650SOL     OW60820   2.209   3.638   5.955  0.6027  0.1768 -0.0443
20650SOL    HW160821   2.299   3.678   5.937  0.4822  0.1445 -0.7293
20650SOL    HW260822   2.155   3.637   5.870  0.3093 -0.6953  0.1508
20651SOL     OW60823   0.281   4.942   3.383  0.0837  0.2697 -0.4366
20651SOL    HW160824   0.242   5.007   3.448  0.3449  0.3636 -0.3728
20651SOL    HW260825   0.258   4.849   3.412  1.8957  0.2119  0.9316
20652SOL     OW60826   7.229   2.423   4.921 -0.1193  0.0373  0.0206
20652SOL    HW160827   7.265   2.398   4.832 -0.6988 -3.3696  0.6467
20652SOL    HW260828   7.288   2.491   4.964  2.2897 -1.0881 -1.4010
20653SOL     OW60829   8.394   5.821   1.868 -0.7084  0.4251 -0.5650
20653SOL    HW160830   8.408   5.808   1.966 -1.3865 -0.3600 -0.5678
20653SOL    HW260831   8.452   5.758   1.817  0.2167  1.3600 -0.6953
20654SOL     OW60832   0.162   8.631   5.923  0.2565  0.2095  0.0924
20654SOL    HW160833   0.158   8.531   5.915  1.7409  0.0755  0.8807
20654SOL    HW260834   0.220   8.656   6.000 -0.8340  1.6854  0.4579
20655SOL     OW60835   2.680   3.012   4.382 -0.4420  0.2174  0.0946
20655SOL    HW160836   2.692   3.106   4.414 -0.6437  0.2990 -0.0669
20655SOL    HW260837   2.695   2.948   4.458  1.6050  0.2826 -0.2233
20656SOL     OW60838   3.374   3.497   0.875 -0.3323 -0.2826  0.4314
20656SOL    HW160839   3.283   3.522   0.842 -0.3389 -0.1934  0.5173
20656SOL    HW260840   3.370   3.480   0.974  0.0768  1.2807  0.7156
20657SOL     OW60841   7.731   0.127   4.985  0.3706  0.1423 -0.4009
20657SOL    HW160842   7.709   0.029   4.974  0.0128  0.0452  0.9918
20657SOL    HW260843   7.651   0.181   4.960  0.1968  0.0177 -0.1258
20658SOL     OW60844   9.016   6.734   3.196  0.0852  0.8944  0.2032
20658SOL    HW160845   9.046   6.781   3.279 -1.6804 -1.0621  2.0130
20658SOL    HW260846   9.069   6.651   3.184 -1.1277  0.0312  0.6411
20660SOL     OW60847   2.166   3.008   5.333 -0.2720  0.1229 -0.2696
20660SOL    HW160848   2.185   2.940   5.404 -2.1928 -0.9505 -0.7444
20660SOL    HW260849   2.248   3.062   5.316  0.0053  1.0221  3.4143
20662SOL     OW60850   8.887   3.863   6.685  0.0657 -0.1733  0.3668
20662SOL    HW160851   8.985   3.867   6.666  0.0609  0.5015  0.4697
20662SOL    HW260852   8.837   3.912   6.614  0.0557  2.3740  2.0646
20663SOL     OW60853   9.127   4.485   6.397 -0.3759 -0.2916 -0.1570
20663SOL    HW160854   9.063   4.538   6.341 -2.1320 -0.1608  1.8739
20663SOL    HW260855   9.143   4.533   6.483 -0.6438 -2.2346  1.0001
20664SOL     OW60856   0.583   1.752   7.578 -0.5140 -0.4462 -0.0517
20664SOL    HW160857   0.490   1.727   7.605  0.4684 -3.4955  0.7503
20664SOL    HW260858   0.615   1.689   7.508  0.9457  0.6262 -0.3694
20665SOL     OW60859   7.838   2.213   7.756  0.0721 -0.0315  0.4498
20665SOL    HW160860   7.840   2.219   7.656  1.4941  1.6518  0.5521
20665SOL    HW260861   7.919   2.165   7.788  0.5523  1.0412  0.8745
20666SOL     OW60862   5.776   0.059   1.817  0.1708  0.1318  0.6245
20666SOL    HW160863   5.860   0.091   1.860  0.8036 -0.7199  0.0349
20666SOL    HW260864   5.794   0.037   1.721 -0.8181  0.3348  0.3860
20667SOL     OW60865   8.839   8.406   7.072  0.1931 -0.0465 -0.3140
20667SOL    HW160866   8.768   8.368   7.012 -0.1163 -0.7223  0.4689
20667SOL    HW260867   8.808   8.402   7.167  0.1091  2.2644 -0.2007
20669SOL     OW60868   7.034   1.410   0.452  0.2923 -0.0257  0.1214
20669SOL    HW160869   7.079   1.375   0.370  0.9090 -0.5108  0.6534
20669SOL    HW260870   7.010   1.506   0.440 -0.9192 -0.4704 -1.1636
20670SOL     OW60871   1.052   8.823   2.790 -0.4201 -0.4532  0.2173
20670SOL    HW160872   0.979   8.870   2.740  0.0883  1.2065  0.9776
20670SOL    HW260873   1.058   8.860   2.883  0.3917 -1.6373  0.6427
20671SOL     OW60874   1.825   0.285   2.876 -0.5174  0.1954 -0.1322
20671SOL    HW160875   1.886   0.327   2.809  0.5947  1.4514  1.6379
20671SOL    HW260876   1.878   0.230   2.940 -1.4381 -0.0280  0.4552
20673SOL     OW60877   1.837   2.396   7.210  0.2489 -0.1839 -0.6209
20673SOL    HW160878   1.742   2.424   7.224  0.1137 -0.8273 -0.2227
20673SOL    HW260879   1.894   2.477   7.194 -0.6004  0.0967 -2.2829
20674SOL     OW60880   5.151   0.857   7.504 -0.7076 -0.6746 -0.1851
20674SOL    HW160881   5.052   0.869   7.492 -0.3346  1.6085 -1.1108
20674SOL    HW260882   5.173   0.867   7.601 -1.1999  0.2980 -0.1674
20677SOL     OW60883   3.448   7.798   3.051  0.4204 -0.1519 -0.5113
20677SOL    HW160884   3.415   7.706   3.027 -1.3789  0.5256 -0.7078
20677SOL    HW260885   3.472   7.800   3.148  1.1154 -1.0128 -0.6590
20678SOL     OW60886   4.700   7.136   4.596 -0.0118  0.7447 -0.1394
20678SOL    HW160887   4.640   7.058   4.582  1.1562  0.1735 -2.0964
20678SOL    HW260888   4.679   7.178   4.685 -0.2091 -2.1534  1.2562
20679SOL     OW60889   2.353   8.074   0.862 -0.1540  0.4730  0.1430
20679SOL    HW160890   2.331   8.045   0.955  0.5530 -0.0272  0.1606
20679SOL    HW260891   2.310   8.012   0.796  0.1816  0.2281  0.1547
20680SOL     OW60892   0.339   3.900   0.786  0.1691 -0.3206  0.3211
20680SOL    HW160893   0.246   3.896   0.824  0.0386 -2.0543 -0.1513
20680SOL    HW260894   0.344   3.974   0.720 -0.5955  0.4490  1.1082
20681SOL     OW60895   5.154   5.415   0.043 -0.0680 -0.0325  0.0182
20681SOL    HW160896   5.158   5.358  -0.039 -0.6910 -0.3794  0.2188
20681SOL    HW260897   5.191   5.505   0.024  1.3842 -0.6689 -0.1755
20682SOL     OW60898   1.209   5.481   0.001  0.2609  0.2514  0.2266
20682SOL    HW160899   1.296   5.453  -0.040 -0.4910  0.0859 -1.2671
20682SOL    HW260900   1.225   5.559   0.062  1.3977  0.4579 -0.3150
20683SOL     OW60901   2.834   0.312   5.618  0.2595  0.4074  0.1758
20683SOL    HW160902   2.877   0.246   5.556 -0.3749 -0.5213  0.7123
20683SOL    HW260903   2.756   0.269   5.663  0.7110  1.0700  1.6223
20684SOL     OW60904   3.927   4.384   4.471  0.5252  0.6287  0.1370
20684SOL    HW160905   4.004   4.448   4.466 -0.1466  1.6085  1.8743
20684SOL    HW260906   3.851   4.419   4.417  0.2136  1.2161  0.9571
20685SOL     OW60907   2.501   8.144   3.844 -0.1162  0.1400  0.2615
20685SOL    HW160908   2.580   8.201   3.820 -0.4085  0.7888  0.8430
20685SOL    HW260909   2.479   8.084   3.768 -0.4508  1.5275 -0.7503
20686SOL     OW60910   6.882   9.844   2.782 -0.4393 -0.1035  0.2634
20686SOL    HW160911   6.980   9.849   2.762 -0.5747  1.4503 -0.0185
20686SOL    HW260912   6.830   9.886   2.707 -1.2595  0.1854  0.9860
20688SOL     OW60913   7.356   9.040   4.162  0.1136 -0.7672 -0.6333
20688SOL    HW160914   7.354   8.984   4.079  1.0435  0.3775 -1.4515
20688SOL    HW260915   7.450   9.069   4.180 -0.1623 -0.5932  0.5467
20689SOL     OW60916   1.381   3.732   3.294 -0.2272  0.1885  0.4122
20689SOL    HW160917   1.389   3.831   3.287  1.9324  0.0825  0.9518
20689SOL    HW260918   1.401   3.690   3.206  2.3363  0.0886  1.0009
20691SOL     OW60919   8.343   4.282   4.887  0.6655  0.0957 -0.8456
20691SOL    HW160920   8.388   4.209   4.938  0.0458 -1.1495 -2.0349
20691SOL    HW260921   8.285   4.242   4.816 -2.8171  1.6257  1.0072
20692SOL     OW60922   2.373   3.277   5.041  0.2492 -0.0489  0.2140
20692SOL    HW160923   2.413   3.321   4.960  1.7983 -0.2465  0.8581
20692SOL    HW260924   2.338   3.187   5.016 -2.0767  1.1095 -0.9027
20693SOL     OW60925   4.425   3.316   7.682  0.1293  0.2168 -0.0377
20693SOL    HW160926   4.498   3.328   7.614  0.6819  2.4553  0.8965
20693SOL    HW260927   4.338   3.343   7.643 -0.0957 -1.7388 -0.9178
20694SOL     OW60928   3.583   4.664   1.107  0.0667 -0.3834  0.1215
20694SOL    HW160929   3.539   4.594   1.050  1.7002 -0.7473 -0.7061
20694SOL    HW260930   3.619   4.737   1.049 -1.1315  0.8837  0.9453
20695SOL     OW60931   1.925   3.961   2.908 -0.1503  0.1755  0.5514
20695SOL    HW160932   1.832   3.979   2.876  0.5063  0.2473 -1.4410
20695SOL    HW260933   1.930   3.971   3.007 -2.1271  0.7359  0.6043
20696SOL     OW60934   3.738   1.610   2.608  0.2654  0.2376 -0.5738
20696SOL    HW160935   3.765   1.580   2.516 -1.1584 -2.2018 -0.2417
20696SOL    HW260936   3.817   1.607   2.669  1.1420  1.5329 -1.6060
20697SOL     OW60937   9.025   9.166   7.701 -0.0277 -0.2009  0.1394
20697SOL    HW160938   8.937   9.175   7.750 -1.3841  0.2847 -2.3116
20697SOL    HW260939   9.031   9.076   7.659 -0.8074  0.8915 -2.3847
20701SOL     OW60940   0.863   0.380   6.072 -0.1930 -0.2244  0.3161
20701SOL    HW160941   0.862   0.281   6.055  0.4723  0.0422 -1.3009
20701SOL    HW260942   0.772   0.418   6.052 -0.3657 -0.4422  0.6631
20704SOL     OW60943   1.296   4.672   4.720  0.7306 -0.5851 -0.0770
20704SOL    HW160944   1.381   4.620   4.709  0.7997 -0.8658  1.6805
20704SOL    HW260945   1.250   4.644   4.803 -0.0596  1.0173  0.0484
20705SOL     OW60946   9.840   0.287   4.841 -0.0003 -0.6704  0.2004
20705SOL    HW160947   9.917   0.350   4.843  2.0643 -3.0752  0.2178
20705SOL    HW260948   9.817   0.259   4.934  1.9121 -3.1067  0.0166
20706SOL     OW60949   7.147   3.103   2.524  0.7375 -0.2486 -0.6886
20706SOL    HW160950   7.232   3.148   2.498  0.4938  1.0186  0.6268
20706SOL    HW260951   7.092   3.165   2.581 -0.9843 -1.1092 -1.3741
20708SOL     OW60952   6.384   7.916   3.372 -0.9495 -0.4947 -0.0296
20708SOL    HW160953   6.414   7.994   3.427  2.7593 -1.0621 -1.1184
20708SOL    HW260954   6.387   7.833   3.428  0.5537 -0.7066 -0.4088
20709SOL     OW60955   0.530   5.514   7.027 -0.1433 -0.0160 -0.0595
20709SOL    HW160956   0.615   5.508   7.080 -0.2130  0.8734  0.1555
20709SOL    HW260957   0.526   5.602   6.981 -1.0124 -0.0142  0.0209
20710SOL     OW60958   6.064   0.507   2.645  0.0345 -0.1003 -0.3429
20710SOL    HW160959   5.985   0.453   2.676 -0.5698 -0.0036 -1.6583
20710SOL    HW260960   6.033   0.598   2.619  0.2608 -0.6346 -2.5721
20711SOL     OW60961   3.288   3.032   3.313  0.1783 -0.5149  0.6213
20711SOL    HW160962   3.247   2.987   3.392 -2.1559 -1.2238 -0.9150
20711SOL    HW260963   3.338   2.966   3.258  0.0375 -0.4553  0.4183
20713SOL     OW60964   6.646   9.293   2.728 -0.0440 -0.3349 -0.5109
20713SOL    HW160965   6.730   9.326   2.687  0.4681  1.4358  1.8701
20713SOL    HW260966   6.596   9.369   2.769 -0.4391 -1.9807  2.2599
20714SOL     OW60967   8.433   3.957   7.579  0.5898  0.4905  0.6921
20714SOL    HW160968   8.412   3.864   7.609  1.7781 -0.0534 -0.1554
20714SOL    HW260969   8.350   3.999   7.541  0.4216 -0.7763 -0.3836
20715SOL     OW60970   9.128   7.703   1.453 -0.4631 -0.7717 -0.2408
20715SOL    HW160971   9.134   7.774   1.524 -0.0236 -2.0641  1.0497
20715SOL    HW260972   9.076   7.625   1.489  0.4906 -1.7952 -1.0570
20716SOL     OW60973   2.863   9.961   5.754  0.2098  0.1310  0.2688
20716SOL    HW160974   2.869   9.947   5.656  0.3684  1.8224  0.0320
20716SOL    HW260975   2.941  10.016   5.785 -0.2948  0.3302  1.2064
20717SOL     OW60976   2.673   1.428   7.601 -0.5633 -0.3530 -0.0595
20717SOL    HW160977   2.706   1.522   7.588 -0.4758 -0.5090 -1.0235
20717SOL    HW260978   2.575   1.430   7.619 -0.8109 -0.1477 -1.3653
20721SOL     OW60979   1.890   1.530   2.022 -0.1744 -0.3080  0.2114
20721SOL    HW160980   1.860   1.522   2.117  2.2548 -1.1006  0.9494
20721SOL    HW260981   1.815   1.509   1.960 -1.1959 -1.8749  1.9786
20722SOL     OW60982   2.400   0.733   3.430  0.2668  0.7697 -0.1138
20722SOL    HW160983   2.420   0.763   3.337  1.1491  0.9466  0.1303
20722SOL    HW260984   2.377   0.812   3.486  1.6567  0.8918  0.2956
20724SOL     OW60985   0.604   7.603   3.986 -0.3371 -0.0751  0.5178
20724SOL    HW160986   0.564   7.682   3.940 -0.4246 -0.3870  0.0477
20724SOL    HW260987   0.565   7.519   3.948  1.0904 -0.4011 -0.2649
20725SOL     OW60988   0.571   9.201   7.321 -0.6717 -0.2499 -0.6373
20725SOL    HW160989   0.514   9.279   7.344 -0.4223 -0.0465 -0.7019
20725SOL    HW260990   0.618   9.168   7.403  0.1891  0.4520 -0.8412
20726SOL     OW60991   8.492   7.185   6.216 -0.0361 -0.3626  0.4621
20726SOL    HW160992   8.574   7.145   6.177  0.0814 -0.2988  0.6443
20726SOL    HW260993   8.453   7.251   6.151 -1.2619 -2.0899 -0.6327
20728SOL     OW60994   8.009   6.836   0.093  0.3486  0.2988  0.1581
20728SOL    HW160995   7.982   6.747   0.058  0.9703  0.3591 -0.4884
20728SOL    HW260996   7.965   6.852   0.182 -0.0136 -0.5102  0.1268
20729SOL     OW60997   7.722   9.681   1.510  0.4485 -0.5368  0.2065
20729SOL    HW160998   7.677   9.728   1.434  0.8627 -1.0707 -0.3799
20729SOL    HW260999   7.701   9.584   1.506  0.8598 -0.6394  0.4988
20730SOL     OW61000   3.186   7.730   7.570  0.4234 -0.3457  0.0226
20730SOL    HW161001   3.141   7.666   7.509  2.0365 -2.5622  1.0624
20730SOL    HW261002   3.206   7.684   7.657  2.1928  1.3577  0.5592
20733SOL     OW61003   5.674   8.466   6.371 -0.0458  0.1349  0.0692
20733SOL    HW161004   5.599   8.406   6.397  0.1229 -1.2314 -2.4120
20733SOL    HW261005   5.638   8.555   6.344 -0.5133  0.3713  1.4323
20734SOL     OW61006   3.144   9.511   6.126  0.0701 -0.2846  0.3062
20734SOL    HW161007   3.126   9.577   6.053  0.8415 -0.4968 -0.0847
20734SOL    HW261008   3.119   9.419   6.095 -2.1770 -0.0364  1.2910
20735SOL     OW61009   5.874   0.593   0.759 -0.0860 -0.0403  0.8968
20735SOL    HW161010   5.845   0.585   0.855 -2.4384 -0.3999  0.1856
20735SOL    HW261011   5.884   0.502   0.720  3.2156  0.0470  1.4388
20736SOL     OW61012   8.219   1.876   4.741  0.3039 -0.0013  0.4991
20736SOL    HW161013   8.227   1.955   4.801  1.2584 -0.6021  1.1871
20736SOL    HW261014   8.308   1.857   4.698 -0.2652  0.1698 -0.7835
20737SOL     OW61015   1.791   6.173   1.815 -0.1168 -0.1355 -0.1850
20737SOL    HW161016   1.788   6.159   1.914  2.5308 -0.9042 -0.1727
20737SOL    HW261017   1.771   6.268   1.794 -0.3524  0.1084  1.1236
20739SOL     OW61018   0.535   2.909   4.022 -0.1119 -0.2137 -0.1023
20739SOL    HW161019   0.539   2.810   4.004  0.3667  0.1027 -1.8872
20739SOL    HW261020   0.440   2.938   4.028 -0.2630 -0.6757 -0.2547
20740SOL     OW61021   0.842   3.881   6.638 -0.3237  0.0583 -0.0281
20740SOL    HW161022   0.894   3.912   6.559 -1.3338  0.8339 -0.3953
20740SOL    HW261023   0.885   3.914   6.722 -0.1913  0.6420 -0.3238
20741SOL     OW61024   3.562   2.146   3.929  0.2402  0.1513  0.1710
20741SOL    HW161025   3.505   2.221   3.963 -0.1774  0.1428 -0.5020
20741SOL    HW261026   3.618   2.180   3.854  1.7288  0.3727  1.3603
20742SOL     OW61027   5.125   1.224   7.227  0.2091 -0.2892  0.1498
20742SOL    HW161028   5.096   1.286   7.301 -0.8243  0.0616 -0.5338
20742SOL    HW261029   5.219   1.244   7.202  0.9923 -1.2441  2.2184
20743SOL     OW61030   7.381   6.555   7.346  0.3651 -0.2527 -0.4964
20743SOL    HW161031   7.335   6.630   7.395 -0.4972 -0.6057 -0.7522
20743SOL    HW261032   7.479   6.560   7.362  0.0839 -0.4324  1.3746
20744SOL     OW61033   9.271   8.132   0.719 -0.6822 -0.0164  0.3675
20744SOL    HW161034   9.367   8.153   0.736 -0.0122 -1.9103 -0.9644
20744SOL    HW261035   9.214   8.185   0.782  1.2033  1.2527  1.0618
20745SOL     OW61036   6.658   1.755   5.370 -0.3820 -0.2322  0.1066
20745SOL    HW161037   6.722   1.829   5.390 -2.2288  1.3959  0.1317
20745SOL    HW261038   6.700   1.692   5.305  1.0812  1.0607 -0.2485
20750SOL     OW61039   8.699   8.689   2.585 -0.3108  0.0155  0.2463
20750SOL    HW161040   8.609   8.730   2.601 -0.8464 -0.1195 -2.2686
20750SOL    HW261041   8.749   8.687   2.671 -2.4980  0.5842  1.5965
20752SOL     OW61042   1.147   4.863   3.537 -0.3070 -0.3498 -0.2084
20752SOL    HW161043   1.202   4.942   3.563 -0.0874 -0.2427 -0.9850
20752SOL    HW261044   1.200   4.780   3.548 -0.9544 -0.5077  1.8207
20753SOL     OW61045   4.074   0.172   3.883  0.5903 -0.5930 -0.2789
20753SOL    HW161046   4.020   0.144   3.804 -0.8214  0.1835  0.3960
20753SOL    HW261047   4.171   0.178   3.857  0.3747 -1.9849 -1.5015
20754SOL     OW61048   3.085   7.911   3.532  0.0760  0.2116  0.0921
20754SOL    HW161049   3.041   8.000   3.544 -1.3431 -0.4295 -0.2264
20754SOL    HW261050   3.098   7.893   3.434 -1.2747 -0.6859  0.0595
20755SOL     OW61051   0.506   4.907   3.605  0.1466 -0.3784 -0.1907
20755SOL    HW161052   0.417   4.902   3.561 -0.8347 -0.7455  1.7943
20755SOL    HW261053   0.544   4.999   3.594  0.0102 -0.5216 -1.9387
20757SOL     OW61054   6.109   8.251   6.424 -0.2199  0.2347 -0.2431
20757SOL    HW161055   6.140   8.235   6.330 -1.5137  1.3450 -0.8776
20757SOL    HW261056   6.154   8.334   6.459  0.4097 -0.2868  0.1982
20759SOL     OW61057   3.294   5.587   4.043 -0.1810 -0.2157  0.3263
20759SOL    HW161058   3.386   5.548   4.055 -0.2810 -0.0074  2.0033
20759SOL    HW261059   3.231   5.542   4.107 -0.7483  1.2020  0.7827
20760SOL     OW61060   4.960   0.518   4.243  0.1942 -0.5054 -0.2482
20760SOL    HW161061   4.960   0.425   4.279 -0.7374 -0.7426 -0.8519
20760SOL    HW261062   4.916   0.579   4.308 -1.4077 -0.9191 -0.9210
20761SOL     OW61063   2.973   0.499   4.049 -0.0788 -0.0018 -0.0292
20761SOL    HW161064   3.019   0.557   3.981 -1.4452  0.2483 -0.7521
20761SOL    HW261065   2.900   0.448   4.005 -0.2585 -0.6796  1.0447
20762SOL     OW61066   7.468   8.731   1.380  0.0723  0.3060 -0.0603
20762SOL    HW161067   7.459   8.653   1.317 -0.1710 -0.7749  1.2794
20762SOL    HW261068   7.541   8.791   1.348  0.7483 -0.8560 -0.7359
20763SOL     OW61069   7.880   5.346   0.879  0.0454  0.3065  0.5833
20763SOL    HW161070   7.955   5.394   0.833  0.3554  1.2386  1.9965
20763SOL    HW261071   7.916   5.295   0.957 -0.7624  0.7626  1.2751
20764SOL     OW61072   4.810   9.277   4.005  0.2751 -0.1503  0.4567
20764SOL    HW161073   4.910   9.284   4.008  0.1894  1.4181  0.1353
20764SOL    HW261074   4.776   9.244   4.093  0.9916  0.6719  1.0451
20765SOL     OW61075   1.419   8.280   2.791  0.5608  1.1851  0.3499
20765SOL    HW161076   1.364   8.323   2.862  0.1343  0.4327  0.4851
20765SOL    HW261077   1.505   8.247   2.830  0.0873  0.2721  0.6546
20767SOL     OW61078   7.426   8.415   3.496 -0.3253  0.2293  0.3842
20767SOL    HW161079   7.352   8.361   3.534 -0.6954 -0.7430 -1.6447
20767SOL    HW261080   7.404   8.512   3.502 -1.9897 -0.0729 -0.6103
20768SOL     OW61081   3.257   3.130   4.232  0.0208  0.0851  0.1777
20768SOL    HW161082   3.287   3.216   4.271  0.1076 -0.1710  0.6825
20768SOL    HW261083   3.312   3.055   4.270  0.3716 -0.1245 -0.7314
20769SOL     OW61084   2.082   4.145   0.314 -0.8293  0.3434  0.1448
20769SOL    HW161085   2.132   4.060   0.329 -0.6322  0.3007 -0.7001
20769SOL    HW261086   2.126   4.219   0.365  0.2836  0.3625 -0.8080
20770SOL     OW61087   4.778   0.444   5.044  0.0968 -0.4267 -0.1078
20770SOL    HW161088   4.815   0.528   5.082  0.3574 -1.0094  0.9389
20770SOL    HW261089   4.683   0.433   5.072  0.2334 -0.7657  0.2229
20771SOL     OW61090   2.598   4.908   0.093  0.2507 -0.0189 -0.9198
20771SOL    HW161091   2.567   4.814   0.083 -0.4206 -0.0431  1.1494
20771SOL    HW261092   2.681   4.922   0.039  0.2756 -1.7579 -1.3466
20772SOL     OW61093   7.542   2.614   4.698 -0.5031 -0.6569 -0.0774
20772SOL    HW161094   7.533   2.571   4.788  3.1271 -1.5667 -0.0993
20772SOL    HW261095   7.565   2.711   4.709  1.8558 -1.2089  0.0102
20773SOL     OW61096   3.918   5.087   0.266  0.1499  0.2560  0.4443
20773SOL    HW161097   4.017   5.077   0.254  0.2164 -1.1783  1.9496
20773SOL    HW261098   3.895   5.184   0.277  1.6216  0.4610  1.8536
20774SOL     OW61099   8.285   0.315   6.614  0.2372  0.0927  0.3193
20774SOL    HW161100   8.190   0.285   6.615  0.4406 -0.6060 -0.4098
20774SOL    HW261101   8.301   0.373   6.534  1.2203 -2.5539 -1.4849
20775SOL     OW61102   1.958   0.727   7.357  0.2860  0.2945 -0.0762
20775SOL    HW161103   1.946   0.796   7.428 -0.3684  0.2778 -0.1671
20775SOL    HW261104   1.943   0.636   7.395 -3.0150  0.4456 -0.8543
20776SOL     OW61105   3.589   4.650   7.770  0.7498  0.1017 -0.0314
20776SOL    HW161106   3.593   4.677   7.866 -1.3663  1.6848 -0.3642
20776SOL    HW261107   3.622   4.556   7.760 -0.8299 -0.7526  2.5108
20778SOL     OW61108   0.256   4.887   4.697  0.1941  0.5409  0.0824
20778SOL    HW161109   0.318   4.955   4.659 -0.7559  2.4408  1.7792
20778SOL    HW261110   0.162   4.908   4.669  0.1850 -1.9764 -2.0062
20781SOL     OW61111   2.017   0.734   5.073 -0.2675 -0.1193  0.6733
20781SOL    HW161112   1.978   0.647   5.104 -1.6375 -0.6528 -2.3871
20781SOL    HW261113   2.000   0.746   4.975  0.2741  3.3998  0.9179
20783SOL     OW61114   1.370   7.730   1.078 -0.2749 -0.1428 -0.6274
20783SOL    HW161115   1.462   7.691   1.068 -0.9981 -1.6573 -1.5449
20783SOL    HW261116   1.329   7.743   0.988 -0.8248  0.8987 -0.2386
20785SOL     OW61117   9.435   9.221   3.250  0.0524  0.1698 -0.3536
20785SOL    HW161118   9.496   9.157   3.298 -1.0049 -0.3888  0.2595
20785SOL    HW261119   9.390   9.173   3.175 -1.4427 -0.0706  0.6794
20786SOL     OW61120   5.343   1.014   3.348  0.4885 -0.0980  0.4859
20786SOL    HW161121   5.301   1.104   3.361 -0.8976 -0.6339 -0.2437
20786SOL    HW261122   5.309   0.951   3.418 -1.8126 -1.1824 -1.5541
20787SOL     OW61123   8.159   4.445   2.851  0.0042  0.3674 -0.3154
20787SOL    HW161124   8.191   4.534   2.821  0.9880  0.2997  0.4964
20787SOL    HW261125   8.127   4.451   2.946  0.5406 -0.2484 -0.0937
20788SOL     OW61126   6.796   2.221   0.744 -0.4415  0.0482  0.4220
20788SOL    HW161127   6.749   2.209   0.832  0.8206  1.8846  1.3657
20788SOL    HW261128   6.819   2.317   0.731  0.8770 -0.4608 -1.1456
20789SOL     OW61129   5.171   0.753   6.757  0.2228  0.2554  0.7238
20789SOL    HW161130   5.232   0.769   6.835  1.6476 -1.1948 -0.0622
20789SOL    HW261131   5.215   0.784   6.673 -0.7826  0.6475  0.3401
20790SOL     OW61132   5.118   8.270   1.024 -0.1580  0.3243 -0.3270
20790SOL    HW161133   5.107   8.227   1.113  0.5291  1.4902  0.3294
20790SOL    HW261134   5.198   8.330   1.025 -0.8398  1.2659 -1.3609
20792SOL     OW61135   6.687   0.261   5.063  0.1469 -0.1056  0.0847
20792SOL    HW161136   6.598   0.265   5.109  0.2145  0.9981  0.1160
20792SOL    HW261137   6.741   0.187   5.104 -0.1596  0.2280  1.1192
20793SOL     OW61138   1.375   6.196   6.988  0.3473 -0.0764 -0.0292
20793SOL    HW161139   1.406   6.181   6.894 -0.6779  0.6693 -0.4997
20793SOL    HW261140   1.327   6.115   7.020  0.8409 -0.3959 -0.0894
20795SOL     OW61141   4.455   2.510   4.298 -0.2729  0.0005 -0.3986
20795SOL    HW161142   4.454   2.533   4.201 -2.1462  0.8771 -0.1959
20795SOL    HW261143   4.537   2.549   4.340 -1.1486  2.5765 -0.9721
20796SOL     OW61144   4.078   1.050   6.804  0.8496  0.0503 -0.0158
20796SOL    HW161145   4.101   1.089   6.715  1.6207  0.1607  0.2292
20796SOL    HW261146   4.138   0.972   6.823  1.4798  0.7581  0.9315
20797SOL     OW61147   3.217   6.551   4.298  0.2885 -0.0181 -0.0544
20797SOL    HW161148   3.118   6.552   4.285  0.2602 -0.8962  0.0207
20797SOL    HW261149   3.238   6.520   4.391  0.6322  0.1773 -0.0661
20799SOL     OW61150   1.306   2.828   7.605  0.5229  0.0565  0.3259
20799SOL    HW161151   1.237   2.762   7.574  0.0535  0.2983  0.8548
20799SOL    HW261152   1.387   2.778   7.636  0.2250 -0.2686  0.5874
20800SOL     OW61153   7.960   6.227   6.039  0.2510 -0.0575 -0.2542
20800SOL    HW161154   8.013   6.306   6.067 -0.6346  0.1377  0.9233
20800SOL    HW261155   7.988   6.147   6.092  0.8552 -0.4537 -1.1487
20801SOL     OW61156   1.665   4.721   2.925  0.3544  0.1554 -0.0946
20801SOL    HW161157   1.628   4.759   3.011  1.6224  0.1901  0.4523
20801SOL    HW261158   1.590   4.697   2.864 -0.5428  1.2221  0.5640
20802SOL     OW61159   5.975   1.242   1.826  0.2754  0.2567  0.0269
20802SOL    HW161160   5.906   1.282   1.767 -0.6536  0.6039  1.3289
20802SOL    HW261161   6.047   1.310   1.844 -0.9008  1.1228  1.5980
20803SOL     OW61162   1.054   7.809   6.244 -0.0697  0.4733  0.2973
20803SOL    HW161163   1.044   7.727   6.187 -1.7341  1.8895 -1.5243
20803SOL    HW261164   1.148   7.842   6.238  0.4588 -0.9322  0.5489
20804SOL     OW61165   0.289   3.762   1.182  0.1626  0.3845 -0.3913
20804SOL    HW161166   0.289   3.704   1.263  0.3295  1.0225  0.0752
20804SOL    HW261167   0.266   3.708   1.102  1.0209 -0.4704 -0.0763
20805SOL     OW61168   2.523   8.777   6.889  0.2335  0.2060 -0.0928
20805SOL    HW161169   2.445   8.791   6.829  1.2453  0.9487 -1.2657
20805SOL    HW261170   2.514   8.689   6.936 -0.5613 -0.3972 -1.3386
20807SOL     OW61171   7.022   1.200   4.227  0.7987  0.3603  0.0474
20807SOL    HW161172   7.003   1.205   4.128  1.1908 -0.5136 -0.0706
20807SOL    HW261173   6.935   1.205   4.277  0.7432  3.4286 -0.2243
20808SOL     OW61174   1.661   8.047   1.053 -0.0819 -0.3143  0.0922
20808SOL    HW161175   1.648   8.110   1.130  0.4336 -0.2116  0.0938
20808SOL    HW261176   1.594   7.974   1.059 -1.7715  1.1106 -0.8034
20809SOL     OW61177   0.253   2.671   5.044 -0.3444 -0.0364 -0.4900
20809SOL    HW161178   0.239   2.678   4.945  0.9670  2.7033 -0.5128
20809SOL    HW261179   0.348   2.645   5.062 -0.3595  0.2867  0.0583
20810SOL     OW61180   4.568   0.936   4.311 -0.0252 -0.4578  0.5098
20810SOL    HW161181   4.515   0.852   4.329  0.7383 -0.3797  3.4551
20810SOL    HW261182   4.561   0.997   4.390  1.7037  1.0520 -0.4640
20813SOL     OW61183   1.054   7.684   3.177  0.4967 -0.2330 -0.2483
20813SOL    HW161184   1.065   7.782   3.159  2.8220 -0.9326 -2.9890
20813SOL    HW261185   0.971   7.651   3.132  1.3434 -0.1054 -1.9305
20815SOL     OW61186   0.260   5.591   7.891  0.1401  0.4415  0.5063
20815SOL    HW161187   0.301   5.585   7.982  0.4332 -0.2233  0.3310
20815SOL    HW261188   0.315   5.540   7.825 -0.7165 -0.0807  0.1810
20816SOL     OW61189   6.136   7.984   4.876 -0.1191  0.1278 -0.3194
20816SOL    HW161190   6.068   8.050   4.907 -0.7330  0.3325 -2.0105
20816SOL    HW261191   6.147   7.912   4.945 -2.9925 -0.6022 -0.5245
20817SOL     OW61192   2.239   0.041   4.168  0.1634  0.7744  0.2098
20817SOL    HW161193   2.170   0.058   4.238 -1.4607  2.6483 -1.7613
20817SOL    HW261194   2.329   0.069   4.203 -0.0465 -1.4781  2.7145
20818SOL     OW61195   9.883   6.388   2.325  0.0320  0.0767 -0.5931
20818SOL    HW161196   9.918   6.435   2.244 -0.3458  0.1875 -0.6923
20818SOL    HW261197   9.893   6.447   2.405 -0.6596  0.4202 -0.7574
20819SOL     OW61198   0.499   6.201   0.495 -0.2032 -0.4592  0.5087
20819SOL    HW161199   0.492   6.300   0.504 -0.0874 -0.5458  1.6978
20819SOL    HW261200   0.513   6.161   0.586  2.6255 -1.3173 -0.2585
20820SOL     OW61201   7.051   6.002   1.701 -0.0195 -0.0567  0.1973
20820SOL    HW161202   7.127   5.995   1.765 -0.0602 -0.5932  0.1873
20820SOL    HW261203   6.982   5.933   1.723 -0.7408  0.7548  0.5235
20822SOL     OW61204   8.398   6.736   2.670 -0.2380  0.0005  0.4352
20822SOL    HW161205   8.418   6.709   2.576 -0.6218  1.0817  0.0421
20822SOL    HW261206   8.484   6.738   2.723  0.3188  1.7391 -0.5012
20823SOL     OW61207   9.172   2.574   4.889 -0.4072 -0.3574 -0.4969
20823SOL    HW161208   9.174   2.647   4.957  0.3053  0.1008 -1.0070
20823SOL    HW261209   9.232   2.500   4.919  0.3410  0.0838 -0.8868
20824SOL     OW61210   8.527   6.353   3.425 -0.1734  0.3971  0.3986
20824SOL    HW161211   8.499   6.426   3.363  0.8613  0.5662  0.1293
20824SOL    HW261212   8.605   6.383   3.480  0.6270 -0.6885 -0.1138
20825SOL     OW61213   1.620   8.245   0.056  0.1296  0.3268 -0.2461
20825SOL    HW161214   1.599   8.238  -0.041  0.4481 -1.2741 -0.2148
20825SOL    HW261215   1.536   8.250   0.109 -0.0680 -0.1374 -0.5158
20826SOL     OW61216   0.550   3.388   0.924  0.3143 -0.2404 -0.1880
20826SOL    HW161217   0.472   3.383   0.862  1.1994  1.5054 -1.4457
20826SOL    HW261218   0.559   3.481   0.960 -0.8819 -1.4397  3.5162
20827SOL     OW61219   5.802   0.950   1.068  0.1855 -0.5546  0.5192
20827SOL    HW161220   5.709   0.977   1.042  0.7745  0.7872 -0.2328
20827SOL    HW261221   5.868   1.012   1.025  1.2876  0.7239  3.8731
20828SOL     OW61222   1.541   5.772   7.339 -0.1454 -0.2778  0.1620
20828SOL    HW161223   1.504   5.686   7.374  0.9047 -0.5244  0.6848
20828SOL    HW261224   1.549   5.766   7.239  0.5686 -1.0587  0.2579
20830SOL     OW61225   5.859   4.601   7.802 -0.2226 -0.6208  0.0987
20830SOL    HW161226   5.766   4.596   7.765 -0.6217  1.1296  0.7970
20830SOL    HW261227   5.919   4.643   7.734 -0.4644  0.4525  0.5352
20831SOL     OW61228   5.022   1.319   7.536 -0.1544 -0.0589 -0.3140
20831SOL    HW161229   4.950   1.354   7.597  0.6114  1.1932 -0.1094
20831SOL    HW261230   5.111   1.353   7.568  0.6702 -2.5659  0.1479
20832SOL     OW61231   9.445   2.063   4.930 -0.0199  0.1417  0.2179
20832SOL    HW161232   9.414   2.009   4.852  1.3233  0.7487 -0.7643
20832SOL    HW261233   9.368   2.083   4.991 -0.8249 -1.4921 -0.2393
20833SOL     OW61234   7.963   8.750   5.256 -0.4820  0.0321 -0.1763
20833SOL    HW161235   7.909   8.667   5.270 -0.1714 -0.4316 -1.5910
20833SOL    HW261236   7.906   8.819   5.211 -0.8396  0.7162  1.3087
20834SOL     OW61237   4.169   4.336   6.810 -0.4059  0.3552 -0.1511
20834SOL    HW161238   4.163   4.240   6.839 -0.4341  0.6287  0.7560
20834SOL    HW261239   4.166   4.340   6.710  1.6393 -0.7579 -0.3053
20835SOL     OW61240   0.340   3.798   6.553 -0.1573  0.4296  0.3630
20835SOL    HW161241   0.430   3.811   6.593  0.5304  0.3083 -1.1070
20835SOL    HW261242   0.286   3.882   6.565 -0.0472  0.3068  1.7256
20836SOL     OW61243   2.919   8.702   0.627  0.1098  0.4729  0.7694
20836SOL    HW161244   2.914   8.602   0.619 -2.5459  0.7251 -1.2252
20836SOL    HW261245   2.947   8.741   0.540  2.1868  1.4709  1.8364
20838SOL     OW61246   2.738   3.724   7.079  0.6356 -0.1966 -0.5962
20838SOL    HW161247   2.668   3.662   7.114  0.6082 -0.7222 -1.5640
20838SOL    HW261248   2.737   3.809   7.132  0.2635 -0.7771  0.3438
20839SOL     OW61249   6.566   9.943   7.595 -1.3947  0.5912 -0.2458
20839SOL    HW161250   6.545   9.860   7.646  1.1957  0.6399  1.0143
20839SOL    HW261251   6.643   9.926   7.533 -2.3969  1.4159 -1.7420
20840SOL     OW61252   5.976   1.716   5.319 -0.5379 -0.0920 -0.0574
20840SOL    HW161253   5.996   1.710   5.417 -0.1613  0.4998 -0.0977
20840SOL    HW261254   6.051   1.674   5.268 -0.0573  0.8755 -0.1508
20841SOL     OW61255   6.112   8.450   2.933 -0.7334 -0.0789 -0.5923
20841SOL    HW161256   6.131   8.495   2.846  1.1538 -0.1191 -0.2228
20841SOL    HW261257   6.067   8.515   2.995  3.3078  1.8813  0.4669
20842SOL     OW61258   7.816   9.640   2.260  0.2726  0.0118 -0.5667
20842SOL    HW161259   7.810   9.633   2.359  0.8933  0.1624 -0.5163
20842SOL    HW261260   7.778   9.557   2.219 -3.4978  1.5539 -0.3317
20844SOL     OW61261   9.304   8.118   5.763 -0.5292 -0.5246 -0.5244
20844SOL    HW161262   9.372   8.054   5.728 -0.0450  0.4758 -1.4513
20844SOL    HW261263   9.212   8.082   5.747 -0.2351 -1.4298 -0.1561
20845SOL     OW61264   0.792   8.105   5.045 -0.1232  0.1878 -0.3467
20845SOL    HW161265   0.781   8.028   5.107 -0.0614 -0.0393 -0.6148
20845SOL    HW261266   0.797   8.071   4.951 -2.4576  0.6684 -0.6832
20846SOL     OW61267   7.664   4.732   3.246 -0.1553 -0.1937  0.7259
20846SOL    HW161268   7.617   4.806   3.198 -1.7103 -1.8953 -0.4455
20846SOL    HW261269   7.598   4.661   3.271  1.6543 -2.2501 -0.1957
20847SOL     OW61270   0.852   1.326   7.684 -0.1549  0.0969 -0.3903
20847SOL    HW161271   0.825   1.308   7.589 -1.9620  0.3848  0.0598
20847SOL    HW261272   0.894   1.417   7.689 -0.8736  0.4522 -0.7523
20848SOL     OW61273   7.220   4.358   2.660 -0.6731 -0.0313 -0.2011
20848SOL    HW161274   7.187   4.432   2.718 -1.7756  0.4711 -1.4442
20848SOL    HW261275   7.315   4.337   2.683  0.6362  3.7338 -1.7912
20849SOL     OW61276   3.837   7.503   0.522  0.2509 -1.0754 -0.1933
20849SOL    HW161277   3.755   7.537   0.567 -0.0550 -2.0538  0.0029
20849SOL    HW261278   3.814   7.424   0.465  0.3029  1.2158 -3.5155
20850SOL     OW61279   8.223   8.453   0.993  0.7498  0.1398  0.0338
20850SOL    HW161280   8.152   8.508   1.037  0.3214  0.0998 -0.6133
20850SOL    HW261281   8.183   8.398   0.920  1.6591  1.1323 -1.2359
20851SOL     OW61282   3.437   8.873   4.389  0.4735 -0.0872 -0.0096
20851SOL    HW161283   3.469   8.957   4.344 -0.7361 -0.5434 -1.7718
20851SOL    HW261284   3.513   8.808   4.397  1.1023  0.6649  0.1771
20852SOL     OW61285   1.543   7.713   4.459 -0.0386 -0.3372 -0.2122
20852SOL    HW161286   1.572   7.643   4.523 -2.2084 -1.6167 -0.5854
20852SOL    HW261287   1.604   7.792   4.467  1.8099 -1.8293  0.9349
20854SOL     OW61288   9.416   0.065   6.402  0.0313 -0.1826 -0.2495
20854SOL    HW161289   9.420   0.156   6.359  0.1516  0.1807  0.5173
20854SOL    HW261290   9.361   0.070   6.485  1.2532 -0.4768  0.5915
20855SOL     OW61291   8.465   1.300   5.312 -0.4258 -0.4143 -0.2818
20855SOL    HW161292   8.377   1.263   5.342 -0.9931  1.6302  0.6347
20855SOL    HW261293   8.495   1.251   5.230 -2.5787 -0.9084 -0.8077
20856SOL     OW61294   9.369   6.399   4.149  0.0370  0.1822  0.1919
20856SOL    HW161295   9.288   6.459   4.149 -0.0947  0.0313  1.7927
20856SOL    HW261296   9.394   6.376   4.055 -1.8521  0.1430 -0.3138
20857SOL     OW61297   9.770   5.097   6.435  0.0436  0.3933 -0.1001
20857SOL    HW161298   9.842   5.149   6.482 -0.1828  1.6232 -1.1029
20857SOL    HW261299   9.779   5.109   6.336 -1.5177  0.5276 -0.2315
20858SOL     OW61300   3.531   8.618   6.869 -0.6356  0.1364 -0.5084
20858SOL    HW161301   3.567   8.710   6.855  1.3949 -0.2551  1.7537
20858SOL    HW261302   3.466   8.618   6.945 -2.2106  0.0468 -1.8293
20860SOL     OW61303   1.707   3.440   5.343 -0.4170  0.3312 -0.6741
20860SOL    HW161304   1.634   3.372   5.333  0.0515 -0.0541 -1.6053
20860SOL    HW261305   1.705   3.502   5.264 -0.2156  0.7857 -0.3230
20861SOL     OW61306   7.168   8.247   7.929 -0.2728 -0.5279 -0.1474
20861SOL    HW161307   7.246   8.202   7.886  1.5416 -0.6932  3.1607
20861SOL    HW261308   7.189   8.344   7.942  0.6761 -1.1266  3.3903
20864SOL     OW61309   0.886   4.527   2.887 -0.0541 -0.3832 -0.0473
20864SOL    HW161310   0.893   4.600   2.955 -1.4730 -0.9268  0.6890
20864SOL    HW261311   0.791   4.498   2.878  0.6161 -2.8652  0.4264
20865SOL     OW61312   0.810   9.916   0.277  0.3720  0.3285  0.8122
20865SOL    HW161313   0.799   9.988   0.345  0.1460  2.5823 -1.5362
20865SOL    HW261314   0.896   9.929   0.228  1.0759 -1.9373  1.3834
20866SOL     OW61315   3.586   7.870   5.204  0.0349  0.1560 -0.2410
20866SOL    HW161316   3.566   7.968   5.214  0.4761  0.3658 -1.3731
20866SOL    HW261317   3.532   7.833   5.129  0.0326 -0.4264  0.0501
20867SOL     OW61318   5.986   0.832   3.204  0.1137 -0.3960  0.0588
20867SOL    HW161319   6.085   0.825   3.217  0.4383  1.1096 -1.4645
20867SOL    HW261320   5.967   0.867   3.113 -1.7330  2.2033  1.3838
20868SOL     OW61321   2.550   4.645   0.107  0.0113 -0.7410  0.2943
20868SOL    HW161322   2.475   4.636   0.173 -0.7035 -1.5359 -0.5961
20868SOL    HW261323   2.634   4.609   0.147  0.1903  1.2360  1.7338
20869SOL     OW61324   5.791   8.466   6.624  0.0337  0.2578 -0.1932
20869SOL    HW161325   5.781   8.371   6.652  1.9055  0.2417  0.4337
20869SOL    HW261326   5.771   8.474   6.526  0.6092 -0.9031 -0.4153
20870SOL     OW61327   8.791   8.435   5.762 -0.1075 -0.2458 -0.4725
20870SOL    HW161328   8.776   8.343   5.799  0.9175 -0.1698  0.1597
20870SOL    HW261329   8.882   8.467   5.789  0.2236  0.2597 -2.1583
20872SOL     OW61330   2.557   6.864   1.748 -0.2293  0.3188 -0.4983
20872SOL    HW161331   2.531   6.815   1.831 -1.1722 -0.6495 -1.3435
20872SOL    HW261332   2.618   6.806   1.693  0.4656  0.9895 -0.4452
20873SOL     OW61333   0.887   4.373   4.165 -0.0370 -0.2331 -0.3886
20873SOL    HW161334   0.983   4.345   4.157  0.3920  1.0381  0.1706
20873SOL    HW261335   0.854   4.403   4.075  0.1242 -0.5484 -0.5552
20874SOL     OW61336   8.523   1.569   7.565  0.2054  0.0535 -0.6104
20874SOL    HW161337   8.506   1.558   7.467  2.7106 -0.9888 -0.9759
20874SOL    HW261338   8.501   1.662   7.593 -0.1766  0.4660 -2.2394
20877SOL     OW61339   2.207   1.730   5.330  0.4038  0.7020 -0.1690
20877SOL    HW161340   2.187   1.748   5.234  0.3880  0.3188 -0.2367
20877SOL    HW261341   2.246   1.812   5.372  2.2482  0.2715 -0.9990
20878SOL     OW61342   2.070   4.336   5.236  0.1004 -0.0835 -0.0437
20878SOL    HW161343   2.074   4.382   5.147  1.8386  2.6145  1.3618
20878SOL    HW261344   2.161   4.337   5.278 -0.9170 -0.3372  2.2402
20879SOL     OW61345   0.088   9.309   7.278 -0.5550 -0.0910 -0.0048
20879SOL    HW161346  -0.009   9.328   7.265 -0.7445 -0.0324  1.3892
20879SOL    HW261347   0.109   9.216   7.248 -0.6986  0.4603 -1.8705
20881SOL     OW61348   6.200   2.233   0.438 -0.3056 -0.9996  0.0130
20881SOL    HW161349   6.153   2.152   0.403  2.1712 -2.8108  0.7962
20881SOL    HW261350   6.269   2.206   0.504  0.3337  1.8079  0.5547
20882SOL     OW61351   1.897   9.190   6.969 -0.2856  0.0149 -0.2832
20882SOL    HW161352   1.821   9.159   7.027  1.0565 -0.4791  1.2614
20882SOL    HW261353   1.957   9.249   7.022  1.0648 -0.5767 -1.1359
20883SOL     OW61354   3.221   7.865   4.394  0.1460  0.0829 -0.3577
20883SOL    HW161355   3.154   7.901   4.459  0.8381  0.5547  0.0907
20883SOL    HW261356   3.236   7.768   4.413 -0.5544 -0.0709 -0.5799
20884SOL     OW61357   2.446   3.420   2.338 -0.2788  0.9883 -0.1120
20884SOL    HW161358   2.358   3.446   2.298 -0.4376  0.5356 -0.0658
20884SOL    HW261359   2.517   3.482   2.306 -0.7918  1.9881  0.6554
20886SOL     OW61360   4.062   5.099   2.171  0.3345 -0.1564  0.1125
20886SOL    HW161361   4.084   5.123   2.266  0.7872 -0.5037  0.0986
20886SOL    HW261362   4.058   5.000   2.162 -2.0380 -0.0866  0.2795
20887SOL     OW61363   0.549   3.988   2.792 -0.5385  0.4293 -0.2179
20887SOL    HW161364   0.592   3.938   2.867  0.8854  0.2790 -1.1080
20887SOL    HW261365   0.603   4.070   2.772  0.5507 -0.8354 -2.7157
20888SOL     OW61366   5.505   9.604   6.143 -0.0997 -0.6593 -0.2295
20888SOL    HW161367   5.474   9.682   6.088  0.2150 -0.6647 -0.4178
20888SOL    HW261368   5.594   9.625   6.184  0.4899 -1.3183 -1.1421
20889SOL     OW61369   8.660   5.384   0.167 -0.9919 -0.3101 -0.4206
20889SOL    HW161370   8.638   5.319   0.094 -0.5170 -0.0821 -0.7640
20889SOL    HW261371   8.647   5.478   0.133  2.3964 -0.0959 -1.2482
20890SOL     OW61372   7.595   8.678   1.958  0.4296 -0.0193  0.2161
20890SOL    HW161373   7.552   8.590   1.934  0.4360 -0.1900  0.8303
20890SOL    HW261374   7.570   8.703   2.051  0.3208  0.7030 -0.0108
20891SOL     OW61375   3.479   8.025   4.679  0.4389  0.0205 -0.4031
20891SOL    HW161376   3.417   8.037   4.602  1.6399  2.8887 -0.9695
20891SOL    HW261377   3.573   8.026   4.647  0.9331  0.6683  1.0274
20892SOL     OW61378   8.979   1.828   2.176 -0.1898  0.3729 -0.5182
20892SOL    HW161379   8.912   1.815   2.103 -1.0518  0.3293  0.2732
20892SOL    HW261380   8.955   1.771   2.254 -0.0753  1.4792  0.3447
20895SOL     OW61381   0.085   9.165   4.533  0.0560 -0.5881  0.1323
20895SOL    HW161382   0.049   9.143   4.443 -0.6355 -0.1722  0.3062
20895SOL    HW261383   0.044   9.103   4.601 -0.2006 -0.2288  0.3048
20896SOL     OW61384   4.741   7.193   1.617 -0.0816 -0.1591 -0.4822
20896SOL    HW161385   4.788   7.229   1.698  0.1925 -2.9492  0.6695
20896SOL    HW261386   4.808   7.160   1.551 -0.3484  0.3079 -0.9948
20897SOL     OW61387   9.216   3.665   5.005  0.2734  0.3503  0.2349
20897SOL    HW161388   9.211   3.756   5.044  0.2408  0.1332  0.7388
20897SOL    HW261389   9.139   3.651   4.942 -1.3577 -0.3459  2.3425
20898SOL     OW61390   5.332   7.552   3.935 -0.1665 -0.0493 -0.0895
20898SOL    HW161391   5.250   7.568   3.880  0.8375  1.4916 -1.1771
20898SOL    HW261392   5.405   7.518   3.875 -0.0117 -1.4790  0.8874
20900SOL     OW61393   7.121   7.234   2.111 -0.1843  0.1650 -0.0427
20900SOL    HW161394   7.125   7.326   2.152  0.2002  0.2955 -0.3647
20900SOL    HW261395   7.134   7.241   2.013 -2.2112 -0.0473 -0.3416
20901SOL     OW61396   0.670   6.962   5.513 -0.4271 -0.2828 -0.0686
20901SOL    HW161397   0.584   6.916   5.535 -0.6467  0.6065  0.9371
20901SOL    HW261398   0.704   7.010   5.593 -1.0384  2.6921 -1.5013
20902SOL     OW61399   5.679   9.800   7.611  0.5385 -0.1314  0.7072
20902SOL    HW161400   5.621   9.718   7.602 -1.2241  0.9174  2.2508
20902SOL    HW261401   5.762   9.776   7.661  0.6794 -1.2805 -0.0481
20903SOL     OW61402   2.883   1.517   1.073 -0.2087 -0.4526 -0.0701
20903SOL    HW161403   2.857   1.424   1.046 -1.4958  0.3880 -1.7868
20903SOL    HW261404   2.800   1.571   1.088  0.5416  0.8774 -0.6622
20907SOL     OW61405   1.090   9.370   2.268  0.7527 -0.4079 -0.0265
20907SOL    HW161406   1.094   9.470   2.274  1.1308 -0.3563 -1.0138
20907SOL    HW261407   1.062   9.343   2.176 -2.9458 -1.1653  1.2479
20908SOL     OW61408   0.747   0.534   1.466 -0.4713  0.1177  0.0515
20908SOL    HW161409   0.687   0.461   1.499  0.6103 -0.4120  0.8839
20908SOL    HW261410   0.704   0.580   1.388 -1.9921 -0.1949  0.6822
20910SOL     OW61411   7.677   2.995   1.435 -0.0762 -0.4669 -0.4036
20910SOL    HW161412   7.643   2.963   1.346 -0.1990 -1.5583  0.0273
20910SOL    HW261413   7.618   2.960   1.508 -1.0979  2.0272 -0.0192
20911SOL     OW61414   1.682   0.001   4.350 -0.0415 -0.8574 -0.4494
20911SOL    HW161415   1.689   0.054   4.265  0.6505  0.9803  0.7200
20911SOL    HW261416   1.747   0.038   4.417 -1.0553 -1.8632  1.1047
20912SOL     OW61417   9.369   9.008   3.051  0.0015  0.8329  0.4996
20912SOL    HW161418   9.293   8.969   3.000 -1.1849  1.7465  1.5491
20912SOL    HW261419   9.385   8.953   3.133 -0.2002  1.2374  0.8097
20913SOL     OW61420   2.194   5.906   0.048  0.7740 -0.5841 -0.0887
20913SOL    HW161421   2.248   5.948   0.121  0.0627  0.7682 -0.3265
20913SOL    HW261422   2.215   5.951  -0.039  2.0385 -2.5589 -0.8440
20914SOL     OW61423   6.874   1.409   2.712 -0.1774 -0.7283  0.3678
20914SOL    HW161424   6.879   1.498   2.667 -2.1390 -0.2737  1.0253
20914SOL    HW261425   6.950   1.351   2.679  3.8590  2.6155  3.2242
20915SOL     OW61426   8.287   6.266   3.568  0.6400  0.4261  0.4404
20915SOL    HW161427   8.337   6.348   3.540  0.4192  0.6292  0.6382
20915SOL    HW261428   8.343   6.212   3.630  0.8806  0.3039  0.1147
20916SOL     OW61429   6.518   7.952   7.066  0.0519 -0.2477  0.0812
20916SOL    HW161430   6.566   7.920   6.985  0.4039 -0.9317  0.5611
20916SOL    HW261431   6.469   8.037   7.044  0.5134 -0.1847 -0.7184
20917SOL     OW61432   2.681   5.178   5.861  0.2850 -0.1974  0.3000
20917SOL    HW161433   2.735   5.095   5.853  0.3033 -0.0460 -1.2470
20917SOL    HW261434   2.642   5.184   5.953  2.1537 -0.7551  1.1328
20918SOL     OW61435   3.445   1.858   0.010  0.2106  0.2626 -0.3535
20918SOL    HW161436   3.426   1.927   0.080 -0.4167  0.7724 -1.0150
20918SOL    HW261437   3.522   1.801   0.039 -1.1092 -0.6263  1.5477
20919SOL     OW61438   0.416   6.040   3.839  0.5301  0.2976  0.1923
20919SOL    HW161439   0.394   6.114   3.902 -1.3843  0.0059 -0.0993
20919SOL    HW261440   0.477   5.975   3.883  1.1713  1.3516  0.8912
20920SOL     OW61441   4.430   4.960   2.559  0.1136  0.3628 -0.0642
20920SOL    HW161442   4.408   5.043   2.609  0.6027  1.0948 -1.0389
20920SOL    HW261443   4.485   4.983   2.478  1.1188 -1.0079  0.2074
20921SOL     OW61444   7.807   3.556   3.343  0.0582  0.3134  0.1837
20921SOL    HW161445   7.844   3.614   3.416 -1.7377 -0.3261  1.6430
20921SOL    HW261446   7.881   3.529   3.281  1.5736  1.0843  1.6066
20923SOL     OW61447   1.308   9.154   6.934 -0.3539 -0.4113  0.3287
20923SOL    HW161448   1.357   9.198   7.010 -0.4597 -1.1505  0.8319
20923SOL    HW261449   1.373   9.130   6.862 -0.1720 -0.1642  0.4099
20925SOL     OW61450   4.202   3.550   6.408  0.3458  0.2684  0.7857
20925SOL    HW161451   4.231   3.454   6.406  1.7578  0.6867  1.0489
20925SOL    HW261452   4.108   3.555   6.443  0.3508 -0.9945  1.0021
20926SOL     OW61453   9.814   0.900   4.278 -0.1038  0.0922  0.2031
20926SOL    HW161454   9.745   0.924   4.210 -0.2941 -0.1620  0.3062
20926SOL    HW261455   9.903   0.892   4.233 -0.6257 -2.4878 -0.4901
20927SOL     OW61456   0.999   1.291   1.256 -0.1228  0.1708 -0.4696
20927SOL    HW161457   1.040   1.304   1.166 -0.1928  1.0245 -0.3866
20927SOL    HW261458   0.923   1.355   1.267 -1.5319 -1.4542 -0.6569
20928SOL     OW61459   8.815   8.457   1.493  0.3989 -0.2650 -0.1426
20928SOL    HW161460   8.821   8.441   1.591  1.1647 -1.9597 -0.4640
20928SOL    HW261461   8.890   8.517   1.464  0.3771 -0.0529  0.2385
20930SOL     OW61462   1.959   7.947   6.642  0.2482 -0.4269 -0.3542
20930SOL    HW161463   1.926   7.906   6.728 -1.5859  1.0839 -0.2925
20930SOL    HW261464   2.027   8.017   6.663  1.8175 -1.9290 -0.3292
20931SOL     OW61465   0.039   5.855   0.752  0.7234  0.9426  0.1086
20931SOL    HW161466  -0.004   5.767   0.732  2.2328  0.3065 -0.4398
20931SOL    HW261467  -0.017   5.929   0.715  0.1094  0.1262 -0.6085
20932SOL     OW61468   3.831   6.541   1.024  0.8110 -0.2559 -0.0170
20932SOL    HW161469   3.876   6.613   0.972  0.0386  0.5291  0.3861
20932SOL    HW261470   3.745   6.575   1.061  0.5956 -1.2842  0.4636
20933SOL     OW61471   8.162   4.109   1.453 -0.3368 -0.1303  0.2596
20933SOL    HW161472   8.133   4.097   1.548 -0.4094  2.3574  0.5757
20933SOL    HW261473   8.084   4.092   1.393 -0.9183  0.6582  0.7780
20934SOL     OW61474   0.881   8.128   7.163  0.8367  0.2264 -0.4166
20934SOL    HW161475   0.831   8.148   7.079 -1.1599 -1.0415  0.4383
20934SOL    HW261476   0.890   8.212   7.216 -0.4984  0.4742 -0.5481
20935SOL     OW61477   7.775   6.250   1.522 -0.0348 -0.0711 -0.3838
20935SOL    HW161478   7.799   6.269   1.427 -1.3855  0.1456 -0.6885
20935SOL    HW261479   7.832   6.175   1.556  0.4967 -0.1103 -1.3346
20936SOL     OW61480   0.502   1.289   7.363 -0.2310 -0.2611 -0.2766
20936SOL    HW161481   0.552   1.262   7.281  0.3915 -1.1473  0.3764
20936SOL    HW261482   0.476   1.207   7.414 -1.7312  0.2289 -0.2454
20937SOL     OW61483   4.303   4.241   7.456 -0.3120  1.0794  0.4483
20937SOL    HW161484   4.335   4.295   7.379 -0.2565 -0.2564 -0.4751
20937SOL    HW261485   4.211   4.206   7.436  0.4448 -0.7841  0.2196
20938SOL     OW61486   4.624   1.660   7.143 -0.1726 -0.1887  0.3673
20938SOL    HW161487   4.549   1.633   7.203  0.6540  2.1195  2.5201
20938SOL    HW261488   4.644   1.757   7.156  3.0376 -0.7014 -0.3391
20939SOL     OW61489   7.855   7.754   4.564 -0.2719 -0.6178 -0.4756
20939SOL    HW161490   7.757   7.739   4.549 -0.2589 -2.2402  0.8848
20939SOL    HW261491   7.883   7.709   4.649  1.4879  0.5549 -0.4013
20940SOL     OW61492   8.678   7.443   2.549 -0.7662  0.2984  0.0396
20940SOL    HW161493   8.642   7.352   2.568 -0.9571  0.2774 -0.4263
20940SOL    HW261494   8.735   7.473   2.625 -1.4302  0.1617  0.5937
20942SOL     OW61495   9.765   8.619   3.333  0.3356  0.1473 -0.4490
20942SOL    HW161496   9.753   8.683   3.256  1.2418 -0.5027 -1.1433
20942SOL    HW261497   9.737   8.528   3.305 -1.7228  0.3802  0.8012
20943SOL     OW61498   9.989   7.095   4.095 -0.6175  0.2792 -0.1715
20943SOL    HW161499   9.991   7.102   3.996  3.9594 -1.0746 -0.3114
20943SOL    HW261500   9.939   7.173   4.134 -0.2488  2.1959 -3.4147
20944SOL     OW61501   2.212   6.510   2.352 -0.4550  0.4026  0.1232
20944SOL    HW161502   2.222   6.426   2.407  0.9435  1.5892  1.7360
20944SOL    HW261503   2.115   6.527   2.336 -0.8595 -0.4453  1.5231
20945SOL     OW61504   0.156   7.123   6.247  0.4129 -0.1904  0.3850
20945SOL    HW161505   0.114   7.136   6.337 -0.7522 -0.1921 -0.1430
20945SOL    HW261506   0.097   7.164   6.177  0.8543 -0.9917 -0.4639
20946SOL     OW61507   9.254   3.726   0.839  0.0366 -0.0305 -0.5065
20946SOL    HW161508   9.300   3.647   0.799  1.7055  0.8949 -0.4370
20946SOL    HW261509   9.183   3.759   0.777 -0.7594 -1.6343 -0.4891
20947SOL     OW61510   3.443   7.028   5.955 -0.1253 -0.6601 -0.1055
20947SOL    HW161511   3.388   7.111   5.948  1.6323  0.4417 -1.2081
20947SOL    HW261512   3.429   6.972   5.872  0.3306 -0.4307 -0.3378
20948SOL     OW61513   5.214   1.317   3.982 -0.6811  0.5337  0.3654
20948SOL    HW161514   5.254   1.264   4.057  1.5559 -0.3999 -1.4245
20948SOL    HW261515   5.135   1.369   4.016  0.3391  0.2130  3.3554
20949SOL     OW61516   3.538   1.086   3.659 -0.1873 -0.1012 -0.1328
20949SOL    HW161517   3.456   1.040   3.624 -0.5108 -0.1731  0.7100
20949SOL    HW261518   3.535   1.183   3.633  0.6982 -0.6154 -2.2655
20950SOL     OW61519   9.477   0.339   1.050  0.0582 -0.8033 -0.0626
20950SOL    HW161520   9.569   0.342   1.013 -0.7200 -0.7929 -2.0684
20950SOL    HW261521   9.479   0.358   1.148  2.2931 -2.0151  0.1298
20951SOL     OW61522   8.244   8.046   6.522  0.0475  0.1270 -0.3821
20951SOL    HW161523   8.338   8.068   6.498  0.1233 -0.5849 -0.7818
20951SOL    HW261524   8.202   8.122   6.570  1.0233  0.2048  0.3443
20952SOL     OW61525   5.185   2.465   1.208  0.2851  0.3539 -0.1328
20952SOL    HW161526   5.178   2.474   1.307  1.7333 -0.3921  0.0360
20952SOL    HW261527   5.265   2.410   1.184  0.0035  0.6052 -1.7189
20953SOL     OW61528   0.356   9.281   2.627 -0.1165  0.6689  0.1892
20953SOL    HW161529   0.279   9.257   2.567 -0.1916  1.5757 -0.0842
20953SOL    HW261530   0.351   9.225   2.710 -0.7088  0.2683 -0.1066
20954SOL     OW61531   0.523   5.284   6.408 -0.2986  0.5464  0.0419
20954SOL    HW161532   0.586   5.253   6.480  0.0658  0.4604 -0.3165
20954SOL    HW261533   0.517   5.384   6.410  0.9049  0.6496 -0.8063
20955SOL     OW61534   0.171   2.118   3.662  0.3830 -0.6215 -0.3930
20955SOL    HW161535   0.251   2.142   3.717  0.6325 -0.5095 -0.7990
20955SOL    HW261536   0.100   2.079   3.721 -0.2549  1.6145  0.3890
20956SOL     OW61537   6.146   1.209   4.285 -0.2021  0.0242  0.0513
20956SOL    HW161538   6.159   1.134   4.220  0.1180  1.2900 -1.3838
20956SOL    HW261539   6.055   1.249   4.271  0.3270  1.0640 -0.4396
20957SOL     OW61540   3.870   0.987   3.944  0.2592  0.2389 -0.3951
20957SOL    HW161541   3.868   0.910   3.880 -0.2281 -1.3301  1.4503
20957SOL    HW261542   3.778   1.025   3.952 -0.0295 -0.6445  0.6144
20958SOL     OW61543   3.954   4.496   5.988 -0.3996  0.7346 -0.0970
20958SOL    HW161544   3.887   4.441   5.939 -0.2265  0.6379 -0.2248
20958SOL    HW261545   3.991   4.443   6.065 -1.0708  1.0771  0.4691
20959SOL     OW61546   5.332   0.954   6.585 -0.0623 -0.8532  0.1120
20959SOL    HW161547   5.294   0.991   6.670 -0.7452  0.4245 -0.7157
20959SOL    HW261548   5.423   0.993   6.570 -0.0195 -0.9308  0.1787
20961SOL     OW61549   9.918   2.355   3.621 -0.0569  0.1570 -0.4248
20961SOL    HW161550   9.952   2.271   3.580 -1.6600 -0.0410 -1.3987
20961SOL    HW261551   9.994   2.407   3.660  1.6411  0.8126 -4.4577
20962SOL     OW61552   2.340   3.477   5.476  0.6034 -0.8580  0.2069
20962SOL    HW161553   2.250   3.456   5.513 -0.2785  0.4977 -1.1021
20962SOL    HW261554   2.333   3.493   5.378  1.9595  1.0267  0.3862
20964SOL     OW61555   0.686   0.915   7.343  0.0334 -0.3257  0.3730
20964SOL    HW161556   0.658   0.940   7.251  0.2818 -0.0037  0.3827
20964SOL    HW261557   0.605   0.900   7.400 -0.1169 -0.9428 -0.0085
20965SOL     OW61558   2.175   5.364   7.545 -0.7012 -0.0192 -0.4072
20965SOL    HW161559   2.213   5.393   7.632 -2.7187 -0.5040  0.6776
20965SOL    HW261560   2.152   5.444   7.490 -0.0369  0.2954 -0.2269
20966SOL     OW61561   3.291   9.111   2.100  0.2292 -0.6955  0.2184
20966SOL    HW161562   3.334   9.021   2.112 -1.9773 -1.7073  0.6931
20966SOL    HW261563   3.351   9.182   2.139  1.9611 -1.9349 -0.1026
20968SOL     OW61564   0.247   7.526   0.011  0.8453 -0.1502 -0.3944
20968SOL    HW161565   0.319   7.525  -0.058  0.0510 -4.7451 -1.3632
20968SOL    HW261566   0.163   7.564  -0.029  1.5931  1.3398 -0.5587
20969SOL     OW61567   3.105   7.709   6.477  0.0280  0.4019 -0.4674
20969SOL    HW161568   3.014   7.678   6.505  0.5691  0.1927  1.0974
20969SOL    HW261569   3.108   7.809   6.481 -0.0517  0.3975 -0.2889
20970SOL     OW61570   5.498   9.741   7.189  0.0046 -0.0429 -0.1136
20970SOL    HW161571   5.552   9.734   7.273 -1.4240 -0.7341  0.7652
20970SOL    HW261572   5.549   9.700   7.114  0.0662 -2.0851  1.0124
20972SOL     OW61573   9.093   9.247   3.559 -0.0877 -0.4987  0.2934
20972SOL    HW161574   9.110   9.326   3.617  0.6120 -0.1286 -0.4086
20972SOL    HW261575   8.995   9.242   3.538  0.0383  0.9223 -0.7055
20973SOL     OW61576   8.735   2.173   1.159 -0.1575 -0.0847  0.0729
20973SOL    HW161577   8.688   2.085   1.147 -0.3714 -0.0663  0.7749
20973SOL    HW261578   8.743   2.218   1.070  0.2976 -0.9850 -0.3509
20974SOL     OW61579   0.198   2.996   0.890 -0.1448 -0.0852  0.8635
20974SOL    HW161580   0.154   2.921   0.840 -0.5404  0.7337 -0.0316
20974SOL    HW261581   0.142   3.021   0.969  1.1726 -2.3218  2.5687
20975SOL     OW61582   6.834   3.321   1.674  0.6081 -0.3873  0.5258
20975SOL    HW161583   6.769   3.281   1.737 -0.2995 -1.2244 -0.9176
20975SOL    HW261584   6.801   3.312   1.580  1.4471  1.7178 -0.0281
20976SOL     OW61585   8.739   7.028   7.363 -0.8169 -0.1287 -0.3904
20976SOL    HW161586   8.725   6.929   7.351  1.3237 -0.7348  1.7931
20976SOL    HW261587   8.792   7.044   7.446 -1.5048  2.9114 -0.5004
20977SOL     OW61588   5.527   0.232   5.011 -0.0993 -0.8693 -0.3936
20977SOL    HW161589   5.440   0.236   5.060  1.5666  0.1667  2.5712
20977SOL    HW261590   5.547   0.321   4.971  0.6005 -0.5058  0.7485
20978SOL     OW61591   7.579   2.739   4.109  0.2497  0.3710  0.3633
20978SOL    HW161592   7.539   2.830   4.098 -0.1896  0.1136 -0.1954
20978SOL    HW261593   7.533   2.692   4.184  0.6191  0.6818  0.7915
20980SOL     OW61594   6.871   8.619   6.413  0.1322 -0.1322  0.2683
20980SOL    HW161595   6.880   8.537   6.356  0.7802 -0.6636  1.1303
20980SOL    HW261596   6.775   8.632   6.437  0.1482 -1.1967  0.9358
20981SOL     OW61597   9.605   7.304   0.056 -0.6657 -0.0955 -0.2962
20981SOL    HW161598   9.625   7.208   0.039 -1.3622 -0.3609  0.3741
20981SOL    HW261599   9.688   7.349   0.092 -0.1589 -0.2901 -1.2075
20982SOL     OW61600   1.429   4.130   5.381 -0.5691  0.4788  0.0169
20982SOL    HW161601   1.352   4.105   5.440 -0.1546  1.9592  1.2330
20982SOL    HW261602   1.514   4.120   5.432 -0.1113  0.6891 -0.7012
20983SOL     OW61603   1.271   2.958   5.191 -0.5497  0.2749  0.3547
20983SOL    HW161604   1.354   2.962   5.134  0.2483  0.0604  1.4885
20983SOL    HW261605   1.238   3.050   5.208 -0.1209  0.4030  0.5009
20986SOL     OW61606   8.433   0.449   4.354 -0.6215 -0.5457 -0.3816
20986SOL    HW161607   8.399   0.502   4.276 -1.7199  3.0380  2.4008
20986SOL    HW261608   8.356   0.414   4.407  0.0390  0.3474  1.2190
20987SOL     OW61609   2.186   7.042   5.249  0.0815  0.4640  0.4542
20987SOL    HW161610   2.190   7.121   5.189 -1.5779 -1.5189 -2.4057
20987SOL    HW261611   2.094   7.003   5.247  0.3420 -0.4703  3.2833
20988SOL     OW61612   2.108   1.484   0.602  0.0361 -0.4447 -0.1547
20988SOL    HW161613   2.014   1.465   0.572 -0.2801  2.6445 -1.3123
20988SOL    HW261614   2.107   1.558   0.669  1.7773  1.2567 -1.9247
20989SOL     OW61615   1.405   1.108   7.381  0.5285 -0.5372 -0.2007
20989SOL    HW161616   1.389   1.162   7.464 -0.0125  0.2988 -0.8485
20989SOL    HW261617   1.458   1.162   7.316 -0.5459 -0.5594 -1.1035
20990SOL     OW61618   5.522   6.490   0.220 -0.1684 -0.2931  0.0965
20990SOL    HW161619   5.565   6.577   0.196 -1.4522  0.5543  0.8221
20990SOL    HW261620   5.552   6.419   0.156  0.1284  0.8940 -1.1016
20992SOL     OW61621   0.991   8.567   2.568  0.3565  0.2910  0.2517
20992SOL    HW161622   1.033   8.574   2.658  0.4944 -1.3562  0.3371
20992SOL    HW261623   0.911   8.507   2.573  1.0960 -0.8298 -0.9509
20993SOL     OW61624   5.713   8.477   5.379 -0.2331 -0.5271  0.0823
20993SOL    HW161625   5.747   8.567   5.405 -0.7717  0.1616 -1.5434
20993SOL    HW261626   5.616   8.470   5.400 -0.5268 -0.1919 -1.1243
20994SOL     OW61627   0.578   8.064   2.622 -0.0757  0.3266  0.2706
20994SOL    HW161628   0.573   8.143   2.560 -0.3735 -0.5384 -0.8143
20994SOL    HW261629   0.561   8.095   2.716  1.0753  1.7699  0.0298
20995SOL     OW61630   3.369   5.892   7.920  0.5612  0.3331  0.1160
20995SOL    HW161631   3.332   5.807   7.882 -1.5946  0.9558  0.7275
20995SOL    HW261632   3.301   5.933   7.981  1.9909  1.9669  0.6542
20996SOL     OW61633   7.534   3.919   7.823 -0.1169 -0.1559  0.9631
20996SOL    HW161634   7.499   3.854   7.756  0.3712  1.0434 -0.5048
20996SOL    HW261635   7.577   3.996   7.775 -1.4457  1.6755  2.6311
20997SOL     OW61636   1.413   0.952   5.309  0.2038  0.3447 -0.2918
20997SOL    HW161637   1.326   0.964   5.357 -0.3027 -0.6012 -0.9584
20997SOL    HW261638   1.442   0.857   5.315  1.5915  0.7987  0.5704
20998SOL     OW61639   9.029   1.398   1.421 -0.1167 -0.9286 -0.4524
20998SOL    HW161640   9.089   1.477   1.409 -1.8397  0.4989  0.1377
20998SOL    HW261641   9.079   1.314   1.397  2.6707  0.0192  1.7150
21000SOL     OW61642   5.076   9.879   4.564  0.1447  0.0918  0.2880
21000SOL    HW161643   5.094   9.827   4.648 -3.3817 -1.0242  0.4499
21000SOL    HW261644   5.108   9.973   4.576  3.0638 -1.0077  1.4580
21001SOL     OW61645   4.071   5.839   2.548 -0.3570 -0.1845  0.4208
21001SOL    HW161646   4.057   5.748   2.586  2.4219 -0.4688  0.8877
21001SOL    HW261647   4.054   5.838   2.449  0.1156 -1.3036  0.3529
21002SOL     OW61648   6.491   9.183   3.630  0.1295  0.8458 -0.1952
21002SOL    HW161649   6.527   9.208   3.720 -1.0595  1.3300  0.1583
21002SOL    HW261650   6.422   9.250   3.602 -0.3405  0.0558 -0.9515
21003SOL     OW61651   8.513   1.154   4.240 -0.1054 -0.2157  0.4340
21003SOL    HW161652   8.545   1.066   4.275  2.1131  0.3457 -0.0716
21003SOL    HW261653   8.458   1.200   4.310 -4.1023 -3.3933 -0.4701
21004SOL     OW61654   8.396   3.442   7.297  0.2457 -0.5297 -0.0137
21004SOL    HW161655   8.470   3.489   7.345  0.2549 -0.1301 -0.4169
21004SOL    HW261656   8.418   3.344   7.291  0.4431 -0.5168  0.4193
21005SOL     OW61657   8.792   9.643   0.478 -0.4196  0.1054 -0.3560
21005SOL    HW161658   8.772   9.741   0.474  0.5914  0.2566 -2.3339
21005SOL    HW261659   8.714   9.591   0.444  0.0694  0.3753 -1.9203
21008SOL     OW61660   1.920   5.858   2.411 -0.4570  0.0157 -0.0513
21008SOL    HW161661   1.962   5.930   2.467  1.1934 -0.6057 -0.4682
21008SOL    HW261662   1.982   5.834   2.336 -1.7354 -0.6578 -0.9074
21009SOL     OW61663   2.345   3.955   7.061  0.6171 -1.1919  0.4562
21009SOL    HW161664   2.281   4.017   7.106 -0.1405 -1.5020 -0.2002
21009SOL    HW261665   2.434   4.000   7.053 -0.5907  0.8432 -2.3249
21011SOL     OW61666   3.375   5.029   5.241 -0.1346 -0.2877  0.3779
21011SOL    HW161667   3.292   5.078   5.214 -0.0513  0.6840  1.8043
21011SOL    HW261668   3.395   5.049   5.337  2.7542  0.9305 -0.4245
21013SOL     OW61669   1.966   2.691   3.893  0.0302 -0.5925 -0.2377
21013SOL    HW161670   1.964   2.781   3.938 -1.4014 -0.4007 -0.6824
21013SOL    HW261671   1.999   2.623   3.958  2.6205  0.4887 -0.3347
21015SOL     OW61672   5.330   1.051   5.574  0.4574  0.1228  0.1286
21015SOL    HW161673   5.346   1.079   5.479 -2.2366  2.3512  0.2640
21015SOL    HW261674   5.234   1.025   5.584  0.3629  1.3254  2.5870
21016SOL     OW61675   9.227   3.992   6.222 -0.6276  0.1227 -0.2574
21016SOL    HW161676   9.258   4.085   6.202 -1.1198  0.4704  0.5840
21016SOL    HW261677   9.304   3.930   6.216  0.3067  1.0136  2.0512
21018SOL     OW61678   7.510   7.647   5.361  0.1823 -0.6383 -0.2147
21018SOL    HW161679   7.461   7.560   5.347 -0.2596 -0.1504 -1.7920
21018SOL    HW261680   7.445   7.723   5.356  1.0010 -0.0239 -1.7969
21022SOL     OW61681   7.833   2.703   4.907 -0.3644 -0.1777  0.5320
21022SOL    HW161682   7.854   2.608   4.931 -0.0836 -0.3342 -0.3285
21022SOL    HW261683   7.784   2.705   4.820 -0.8066  0.4378  0.7942
21023SOL     OW61684   7.648   7.570   0.866 -0.2325 -0.6022  0.2138
21023SOL    HW161685   7.668   7.531   0.777  3.6970 -0.7262  1.0819
21023SOL    HW261686   7.655   7.670   0.862  1.7929 -0.6957  0.7473
21024SOL     OW61687   3.029   8.727   2.139  0.0489 -0.1556  0.5436
21024SOL    HW161688   3.014   8.750   2.042 -0.0984 -1.9498  0.1243
21024SOL    HW261689   2.958   8.770   2.195 -0.4892  0.0172 -0.2645
21025SOL     OW61690   9.250   9.284   4.527  0.2873  0.1339 -0.0564
21025SOL    HW161691   9.306   9.283   4.444  0.1597 -0.6426 -0.1344
21025SOL    HW261692   9.304   9.252   4.604 -0.2031 -1.1401 -0.2327
21026SOL     OW61693   0.250   9.284   6.120 -0.0454  0.2120 -0.0622
21026SOL    HW161694   0.203   9.201   6.149  0.7446 -0.5151 -0.8187
21026SOL    HW261695   0.184   9.359   6.113 -0.8941 -0.5229 -0.0802
21028SOL     OW61696   4.555   8.067   3.809  0.7542 -0.4618 -0.0694
21028SOL    HW161697   4.607   8.118   3.878  1.1175 -0.9355  0.0076
21028SOL    HW261698   4.596   8.082   3.719  0.7867 -0.5185 -0.0638
21029SOL     OW61699   4.216   0.231   3.324 -0.3962 -0.2197 -0.0305
21029SOL    HW161700   4.243   0.324   3.348 -1.4335 -0.2919  1.4551
21029SOL    HW261701   4.125   0.232   3.282  0.0494 -0.4530 -1.0210
21030SOL     OW61702   8.918   7.746   5.619  0.1500  0.5044 -0.5249
21030SOL    HW161703   9.015   7.738   5.595  0.1609  1.1309 -0.7007
21030SOL    HW261704   8.872   7.804   5.552 -0.6838 -1.0841 -1.3622
21031SOL     OW61705   1.279   9.145   5.474 -0.0683 -0.2689 -0.0066
21031SOL    HW161706   1.322   9.230   5.504  1.3122 -0.5219 -1.1986
21031SOL    HW261707   1.200   9.125   5.532 -1.0801  2.3958 -0.3958
21032SOL     OW61708   7.379   5.626   7.935 -0.2085 -0.0504  0.4888
21032SOL    HW161709   7.366   5.703   7.872  1.2582 -0.9815 -0.9800
21032SOL    HW261710   7.476   5.612   7.951 -0.5185 -0.7634  1.8130
21033SOL     OW61711   0.965   8.661   5.203 -0.3910 -0.1803 -0.0005
21033SOL    HW161712   0.921   8.579   5.167 -1.1436  0.0982  0.2747
21033SOL    HW261713   0.903   8.707   5.266  0.8593 -0.5657  1.5384
21034SOL     OW61714   3.631   2.886   7.864  0.5559  0.0221 -0.3285
21034SOL    HW161715   3.588   2.800   7.895  0.0377 -0.7565 -3.0612
21034SOL    HW261716   3.730   2.879   7.874  0.4131 -0.2312  1.0340
21036SOL     OW61717   0.396   5.108   0.429 -0.1209  0.0421 -0.4301
21036SOL    HW161718   0.343   5.177   0.379  1.2226 -0.0505 -2.0237
21036SOL    HW261719   0.492   5.115   0.403  0.4345 -0.7521  1.3482
21038SOL     OW61720   6.185   3.511   1.175 -0.0663 -0.5265  0.1625
21038SOL    HW161721   6.172   3.457   1.258  0.4483 -1.7795 -0.5711
21038SOL    HW261722   6.187   3.451   1.096  1.9705  0.4303 -0.5350
21039SOL     OW61723   8.065   5.631   6.482  0.0785  0.1945 -0.1238
21039SOL    HW161724   8.063   5.545   6.533 -0.9926  0.3590  0.1113
21039SOL    HW261725   8.149   5.635   6.428  0.5472 -0.6125  0.5245
21040SOL     OW61726   9.072   5.153   3.994  0.0110 -0.3461  0.9055
21040SOL    HW161727   9.102   5.233   3.942 -0.4430 -0.8278 -0.1086
21040SOL    HW261728   8.986   5.174   4.041  1.3058  0.6592  2.8920
21042SOL     OW61729   3.077   8.834   6.193  0.3833  0.4883 -0.2330
21042SOL    HW161730   3.026   8.799   6.115  0.0097  1.0476 -0.2430
21042SOL    HW261731   3.167   8.866   6.163  0.5510 -0.0399 -0.2970
21044SOL     OW61732   0.606   1.317   3.058  0.2800  0.2591  0.3331
21044SOL    HW161733   0.615   1.395   2.996  0.1647  0.3159  0.3887
21044SOL    HW261734   0.697   1.291   3.092  0.6597 -1.4290 -1.8925
21045SOL     OW61735   9.450   2.913   0.603 -0.3873  0.1366  0.5211
21045SOL    HW161736   9.529   2.878   0.553 -0.9263  0.6498 -0.7125
21045SOL    HW261737   9.481   2.975   0.676  0.4517 -1.3387  1.4483
21046SOL     OW61738   2.280   2.104   6.191 -0.5037  0.1767  0.2366
21046SOL    HW161739   2.213   2.066   6.127 -1.6978  1.9473  0.3933
21046SOL    HW261740   2.238   2.113   6.282 -0.2104  1.6866  0.2387
21047SOL     OW61741   5.252   7.815   4.772  0.6307  0.7993 -0.0182
21047SOL    HW161742   5.321   7.817   4.845  1.2879  0.7430 -0.6294
21047SOL    HW261743   5.292   7.776   4.689 -0.6129 -0.7490  0.0915
21048SOL     OW61744   1.837   1.230   5.674 -0.0851 -0.3201 -0.4456
21048SOL    HW161745   1.745   1.266   5.666  0.2108  0.2768 -1.2117
21048SOL    HW261746   1.882   1.268   5.755 -0.4518 -0.5037 -0.1527
21051SOL     OW61747   6.325   1.397   5.085 -0.6290 -0.1887  0.0881
21051SOL    HW161748   6.324   1.314   5.140 -1.2871 -0.5199 -0.4193
21051SOL    HW261749   6.269   1.384   5.003  0.7316  0.1297 -0.9026
21052SOL     OW61750   9.328   4.455   7.260  0.6921  0.1486 -0.4401
21052SOL    HW161751   9.380   4.401   7.193 -1.7928 -1.7788 -0.9019
21052SOL    HW261752   9.232   4.458   7.233  0.4656  3.4251  0.5402
21053SOL     OW61753   8.140   3.840   7.067  0.0250  0.3527  0.0352
21053SOL    HW161754   8.131   3.754   7.017  0.1156 -0.3017  1.1331
21053SOL    HW261755   8.211   3.832   7.136 -0.0364  1.2799  0.2183
21054SOL     OW61756   1.155   4.276   6.970 -0.3323 -0.0278 -0.2891
21054SOL    HW161757   1.101   4.339   7.027 -1.4831 -0.4893 -0.8633
21054SOL    HW261758   1.139   4.182   7.000  2.8659  0.0268  1.8383
21055SOL     OW61759   3.266   7.478   3.919  0.0539  0.6329 -0.0142
21055SOL    HW161760   3.229   7.570   3.930 -0.2172  0.7856 -2.0695
21055SOL    HW261761   3.197   7.419   3.877  1.2441  0.2852 -1.5485
21056SOL     OW61762   9.689   1.998   6.181 -0.3916  0.0971  0.2057
21056SOL    HW161763   9.607   2.011   6.237  1.6244  0.0441  3.2715
21056SOL    HW261764   9.739   2.084   6.174  0.7883 -0.5266  0.8238
21057SOL     OW61765   8.316   0.364   0.935  0.5585  0.0489  0.2510
21057SOL    HW161766   8.373   0.434   0.891  0.5454 -0.6499 -0.8956
21057SOL    HW261767   8.364   0.328   1.014  1.8514 -0.7184 -0.8509
21058SOL     OW61768   3.906   4.060   1.014 -0.9678 -0.1594  0.3310
21058SOL    HW161769   3.951   4.119   0.947  1.1529 -0.4919  1.4036
21058SOL    HW261770   3.973   4.031   1.082 -2.9039 -0.4847  2.1375
21059SOL     OW61771   1.869   9.465   0.984  0.5545 -0.8045 -0.3067
21059SOL    HW161772   1.898   9.530   1.054 -0.8609 -0.1765 -0.2925
21059SOL    HW261773   1.926   9.476   0.902  1.4842 -0.7822  0.3356
21060SOL     OW61774   1.581   6.191   2.260  0.1612 -0.6684  0.3698
21060SOL    HW161775   1.528   6.146   2.333 -0.6545 -0.4837 -0.1097
21060SOL    HW261776   1.527   6.195   2.177  1.5765 -2.0824 -0.6603
21061SOL     OW61777   6.867   4.510   1.887  0.6727  0.0421  0.3786
21061SOL    HW161778   6.887   4.529   1.791  0.8824  2.6766  0.9001
21061SOL    HW261779   6.875   4.595   1.940 -0.8037 -1.0975  2.4960
21062SOL     OW61780   1.247   0.115   7.585  0.0855  0.0930 -0.1359
21062SOL    HW161781   1.185   0.132   7.509  0.3539  0.4813 -0.2674
21062SOL    HW261782   1.328   0.173   7.576  1.7588 -2.3288 -1.4336
21063SOL     OW61783   8.921   0.421   2.422  0.1764 -0.1721 -0.8011
21063SOL    HW161784   8.861   0.426   2.342 -0.3764 -0.2711 -0.3901
21063SOL    HW261785   8.882   0.474   2.497  0.0652 -1.1255 -0.1865
21064SOL     OW61786   6.121   3.247   1.344  0.2587  0.2605  0.3400
21064SOL    HW161787   6.038   3.263   1.397  0.8878 -2.0157  2.0847
21064SOL    HW261788   6.104   3.266   1.247 -1.7341  1.6333  0.9376
21065SOL     OW61789   4.709   1.375   6.286 -0.0666 -0.0918 -0.2350
21065SOL    HW161790   4.658   1.366   6.371 -0.7791 -1.4441 -0.7840
21065SOL    HW261791   4.664   1.440   6.225  0.9556  1.5889  0.7784
21066SOL     OW61792   0.664   2.509   2.896  0.1167  0.0592  0.1120
21066SOL    HW161793   0.663   2.581   2.827 -0.9319 -0.0349  0.0238
21066SOL    HW261794   0.641   2.549   2.985  1.8408  0.2522  0.4913
21067SOL     OW61795   8.979   3.346   1.532 -0.0585  0.0772  0.5111
21067SOL    HW161796   9.063   3.302   1.565  0.5024  0.2135 -0.7119
21067SOL    HW261797   8.942   3.294   1.455 -0.7848  0.3445  0.6694
21068SOL     OW61798   4.210   4.694   5.507 -0.1746  0.1522 -0.8586
21068SOL    HW161799   4.153   4.680   5.426 -1.3317 -0.0634 -0.0315
21068SOL    HW261800   4.305   4.672   5.486 -0.7031 -1.3586 -1.7408
21069SOL     OW61801   7.187   7.312   1.840 -0.4156 -0.4539  0.2941
21069SOL    HW161802   7.137   7.397   1.826  0.1002 -0.3066 -0.6604
21069SOL    HW261803   7.243   7.292   1.760  0.3873 -1.0750  0.9948
21070SOL     OW61804   6.470   8.243   5.640  0.4925  0.1302  0.2428
21070SOL    HW161805   6.568   8.254   5.656  0.5432  1.4089 -0.8564
21070SOL    HW261806   6.421   8.318   5.683 -0.1894 -1.5265  2.4241
21071SOL     OW61807   3.004   4.585   1.896 -0.2048 -0.1107  0.1770
21071SOL    HW161808   3.090   4.637   1.894 -0.0505 -0.3963 -1.0236
21071SOL    HW261809   2.960   4.598   1.985  0.8532  0.4024  0.6442
21072SOL     OW61810   8.198   1.017   6.693  0.2990 -0.2186  0.1428
21072SOL    HW161811   8.203   1.085   6.767  0.3915 -0.7375  0.6196
21072SOL    HW261812   8.127   0.950   6.714 -0.1820  0.0577 -0.6054
21074SOL     OW61813   4.166   8.234   5.781  0.0736 -0.0776  0.4602
21074SOL    HW161814   4.156   8.240   5.682 -1.2359 -1.5691  0.4991
21074SOL    HW261815   4.222   8.311   5.813  0.4232  0.4673 -1.4095
21075SOL     OW61816   6.439   2.100   5.093 -0.6958 -0.1472  0.5327
21075SOL    HW161817   6.353   2.066   5.131 -0.8746  0.3226  0.5455
21075SOL    HW261818   6.424   2.187   5.047 -0.3621 -0.4048 -0.0843
21077SOL     OW61819   2.342   8.142   7.931  0.6969 -0.3018  0.2992
21077SOL    HW161820   2.309   8.232   7.962  0.2268 -0.3269 -0.1090
21077SOL    HW261821   2.378   8.091   8.009  1.1898  0.3355  0.4964
21078SOL     OW61822   4.138   8.481   6.952  0.4096  0.5919 -0.5576
21078SOL    HW161823   4.119   8.578   6.934 -0.6742  0.2359 -1.4004
21078SOL    HW261824   4.160   8.435   6.866  1.4270  0.1925 -0.0884
21079SOL     OW61825   0.820   5.094   7.666  0.3316 -0.0283  0.1399
21079SOL    HW161826   0.887   5.094   7.740  0.5806  0.8654 -0.0783
21079SOL    HW261827   0.748   5.027   7.686  1.3414 -1.0795  0.3200
21081SOL     OW61828   9.467   7.399   1.357  0.0121  0.0505 -0.2790
21081SOL    HW161829   9.493   7.304   1.339  1.9523  0.5259 -0.1359
21081SOL    HW261830   9.466   7.450   1.271  0.9691  0.3553 -0.1197
21082SOL     OW61831   8.821   8.581   4.234  0.4291 -0.1590 -0.5148
21082SOL    HW161832   8.765   8.604   4.314 -0.0826 -1.4950 -0.4796
21082SOL    HW261833   8.762   8.557   4.157  0.9316 -0.1460 -0.9080
21083SOL     OW61834   2.362   1.434   2.207 -0.5719  0.1027 -0.3239
21083SOL    HW161835   2.367   1.479   2.117  1.5914  0.0806 -0.2420
21083SOL    HW261836   2.449   1.388   2.226 -1.5474 -1.1709  1.1296
21084SOL     OW61837   9.065   4.882   7.552  0.3919 -0.1232 -0.7886
21084SOL    HW161838   9.068   4.979   7.525  1.1804 -0.4838 -2.0670
21084SOL    HW261839   9.010   4.831   7.486 -0.0378 -0.5467 -0.1065
21085SOL     OW61840   8.412   6.381   6.062 -0.7436 -0.4626  0.2134
21085SOL    HW161841   8.394   6.418   6.153  0.1619  0.3339  0.0695
21085SOL    HW261842   8.452   6.452   6.004  1.2412 -1.7232  0.0074
21087SOL     OW61843   9.982   3.409   3.098 -0.3137  0.6304 -0.0950
21087SOL    HW161844   9.927   3.343   3.046  0.0947 -0.8728  1.3451
21087SOL    HW261845   9.997   3.491   3.042 -0.2981 -0.7415 -2.1667
21089SOL     OW61846   0.918   1.863   2.312 -0.9230 -0.0296  0.1741
21089SOL    HW161847   0.871   1.776   2.328 -0.7296 -0.1319  0.1831
21089SOL    HW261848   0.947   1.869   2.217  0.4198 -0.6382  0.5449
21090SOL     OW61849   8.136   7.446   6.844 -0.0267 -0.2976 -0.8370
21090SOL    HW161850   8.133   7.366   6.905  2.6795  0.1917 -0.0174
21090SOL    HW261851   8.078   7.518   6.881  0.2019 -0.6530  0.2437
21091SOL     OW61852   0.900   4.818   2.589  0.1344 -0.2384  0.1756
21091SOL    HW161853   0.807   4.853   2.597  0.1847 -0.6644  3.1696
21091SOL    HW261854   0.955   4.853   2.665  1.8648 -1.6849 -0.3826
21092SOL     OW61855   9.003   2.577   3.639 -0.7364 -1.0019  0.4717
21092SOL    HW161856   8.918   2.591   3.690 -2.0366 -3.6353 -0.8602
21092SOL    HW261857   9.023   2.658   3.584 -1.6889  0.1310  1.7561
21093SOL     OW61858   0.512   3.044   0.075 -0.1598 -0.5636  0.1280
21093SOL    HW161859   0.593   3.103   0.083  1.2890 -2.5294  0.2088
21093SOL    HW261860   0.433   3.100   0.050  1.2380  1.3765 -0.0670
21094SOL     OW61861   0.074   0.195   7.731 -0.1152  0.4684  0.8331
21094SOL    HW161862   0.124   0.114   7.698 -0.5379 -0.1465  1.6958
21094SOL    HW261863   0.131   0.245   7.796  0.1087  0.8244  0.3715
21095SOL     OW61864   1.290   9.522   3.541  0.3101 -0.1979 -0.3044
21095SOL    HW161865   1.238   9.604   3.516  0.9879  0.3795  0.1711
21095SOL    HW261866   1.368   9.512   3.480  0.2644 -0.4600 -0.3211
21096SOL     OW61867   5.343   7.903   5.890  0.0930  0.1481 -0.0238
21096SOL    HW161868   5.294   7.940   5.970 -1.6583 -1.1294 -0.4743
21096SOL    HW261869   5.432   7.947   5.882 -0.5072  1.6870  1.5173
21097SOL     OW61870   0.831   9.069   5.334 -0.3087  0.1611  0.1845
21097SOL    HW161871   0.752   9.114   5.292 -0.2439  1.8279  1.8389
21097SOL    HW261872   0.799   8.989   5.386 -0.6845 -0.2513 -0.6539
21098SOL     OW61873   1.369   1.701   1.662  0.1015 -0.0574 -0.2419
21098SOL    HW161874   1.397   1.790   1.626  0.6281 -0.6226 -1.2360
21098SOL    HW261875   1.449   1.643   1.674  0.0749  0.4740  2.8558
21099SOL     OW61876   4.572   8.403   1.939 -0.3801 -0.0062 -0.1160
21099SOL    HW161877   4.505   8.435   2.006  2.1333  0.5149  2.2006
21099SOL    HW261878   4.578   8.470   1.865  1.0918  2.4411  2.1318
21100SOL     OW61879   5.603   4.418   0.100  0.3455 -0.0176 -0.3388
21100SOL    HW161880   5.540   4.342   0.084 -0.4067  0.7548 -1.0904
21100SOL    HW261881   5.675   4.389   0.163  0.0325 -1.3335 -0.5774
21101SOL     OW61882   3.798   9.778   3.320 -0.5127  0.3599 -0.1387
21101SOL    HW161883   3.845   9.744   3.239 -1.7568  0.4048 -0.8836
21101SOL    HW261884   3.706   9.740   3.325 -1.4157  2.4190 -0.2177
21105SOL     OW61885   0.989   3.468   7.208 -0.5909  0.0380 -0.5026
21105SOL    HW161886   0.909   3.526   7.222 -0.4708  0.5657 -1.9055
21105SOL    HW261887   1.053   3.514   7.145  0.8266 -0.3603  0.6130
21106SOL     OW61888   5.289   4.309   1.370  0.0842  0.2274 -0.4658
21106SOL    HW161889   5.284   4.331   1.272 -1.7236  0.1745 -0.4059
21106SOL    HW261890   5.281   4.393   1.423 -1.4960  0.0128 -0.3342
21109SOL     OW61891   7.122   1.828   5.663 -0.8227 -0.2449 -0.0093
21109SOL    HW161892   7.053   1.878   5.610 -0.2762  0.7895  0.2641
21109SOL    HW261893   7.154   1.750   5.609 -1.4804 -0.1635 -0.5340
21111SOL     OW61894   3.902   9.565   4.973  0.8165  0.3221  0.0840
21111SOL    HW161895   3.951   9.556   5.060  1.6304 -0.6853 -0.4585
21111SOL    HW261896   3.903   9.477   4.926 -1.7355  0.2291  0.1595
21112SOL     OW61897   7.635   1.186   1.902 -0.4964 -0.3459  0.0117
21112SOL    HW161898   7.712   1.132   1.869 -0.1791  0.3409 -0.3736
21112SOL    HW261899   7.603   1.247   1.830 -0.8747 -0.0424  0.4310
21113SOL     OW61900   0.090   0.286   6.857  0.2514 -1.0207  0.0537
21113SOL    HW161901   0.018   0.325   6.799  1.3679 -0.2728 -0.8532
21113SOL    HW261902   0.121   0.200   6.818  1.2251 -0.3597 -0.6394
21114SOL     OW61903   8.226   3.275   2.964  0.0906 -0.0063 -0.8548
21114SOL    HW161904   8.219   3.372   2.983  0.0542 -0.3536  0.9569
21114SOL    HW261905   8.163   3.224   3.024  0.0822 -1.1402 -1.8036
21116SOL     OW61906   1.221   7.085   6.983 -0.3623 -0.1387  0.1296
21116SOL    HW161907   1.154   7.145   7.027 -1.3968  0.0360 -1.6457
21116SOL    HW261908   1.218   6.995   7.025 -1.5260 -0.0464  0.2585
21117SOL     OW61909   8.297   5.158   2.448  0.0123 -0.8243  0.2791
21117SOL    HW161910   8.221   5.174   2.385  0.0814 -2.7614 -0.3179
21117SOL    HW261911   8.349   5.242   2.459  0.5103 -0.6684 -2.9524
21121SOL     OW61912   1.012   2.805   7.319 -0.6616  0.1933 -0.0382
21121SOL    HW161913   0.975   2.739   7.252 -0.4534 -0.7929  0.8067
21121SOL    HW261914   1.051   2.755   7.396 -1.9179  1.3457  1.3720
21123SOL     OW61915   4.253   1.642   4.738  0.0058 -0.0666  0.4172
21123SOL    HW161916   4.274   1.571   4.671 -1.7469  0.6064 -0.9059
21123SOL    HW261917   4.159   1.630   4.770  0.1072  0.9279  1.0961
21124SOL     OW61918   5.896   3.001   1.763 -0.5054 -0.4075 -0.0867
21124SOL    HW161919   5.839   3.080   1.787 -0.2449 -0.2188 -0.0848
21124SOL    HW261920   5.907   2.942   1.843 -1.3019 -0.8260 -0.2805
21125SOL     OW61921   3.816   5.432   7.309 -0.3498 -0.0659  0.0855
21125SOL    HW161922   3.847   5.456   7.217 -1.0075 -0.4170 -0.2318
21125SOL    HW261923   3.716   5.423   7.309 -0.4287  0.8419  1.0481
21127SOL     OW61924   5.510   1.936   5.898 -0.2676  0.1796 -0.2053
21127SOL    HW161925   5.411   1.939   5.879 -0.5707  3.7453  1.6207
21127SOL    HW261926   5.555   2.011   5.850  1.1436  0.2912  1.2776
21128SOL     OW61927   3.282   5.743   6.132 -0.0976  0.0888  0.7589
21128SOL    HW161928   3.206   5.807   6.131  0.2782  0.5337 -0.2146
21128SOL    HW261929   3.363   5.788   6.169  0.1302  0.1367  0.2082
21130SOL     OW61930   3.238   2.081   5.763  0.4860 -0.0316  0.2517
21130SOL    HW161931   3.317   2.080   5.824 -0.7359  0.2545  1.8726
21130SOL    HW261932   3.156   2.055   5.814 -0.3528 -1.0763 -1.5887
21131SOL     OW61933   4.554   9.453   4.481 -0.0673 -0.2333 -0.1826
21131SOL    HW161934   4.618   9.479   4.408  0.3230  1.0690  0.5991
21131SOL    HW261935   4.591   9.376   4.532  0.9119  0.5166  0.2679
21132SOL     OW61936   3.203   4.422   4.713  0.3671  0.0996 -0.5439
21132SOL    HW161937   3.214   4.514   4.674  0.6094 -0.6287 -2.2344
21132SOL    HW261938   3.129   4.375   4.666  1.3715 -1.1904 -0.8638
21134SOL     OW61939   9.157   6.435   3.434 -0.5487  0.3572 -0.2098
21134SOL    HW161940   9.236   6.468   3.485  0.7582  0.2695 -2.1425
21134SOL    HW261941   9.084   6.410   3.498 -0.4157  3.9194  1.4480
21135SOL     OW61942   7.514   3.030   3.810  0.5349  0.0521 -0.4617
21135SOL    HW161943   7.589   2.980   3.853  0.3697 -0.8998 -1.2839
21135SOL    HW261944   7.552   3.104   3.754  0.8521 -0.3540 -0.7844
21136SOL     OW61945   4.980   3.190   7.371  0.0645  0.1192  0.2859
21136SOL    HW161946   4.983   3.228   7.279 -1.1187 -1.1599 -0.3125
21136SOL    HW261947   5.063   3.137   7.388  0.4344  0.6313  0.0848
21137SOL     OW61948   5.029   0.716   0.607  0.0444  0.3204  0.0557
21137SOL    HW161949   5.122   0.729   0.643  0.3772  0.0741 -0.6937
21137SOL    HW261950   5.006   0.794   0.548  0.1707 -0.1049 -0.5670
21138SOL     OW61951   2.908   6.649   7.249  0.7238 -0.2807  0.2051
21138SOL    HW161952   2.991   6.599   7.271  1.0097 -0.8657 -2.0922
21138SOL    HW261953   2.838   6.629   7.318  2.4497  0.2424  2.1663
21139SOL     OW61954   0.499   0.419   4.785  0.1748 -0.7007  0.9146
21139SOL    HW161955   0.477   0.414   4.688 -0.3390 -0.6317  1.0247
21139SOL    HW261956   0.598   0.409   4.798  0.3776  0.3646  0.2965
21141SOL     OW61957   5.342   7.127   2.352  0.3390 -0.3746 -0.3344
21141SOL    HW161958   5.416   7.064   2.329 -0.2555 -0.4161 -2.2859
21141SOL    HW261959   5.342   7.146   2.450  2.4138 -1.0194 -0.1960
21142SOL     OW61960   2.486   8.637   3.085  0.0078  0.0645 -0.2059
21142SOL    HW161961   2.532   8.714   3.042  0.5067 -0.0218  0.1651
21142SOL    HW261962   2.435   8.668   3.165 -0.0652  0.0606 -0.2506
21144SOL     OW61963   2.531   6.209   3.707 -0.1105  0.2967 -0.0498
21144SOL    HW161964   2.507   6.305   3.714 -0.7183  0.2326 -1.1091
21144SOL    HW261965   2.615   6.199   3.653 -1.0544  0.1197 -1.5045
21145SOL     OW61966   9.349   0.393   5.900  0.2284 -0.0822 -0.0383
21145SOL    HW161967   9.284   0.323   5.928 -0.8072  0.6908 -0.5057
21145SOL    HW261968   9.365   0.456   5.976  2.0387 -1.4710  0.7606
21146SOL     OW61969   2.067   6.560   4.176  0.5879 -0.2461 -0.4780
21146SOL    HW161970   2.018   6.520   4.098 -3.9301 -1.0165  2.5389
21146SOL    HW261971   2.107   6.488   4.231  2.1908  0.1804 -1.0666
21147SOL     OW61972   1.960   4.363   6.651  0.3560  0.5994 -0.5631
21147SOL    HW161973   1.987   4.450   6.693 -1.5673  1.0043 -0.1030
21147SOL    HW261974   1.900   4.314   6.714  2.0112 -1.4221 -0.5216
21148SOL     OW61975   0.462   7.052   4.623 -0.1421  0.3020  0.4788
21148SOL    HW161976   0.446   7.025   4.528 -1.4634 -1.7908  1.2613
21148SOL    HW261977   0.549   7.014   4.655 -0.2805 -0.0177  0.4749
21149SOL     OW61978   4.924   9.569   7.878  0.0199 -0.2226  0.3091
21149SOL    HW161979   4.865   9.645   7.903  0.2705 -0.1140  0.5710
21149SOL    HW261980   4.992   9.600   7.812  0.3118 -0.1431  0.6426
21152SOL     OW61981   2.287   6.661   1.662 -0.3216 -0.3389 -0.2803
21152SOL    HW161982   2.335   6.637   1.577  1.0255  2.7478 -0.4453
21152SOL    HW261983   2.203   6.711   1.640  0.2760  0.8830  0.2219
21153SOL     OW61984   4.520   6.366   4.006 -0.4296 -0.1156 -0.1161
21153SOL    HW161985   4.457   6.423   3.954 -0.3388 -1.8456 -2.1957
21153SOL    HW261986   4.467   6.305   4.066 -0.4923  2.9982  3.1342
21154SOL     OW61987   1.977   4.100   0.639  0.1789 -0.0032  0.3392
21154SOL    HW161988   1.938   4.131   0.725  0.2981 -0.4904  0.5682
21154SOL    HW261989   1.903   4.084   0.573 -0.0500 -1.2245  0.8707
21156SOL     OW61990   0.380   2.064   7.738 -0.3419 -0.1358 -0.0561
21156SOL    HW161991   0.444   2.103   7.804  0.7602 -0.2159 -1.0536
21156SOL    HW261992   0.286   2.081   7.768  0.1235  2.4360  0.0278
21157SOL     OW61993   0.813   3.583   6.871 -0.0879  0.2029  0.0299
21157SOL    HW161994   0.738   3.648   6.874  0.2659  0.6272 -0.2615
21157SOL    HW261995   0.895   3.624   6.911 -0.0221 -0.2726  0.3879
21158SOL     OW61996   9.063   0.207   5.701 -0.3633  0.5026 -0.2486
21158SOL    HW161997   9.109   0.138   5.756  1.2374  0.6767 -1.3524
21158SOL    HW261998   8.964   0.204   5.720 -0.1261 -1.0369  0.8280
21159SOL     OW61999   8.290   9.103   4.263 -0.1225  0.3431  0.5470
21159SOL    HW162000   8.333   9.019   4.296  0.1090  0.5146  0.6882
21159SOL    HW262001   8.241   9.147   4.338 -3.6552 -1.7359 -0.4509
21160SOL     OW62002   7.108   3.979   2.525  0.3478 -0.0742  0.1360
21160SOL    HW162003   7.138   4.052   2.464 -0.5517  0.1433 -0.0391
21160SOL    HW262004   7.010   3.962   2.514 -0.1446  0.9546  2.5189
21161SOL     OW62005   0.590   0.017   1.062 -0.6147 -0.3319  0.1744
21161SOL    HW162006   0.640   0.003   0.976 -0.9213 -0.0045 -0.0609
21161SOL    HW262007   0.555   0.111   1.065 -1.4420 -0.6377  0.2177
21162SOL     OW62008   9.128   3.630   5.372  0.1659 -0.6944  0.2579
21162SOL    HW162009   9.122   3.641   5.471  0.8501 -0.3836  0.2724
21162SOL    HW262010   9.102   3.537   5.347 -1.2930 -0.3771  0.5919
21164SOL     OW62011   2.795   0.984   6.844 -0.2378 -0.3558 -0.4220
21164SOL    HW162012   2.761   0.969   6.751 -1.3770  0.3834 -0.1246
21164SOL    HW262013   2.719   1.000   6.906  0.5154 -0.8623  0.6572
21165SOL     OW62014   4.164   7.294   2.359  0.0294 -0.0249 -0.0316
21165SOL    HW162015   4.180   7.195   2.355 -1.3827 -0.2737  0.0221
21165SOL    HW262016   4.240   7.339   2.406  0.5857 -1.1130  0.1161
21166SOL     OW62017   2.058   5.090   2.130  0.9709  0.0601 -0.3245
21166SOL    HW162018   2.004   5.040   2.198  0.3654  0.8116 -0.2408
21166SOL    HW262019   2.112   5.161   2.177 -1.3312  2.2270 -0.8742
21167SOL     OW62020   8.304   8.678   7.465  0.2122  0.3104 -0.3529
21167SOL    HW162021   8.282   8.605   7.401 -1.2918 -1.1384  1.7898
21167SOL    HW262022   8.286   8.767   7.422 -1.5198 -0.6634 -1.6610
21168SOL     OW62023   1.536   8.103   6.690 -0.5517  0.0541  0.4842
21168SOL    HW162024   1.483   8.123   6.608 -0.3528  1.1867  0.6286
21168SOL    HW262025   1.624   8.151   6.685  0.6860 -2.1945  0.0133
21169SOL     OW62026   1.567   8.784   5.894  0.0560  0.2549 -0.1366
21169SOL    HW162027   1.635   8.810   5.963 -0.0294  2.2913 -0.8141
21169SOL    HW262028   1.476   8.806   5.928 -0.1466 -0.7698 -0.0017
21170SOL     OW62029   3.269   3.468   2.643  0.1516  0.1726  0.3159
21170SOL    HW162030   3.191   3.433   2.591  0.8827  0.6844 -1.1295
21170SOL    HW262031   3.333   3.393   2.662 -1.0832 -0.4407  2.2785
21171SOL     OW62032   3.473   3.582   4.467  0.3842  0.1151 -0.0022
21171SOL    HW162033   3.558   3.604   4.420  0.4728 -0.3370 -0.0531
21171SOL    HW262034   3.421   3.666   4.482  0.5679  0.3203 -0.4947
21172SOL     OW62035   9.291   2.107   2.827  0.5852 -0.2341 -0.5284
21172SOL    HW162036   9.376   2.157   2.809 -0.0863  1.3692  0.6678
21172SOL    HW262037   9.245   2.086   2.741 -0.7370  4.0758 -0.9608
21173SOL     OW62038   3.125   3.223   7.317  0.0555 -0.0017  0.2418
21173SOL    HW162039   3.172   3.298   7.270 -1.1216  1.1551  0.8723
21173SOL    HW262040   3.116   3.145   7.255  2.0797  0.0373 -0.1358
21174SOL     OW62041   4.235   6.700   3.019  0.0466 -0.0478  0.2622
21174SOL    HW162042   4.148   6.731   3.057 -0.3911  0.2008 -0.9224
21174SOL    HW262043   4.241   6.727   2.923  0.4503 -2.0419 -0.2910
21175SOL     OW62044   3.547   9.372   3.787  0.6040 -0.2569  0.2899
21175SOL    HW162045   3.588   9.297   3.840  1.1697 -1.2770 -1.5625
21175SOL    HW262046   3.447   9.364   3.791  0.6564 -1.2574 -0.0828
21176SOL     OW62047   8.418   4.246   1.512 -0.1104  0.1966  0.3344
21176SOL    HW162048   8.496   4.300   1.481  0.2907 -1.6001 -1.8553
21176SOL    HW262049   8.360   4.222   1.434 -2.0313  0.1829  1.7176
21177SOL     OW62050   9.942   5.908   4.262 -0.8752  0.3572  0.5198
21177SOL    HW162051  10.026   5.943   4.221 -0.8384  0.0823  0.3620
21177SOL    HW262052   9.929   5.812   4.236 -0.2237 -0.1758  2.0974
21178SOL     OW62053   2.914   6.866   7.476 -0.0616  0.2742  0.8516
21178SOL    HW162054   2.945   6.783   7.522 -0.1962 -0.3474 -0.1830
21178SOL    HW262055   2.988   6.903   7.420 -0.8394 -0.6581 -0.8294
21180SOL     OW62056   0.599   7.332   7.631 -0.0064  0.6553  0.2439
21180SOL    HW162057   0.545   7.402   7.584 -2.6139 -0.4562  1.4901
21180SOL    HW262058   0.622   7.364   7.723  0.5248  0.6747  0.1051
21181SOL     OW62059   8.348   5.070   0.023  0.2327 -0.3430  0.3230
21181SOL    HW162060   8.275   5.125   0.064  0.6065 -0.7231  1.5099
21181SOL    HW262061   8.354   4.982   0.069  1.0982 -0.5179 -0.1172
21183SOL     OW62062   4.683   7.182   1.089  0.6758 -0.8022  0.4754
21183SOL    HW162063   4.711   7.101   1.140  0.2962 -2.3325 -1.6706
21183SOL    HW262064   4.592   7.167   1.050 -1.0090  2.0635  2.9960
21185SOL     OW62065   9.808   5.454   1.216  0.2208  0.2917  0.0918
21185SOL    HW162066   9.828   5.389   1.143  1.0980  0.8144 -0.1350
21185SOL    HW262067   9.862   5.537   1.203  1.4389 -0.1556  2.0797
21188SOL     OW62068   2.975   8.592   5.653  0.0638  0.1455 -0.1267
21188SOL    HW162069   2.974   8.629   5.560  0.2005 -0.3848 -0.3372
21188SOL    HW262070   3.062   8.613   5.696  0.7020 -1.1938 -0.7527
21189SOL     OW62071   9.522   1.225   6.182  0.3679 -0.5582  0.1259
21189SOL    HW162072   9.529   1.150   6.247  0.3552 -0.4836  0.2138
21189SOL    HW262073   9.429   1.263   6.184  0.2740 -0.7679 -0.1735
21190SOL     OW62074   8.970   9.653   6.126  0.2910  0.0256 -0.5969
21190SOL    HW162075   9.008   9.745   6.136 -0.4082  0.1545  1.0344
21190SOL    HW262076   8.958   9.633   6.029  1.2736  1.3106 -1.0085
21193SOL     OW62077   4.302   0.093   5.674 -0.6474  0.3666 -0.1774
21193SOL    HW162078   4.318   0.106   5.576 -1.5792  1.1062 -0.2372
21193SOL    HW262079   4.347   0.009   5.704 -2.1866 -1.0523 -1.7198
21195SOL     OW62080   3.916   8.945   4.883  0.3235 -0.1010 -0.3417
21195SOL    HW162081   3.999   8.890   4.885  0.6408  0.3816  0.1250
21195SOL    HW262082   3.935   9.036   4.922 -0.2910  0.1930 -0.7103
21198SOL     OW62083   8.284   9.270   0.621  0.2558 -0.9191 -0.3692
21198SOL    HW162084   8.307   9.243   0.714 -0.5340 -2.0815 -0.5029
21198SOL    HW262085   8.277   9.370   0.616  1.2695 -0.7982  0.5814
21199SOL     OW62086   2.721   3.934   3.227 -0.9354 -0.1156  0.1826
21199SOL    HW162087   2.689   3.875   3.302  3.4032  0.1042  2.3670
21199SOL    HW262088   2.721   4.029   3.257 -0.9169  0.1938 -0.7718
21200SOL     OW62089   9.330   7.492   7.024 -0.0656 -0.0967  0.1286
21200SOL    HW162090   9.354   7.588   7.010  0.3240 -0.1332  0.5513
21200SOL    HW262091   9.412   7.436   7.017  0.1829 -0.1143  2.6492
21202SOL     OW62092   7.078   3.211   1.657 -0.1994 -0.2487  0.0374
21202SOL    HW162093   7.058   3.147   1.583 -0.3478  0.4251 -0.5098
21202SOL    HW262094   6.994   3.258   1.684 -0.3004 -1.0703  1.1880
21203SOL     OW62095   2.727   1.230   4.833  0.1972  0.1454 -0.6591
21203SOL    HW162096   2.782   1.281   4.767  1.0202  0.4798  0.2655
21203SOL    HW262097   2.773   1.232   4.923 -0.8234 -0.4300 -0.1192
21204SOL     OW62098   5.472   9.889   3.594 -0.9203 -0.5481  0.0467
21204SOL    HW162099   5.512   9.814   3.648 -2.5208 -2.5261 -1.4372
21204SOL    HW262100   5.396   9.929   3.645 -0.0166  0.1322  0.8758
21207SOL     OW62101   7.091   8.994   5.452  0.0884 -0.0548 -0.1541
21207SOL    HW162102   7.020   9.061   5.432 -1.2475 -1.3410  0.2121
21207SOL    HW262103   7.053   8.902   5.447  1.5872 -0.7386  0.6010
21208SOL     OW62104   7.841   1.022   4.227  0.5720  0.2973 -0.6125
21208SOL    HW162105   7.847   1.051   4.131  2.1229  1.5084 -0.1680
21208SOL    HW262106   7.918   0.962   4.249 -1.3843 -2.4363 -0.8922
21209SOL     OW62107   8.106   4.400   1.852  0.1741  0.5259  0.4319
21209SOL    HW162108   8.158   4.463   1.910 -0.4151 -1.2808  3.0439
21209SOL    HW262109   8.168   4.338   1.805  0.5561 -2.3094  4.3331
21210SOL     OW62110   4.012   4.733   3.476 -0.1117  0.5396  0.1540
21210SOL    HW162111   4.081   4.675   3.519 -0.8405 -0.1197  0.4509
21210SOL    HW262112   4.056   4.810   3.430  0.8225  0.0590  0.2450
21213SOL     OW62113   5.034   4.715   6.732 -0.4428  0.1220 -0.7343
21213SOL    HW162114   5.019   4.795   6.790  0.6169  0.6370 -1.1491
21213SOL    HW262115   5.098   4.739   6.658  0.7549 -1.3857 -0.2247
21215SOL     OW62116   4.484   5.331   0.921 -1.0157 -0.4138 -0.0705
21215SOL    HW162117   4.473   5.252   0.860  0.6581  1.1047 -2.4103
21215SOL    HW262118   4.432   5.408   0.885  0.1992  0.5811  0.2782
21216SOL     OW62119   8.408   8.673   3.248 -0.0038 -0.0756  0.3040
21216SOL    HW162120   8.416   8.616   3.167 -1.0835 -1.4069  1.1109
21216SOL    HW262121   8.314   8.705   3.257  0.0599 -0.1144  1.1394
21217SOL     OW62122   2.171   9.667   4.545  0.5114 -0.4621 -0.3063
21217SOL    HW162123   2.271   9.664   4.542  0.4650 -0.6140 -3.3893
21217SOL    HW262124   2.141   9.742   4.603  2.4364 -0.0184  0.1322
21218SOL     OW62125   4.855   0.734   0.232 -0.0595 -0.0321 -0.2333
21218SOL    HW162126   4.788   0.788   0.180  0.1858 -2.1437 -2.8769
21218SOL    HW262127   4.825   0.638   0.235  0.5407 -0.1658  2.5971
21219SOL     OW62128   6.724   9.982   5.448 -0.0014  0.6194 -0.2703
21219SOL    HW162129   6.700   9.890   5.479  1.6905  0.0815 -0.4745
21219SOL    HW262130   6.697  10.049   5.518 -1.6605  0.0251 -0.3277
21220SOL     OW62131   9.057   0.346   7.873 -0.4725  0.6502  0.0394
21220SOL    HW162132   9.154   0.355   7.853 -0.5845 -1.7098 -1.7531
21220SOL    HW262133   9.009   0.431   7.850  0.9775  1.4268 -0.1207
21221SOL     OW62134   8.390   8.637   5.855 -0.5332  0.2651  0.2037
21221SOL    HW162135   8.400   8.605   5.949  0.4414 -0.0548  0.0003
21221SOL    HW262136   8.472   8.688   5.828 -1.3875  1.5162 -0.0247
21228SOL     OW62137   4.304   4.114   2.683  0.1814  0.3258 -0.1150
21228SOL    HW162138   4.215   4.134   2.725  0.0144 -1.3554  0.3832
21228SOL    HW262139   4.344   4.034   2.728  1.8807  0.9805 -0.4501
21230SOL     OW62140   4.976   9.310   6.482  0.1622  0.3570  0.1773
21230SOL    HW162141   5.041   9.298   6.556  0.6268 -1.0549 -0.4378
21230SOL    HW262142   5.024   9.340   6.399 -0.2320  1.1134  0.2169
21232SOL     OW62143   3.888   5.696   1.475 -0.1139 -0.0306  0.5632
21232SOL    HW162144   3.921   5.734   1.389 -0.6456  0.2937  0.4988
21232SOL    HW262145   3.902   5.761   1.549  1.1546 -0.6572  0.8922
21233SOL     OW62146   9.480   4.230   6.297 -0.1885  0.3827 -0.0360
21233SOL    HW162147   9.511   4.146   6.341  1.7476  0.7647 -0.6098
21233SOL    HW262148   9.387   4.252   6.327 -0.2116 -1.2474  1.1185
21234SOL     OW62149   7.061   0.170   2.260  0.5772  0.1568  0.2481
21234SOL    HW162150   7.091   0.088   2.212  0.1264 -0.5391  1.1428
21234SOL    HW262151   7.120   0.186   2.339 -0.6452 -0.5387  1.3178
21235SOL     OW62152   7.777   4.599   6.746  0.3099 -0.7277 -0.2473
21235SOL    HW162153   7.727   4.578   6.829  0.2536 -1.2022 -0.3978
21235SOL    HW262154   7.847   4.668   6.765  0.0494 -0.5614  0.1080
21237SOL     OW62155   5.035   4.429   1.590 -0.3906  0.4081  0.3907
21237SOL    HW162156   4.950   4.401   1.635 -0.5689  2.7912  1.5868
21237SOL    HW262157   5.041   4.528   1.588  1.8208  0.2830 -0.7595
21239SOL     OW62158   3.010   2.822   5.353  0.1624 -0.0761  0.0010
21239SOL    HW162159   3.106   2.837   5.376  0.5601 -1.3991 -0.7784
21239SOL    HW262160   2.957   2.809   5.437  1.2697 -2.8607  0.3121
21240SOL     OW62161   0.098   4.764   6.143 -0.6215 -0.1869 -0.0837
21240SOL    HW162162   0.034   4.762   6.219  0.7685 -0.5051  1.0903
21240SOL    HW262163   0.118   4.671   6.113  0.4984 -0.1697  0.5866
21243SOL     OW62164   6.172   3.763   1.637  0.0984  0.0648  0.5344
21243SOL    HW162165   6.257   3.785   1.684 -0.2205 -0.3196  1.3134
21243SOL    HW262166   6.138   3.844   1.589  0.9286  0.1987  0.1743
21244SOL     OW62167   4.638   8.890   3.121  0.0131 -0.2050  0.1073
21244SOL    HW162168   4.693   8.965   3.157 -0.0046  0.0644 -0.4133
21244SOL    HW262169   4.691   8.805   3.123  0.0932 -0.1429  0.5340
21245SOL     OW62170   6.275   9.753   4.735  0.1173  0.1655  0.1941
21245SOL    HW162171   6.187   9.780   4.697  0.5315  1.3807  0.0869
21245SOL    HW262172   6.268   9.660   4.773 -1.8490  1.1109  2.2884
21246SOL     OW62173   0.223   9.424   5.532  0.1258  0.6459 -0.0809
21246SOL    HW162174   0.310   9.464   5.561  0.5722 -1.2161  1.2072
21246SOL    HW262175   0.240   9.359   5.458  0.0493 -0.8233  1.1627
21247SOL     OW62176   4.365   0.623   7.427 -0.3540 -0.5162 -0.2682
21247SOL    HW162177   4.271   0.604   7.455 -0.3051 -0.7276 -0.2436
21247SOL    HW262178   4.365   0.678   7.344 -0.5268  1.9317  1.2753
21248SOL     OW62179   7.785   0.988   5.941 -0.3924 -0.0857 -0.1057
21248SOL    HW162180   7.804   1.043   6.022  1.6445 -0.7300 -0.1138
21248SOL    HW262181   7.812   0.893   5.959  1.0777 -0.0259 -1.8742
21250SOL     OW62182   8.200   6.013   5.966 -0.6155 -0.3271 -0.1896
21250SOL    HW162183   8.137   5.984   5.894 -0.9795 -0.9107  0.3625
21250SOL    HW262184   8.158   5.997   6.056 -1.3031  2.9238  0.1322
21251SOL     OW62185   1.078   7.388   1.746 -0.4488  0.1615 -0.9740
21251SOL    HW162186   1.096   7.314   1.811 -0.1908  2.0075  1.1169
21251SOL    HW262187   0.982   7.414   1.750  0.5872  4.0565  2.9454
21252SOL     OW62188   0.411   4.438   5.733 -0.8455 -0.3472  0.4545
21252SOL    HW162189   0.490   4.378   5.725 -1.6476 -1.0828 -2.7219
21252SOL    HW262190   0.339   4.392   5.785 -0.1767 -0.7015  1.0866
21253SOL     OW62191   9.462   8.623   6.262  0.1504 -0.0892  0.0499
21253SOL    HW162192   9.389   8.670   6.313 -0.0867  0.6885 -0.9898
21253SOL    HW262193   9.514   8.565   6.325 -1.3473 -0.6280  0.8065
21254SOL     OW62194   7.624   5.052   2.994 -0.0973 -0.0518  0.0112
21254SOL    HW162195   7.636   5.140   3.041 -1.1168 -0.6054  1.3713
21254SOL    HW262196   7.552   5.061   2.925  0.0273  0.2690 -0.0773
21255SOL     OW62197   7.613   2.067   2.668  0.0690  0.2323 -0.4365
21255SOL    HW162198   7.698   2.119   2.661 -0.4581  1.0628 -0.8330
21255SOL    HW262199   7.616   2.008   2.748  0.1897  1.8022  0.7447
21256SOL     OW62200   0.861   7.019   0.324 -0.6739 -0.3034 -0.4414
21256SOL    HW162201   0.834   7.070   0.243  1.0310  1.7614  0.2438
21256SOL    HW262202   0.961   7.007   0.324 -0.7941 -1.4356  0.6722
21257SOL     OW62203   2.565   4.755   0.956 -0.1704 -0.3741  0.6375
21257SOL    HW162204   2.587   4.675   1.012  0.7610  0.0243  0.8652
21257SOL    HW262205   2.640   4.772   0.893 -0.3035  0.3999  0.6874
21258SOL     OW62206   8.960   5.081   3.154 -0.0410 -0.3694  0.2597
21258SOL    HW162207   9.004   5.131   3.228  0.4636  1.4208 -1.1881
21258SOL    HW262208   8.992   5.117   3.066 -3.8725  0.5358 -0.8599
21259SOL     OW62209   9.994   9.256   4.872 -0.2989  0.2438 -0.2803
21259SOL    HW162210   9.982   9.200   4.789  1.5915  1.5316 -1.4615
21259SOL    HW262211  10.020   9.197   4.948 -1.2174 -0.8585 -0.7957
21260SOL     OW62212   8.718   1.999   1.899  0.1282  0.0579  0.5434
21260SOL    HW162213   8.705   2.031   1.805  0.2557 -0.1874  0.4438
21260SOL    HW262214   8.718   1.900   1.901 -1.0261  0.0667  0.9703
21261SOL     OW62215   2.234   0.690   4.046 -0.6470 -0.2163 -0.1223
21261SOL    HW162216   2.211   0.677   3.950 -0.1869 -2.9248  0.0809
21261SOL    HW262217   2.248   0.787   4.065 -2.5774  0.5377 -2.3438
21262SOL     OW62218   0.263   6.300   4.495  0.0092 -0.2563 -0.2390
21262SOL    HW162219   0.206   6.278   4.416 -1.0508 -1.0818  0.7302
21262SOL    HW262220   0.220   6.374   4.548  1.1046  0.8222 -0.8519
21263SOL     OW62221   7.138   7.133   4.172 -0.3884  0.8531 -0.3308
21263SOL    HW162222   7.173   7.057   4.119  0.8617  0.5321  0.9224
21263SOL    HW262223   7.161   7.120   4.269 -3.9919  0.5911  0.5657
21264SOL     OW62224   8.799   4.848   1.810  0.1155  0.0703  0.6198
21264SOL    HW162225   8.764   4.825   1.719  0.7270  1.1455  0.1043
21264SOL    HW262226   8.898   4.844   1.810  0.1761  1.2269  0.9015
21265SOL     OW62227   5.160   8.836   7.034  0.0109 -0.1868  0.4633
21265SOL    HW162228   5.256   8.840   7.005  0.1055  1.7461  0.9387
21265SOL    HW262229   5.116   8.756   6.994  0.8638  0.8734 -2.7945
21267SOL     OW62230   5.210   1.884   5.869 -0.2737 -0.4172 -0.2794
21267SOL    HW162231   5.173   1.898   5.778 -0.1897 -1.4427 -0.4744
21267SOL    HW262232   5.236   1.789   5.880  1.3817  0.0805  0.2030
21268SOL     OW62233   6.716   7.978   2.165  0.4874  0.5042 -0.5230
21268SOL    HW162234   6.616   7.985   2.168  0.4681  0.5921 -1.2580
21268SOL    HW262235   6.744   7.888   2.198  0.0833 -0.0481 -1.6695
21271SOL     OW62236   0.918   1.915   7.933  0.0927  0.2505  0.4999
21271SOL    HW162237   0.826   1.929   7.896 -0.7427 -0.5720  2.1863
21271SOL    HW262238   0.946   1.997   7.984 -0.5266 -0.2230  1.6265
21272SOL     OW62239   3.593   6.271   6.827 -0.0151 -0.0802  0.0433
21272SOL    HW162240   3.644   6.310   6.750  1.0101  0.5197  1.0161
21272SOL    HW262241   3.587   6.172   6.817 -1.6673  0.1759 -1.8629
21273SOL     OW62242   2.728   4.116   7.673 -0.0561 -0.3630  0.5281
21273SOL    HW162243   2.712   4.181   7.747 -0.3525  1.0077 -0.7135
21273SOL    HW262244   2.821   4.127   7.638 -0.3081 -0.1671 -0.0949
21274SOL     OW62245   9.620   1.969   7.209  0.1493  0.6024  0.3248
21274SOL    HW162246   9.611   1.932   7.116 -0.0013 -2.1806  1.3876
21274SOL    HW262247   9.584   2.062   7.212 -1.7409 -0.0077 -1.9440
21275SOL     OW62248   8.634   2.410   3.246  0.7749  0.1112  0.3575
21275SOL    HW162249   8.690   2.483   3.207  1.6022 -0.8208 -0.2295
21275SOL    HW262250   8.692   2.350   3.301  0.0486  0.0438  1.0532
21276SOL     OW62251   1.435   5.049   1.630  0.2476  0.2240 -0.0422
21276SOL    HW162252   1.439   5.099   1.717 -0.2346 -1.7117  1.1191
21276SOL    HW262253   1.477   5.105   1.558  1.8948  1.3071  1.7000
21278SOL     OW62254   1.387   4.783   1.497  0.0792  0.0881 -0.5194
21278SOL    HW162255   1.420   4.868   1.540 -0.7578  1.0241 -1.6982
21278SOL    HW262256   1.465   4.723   1.479  0.8810  1.2956 -1.1793
21279SOL     OW62257   2.237   5.205   5.258  0.1867  0.4927 -0.4177
21279SOL    HW162258   2.186   5.124   5.286  2.3132 -1.4631 -1.9862
21279SOL    HW262259   2.325   5.208   5.307  1.5294  0.0406 -2.7470
21281SOL     OW62260   2.669  10.001   5.359  0.3081  0.7966  0.0170
21281SOL    HW162261   2.588   9.978   5.413  1.1399  0.9334  1.3427
21281SOL    HW262262   2.707   9.917   5.318  0.9475  0.3468  1.4728
21282SOL     OW62263   8.796   2.536   7.894 -0.1770  0.0358 -0.2061
21282SOL    HW162264   8.808   2.613   7.831 -2.2765  0.0995 -0.5780
21282SOL    HW262265   8.817   2.451   7.846 -0.2032  0.2011 -0.5153
21283SOL     OW62266   2.297   4.141   6.462  0.1500 -0.1538  0.0789
21283SOL    HW162267   2.322   4.089   6.543 -0.9870 -0.0712  0.4977
21283SOL    HW262268   2.227   4.208   6.486  1.0034  1.0140 -0.6319
21284SOL     OW62269   6.108   9.609   2.902 -0.2842 -0.3515 -0.1408
21284SOL    HW162270   6.106   9.665   2.819 -2.0727 -3.4105 -2.2594
21284SOL    HW262271   6.026   9.627   2.956  0.5602  1.1568  0.6669
21285SOL     OW62272   8.317   0.607   4.158  0.6240 -0.5310 -0.1686
21285SOL    HW162273   8.289   0.683   4.217  1.2986 -1.2331  1.0808
21285SOL    HW262274   8.326   0.640   4.064 -0.4802  0.6025  0.1023
21286SOL     OW62275   0.681   2.901   5.415  0.4545 -0.0001 -0.2836
21286SOL    HW162276   0.691   2.805   5.390 -0.2653 -0.6300  1.7497
21286SOL    HW262277   0.599   2.913   5.471  1.2051  1.5715  0.5370
21288SOL     OW62278   5.452   1.703   5.184 -0.2905  0.4733 -0.0427
21288SOL    HW162279   5.473   1.643   5.261 -0.1689  1.5546  0.7816
21288SOL    HW262280   5.423   1.648   5.106  0.8417 -0.7196  0.3614
21290SOL     OW62281   7.654   4.774   2.357 -0.1396 -0.4219  0.5643
21290SOL    HW162282   7.625   4.705   2.423  2.1298 -0.8175  1.1851
21290SOL    HW262283   7.740   4.815   2.386 -0.1635  0.8803 -1.0938
21291SOL     OW62284   7.143   0.870   0.738  0.1115 -0.0950  0.0744
21291SOL    HW162285   7.092   0.784   0.726 -0.5702  0.4636 -1.0995
21291SOL    HW262286   7.200   0.863   0.820  0.3135 -1.7977 -0.1797
21292SOL     OW62287   8.907   0.181   6.848 -0.1532 -0.4761 -0.5302
21292SOL    HW162288   8.942   0.088   6.860 -0.9005 -0.9545 -1.9465
21292SOL    HW262289   8.838   0.200   6.918  0.0045 -0.9826 -0.2371
21294SOL     OW62290   0.192   8.772   1.767  0.1343  0.5409 -0.1164
21294SOL    HW162291   0.121   8.783   1.698 -1.9216 -0.6654  1.7411
21294SOL    HW262292   0.281   8.789   1.726 -1.0011 -0.4418 -3.1447
21295SOL     OW62293   9.833   5.405   4.778 -0.1473 -0.0808  0.3550
21295SOL    HW162294   9.758   5.420   4.842 -0.7012 -0.2986 -0.2370
21295SOL    HW262295   9.806   5.334   4.712  1.0603 -1.0823  0.9263
21296SOL     OW62296   8.801   2.894   0.143  0.5140  0.3980 -0.3352
21296SOL    HW162297   8.795   2.933   0.051 -1.2000  2.6302  0.6590
21296SOL    HW262298   8.731   2.937   0.202  0.8092 -1.8158  1.7046
21298SOL     OW62299   1.251   8.577   3.453 -0.3584 -0.0626  0.6987
21298SOL    HW162300   1.345   8.568   3.418 -0.8533  3.1302 -1.7285
21298SOL    HW262301   1.199   8.495   3.431  1.2313 -0.9093 -0.0037
21300SOL     OW62302   1.476   1.353   6.140 -0.1170 -0.2488  0.3524
21300SOL    HW162303   1.464   1.255   6.156 -1.6465 -0.5232 -2.2132
21300SOL    HW262304   1.417   1.404   6.201 -0.5437 -0.9904  0.5662
21302SOL     OW62305   9.508   7.606   4.500  0.2698  0.2618  0.5956
21302SOL    HW162306   9.588   7.602   4.560  0.5968  0.9155  0.2102
21302SOL    HW262307   9.517   7.536   4.429  1.6728  1.8610 -0.8631
21304SOL     OW62308   9.150   6.967   0.181  0.1802 -0.0869  0.5589
21304SOL    HW162309   9.179   7.051   0.227  1.3798 -0.3799  0.3435
21304SOL    HW262310   9.112   6.903   0.249  1.0429 -0.1329  1.0072
21305SOL     OW62311   5.005   1.017   5.705 -0.4960  1.0997 -0.1342
21305SOL    HW162312   4.945   1.071   5.646  0.6119  1.3428 -1.0469
21305SOL    HW262313   5.014   0.925   5.668 -4.6321 -0.7006  2.8946
21306SOL     OW62314   6.293   7.483   6.496 -0.2678  0.4208 -0.8748
21306SOL    HW162315   6.331   7.560   6.445  3.0963  0.3092  1.3591
21306SOL    HW262316   6.280   7.406   6.433  0.7133  1.3128 -2.2026
21307SOL     OW62317   7.349   6.710   4.602  0.6277  0.4690 -0.3053
21307SOL    HW162318   7.342   6.734   4.506  0.1917 -0.6206 -0.5569
21307SOL    HW262319   7.358   6.793   4.657 -1.4052  1.2336 -1.0866
21308SOL     OW62320   2.359   2.714   0.780 -0.0308  0.4503 -0.4352
21308SOL    HW162321   2.344   2.803   0.738 -0.8230  1.2916  1.5536
21308SOL    HW262322   2.291   2.699   0.852  2.2341 -0.2239  1.6329
21309SOL     OW62323   2.603   6.489   3.644  0.0965  0.4678  0.9334
21309SOL    HW162324   2.662   6.485   3.563 -1.5023  1.3426 -0.2837
21309SOL    HW262325   2.640   6.556   3.709  0.7383  0.6219  0.4104
21310SOL     OW62326   2.204   4.290   1.567 -0.2533  0.3812  0.3786
21310SOL    HW162327   2.163   4.204   1.596 -0.8418  0.5501  0.0594
21310SOL    HW262328   2.184   4.361   1.635  1.4398 -0.0521  1.3595
21311SOL     OW62329   4.272   9.668   4.734 -0.3258 -0.1814 -0.4289
21311SOL    HW162330   4.309   9.590   4.782  0.9039  0.1388 -0.8452
21311SOL    HW262331   4.204   9.714   4.791 -0.4206 -1.0352  0.1468
21312SOL     OW62332   3.210   4.641   4.550  0.0562  0.8496  0.1786
21312SOL    HW162333   3.162   4.652   4.463  1.5490 -3.5160 -1.3103
21312SOL    HW262334   3.286   4.705   4.555  0.0018  1.0858 -1.7490
21314SOL     OW62335   9.245   7.799   7.308  0.2712 -0.0485 -0.3273
21314SOL    HW162336   9.161   7.830   7.355  1.1736  1.3551  0.4151
21314SOL    HW262337   9.321   7.800   7.373  1.2587  0.5586 -1.4692
21317SOL     OW62338   8.660   8.324   7.897 -0.2512 -0.1612 -0.6334
21317SOL    HW162339   8.741   8.340   7.841  0.0715  0.8448  0.1026
21317SOL    HW262340   8.644   8.226   7.905  0.1376 -0.3312 -1.8569
21318SOL     OW62341   0.115   2.888   3.295  0.1735  0.0612 -0.2381
21318SOL    HW162342   0.062   2.841   3.224 -0.3905 -0.4241  0.5009
21318SOL    HW262343   0.212   2.883   3.273  0.1025 -1.3538 -0.2173
21320SOL     OW62344   8.395   0.579   0.016  0.2768  0.4175  0.3599
21320SOL    HW162345   8.304   0.600  -0.019  0.1199 -1.3522 -0.3329
21320SOL    HW262346   8.390   0.560   0.114 -0.6702 -2.9665 -0.2953
21323SOL     OW62347   7.400   2.520   1.718  0.2665 -0.2555 -0.1119
21323SOL    HW162348   7.331   2.592   1.730  2.0272  1.2948  0.9179
21323SOL    HW262349   7.394   2.456   1.794 -0.6303 -0.6373 -0.4959
21326SOL     OW62350   8.603   3.173   4.665 -0.6487 -0.4340 -0.1560
21326SOL    HW162351   8.605   3.198   4.569  2.8277 -0.7704 -0.2445
21326SOL    HW262352   8.603   3.255   4.722  2.7707 -0.1317 -0.4789
21327SOL     OW62353   2.670   6.539   7.038 -0.0596  0.2130 -0.0001
21327SOL    HW162354   2.655   6.577   7.129  0.5355 -0.5106  0.4033
21327SOL    HW262355   2.612   6.459   7.025 -0.2368  0.3887 -0.3065
21328SOL     OW62356   8.250   8.990   5.069 -0.1575  0.0138 -0.2209
21328SOL    HW162357   8.216   8.922   5.134 -0.3307  0.9543  0.6782
21328SOL    HW262358   8.174   9.046   5.037  0.2583  0.9987  0.4814
21329SOL     OW62359   1.340   0.414   3.714  0.3651 -0.0508  0.1099
21329SOL    HW162360   1.288   0.433   3.631  0.1347  1.2338  0.5307
21329SOL    HW262361   1.290   0.347   3.770 -0.5110  0.6473  0.1787
21330SOL     OW62362   4.066   2.278   4.278 -0.0520  0.6165 -0.6907
21330SOL    HW162363   4.160   2.265   4.311  0.5232 -0.3039 -2.5920
21330SOL    HW262364   4.068   2.327   4.191 -1.2574 -0.2974 -1.2477
21331SOL     OW62365   8.388   9.829   4.371 -0.5534 -0.0330 -0.3471
21331SOL    HW162366   8.342   9.909   4.332  0.7806  0.2034 -1.4990
21331SOL    HW262367   8.321   9.771   4.418 -1.7447  1.0959 -0.6338
21332SOL     OW62368   4.771   9.499   5.740  0.0139  0.1526 -0.4709
21332SOL    HW162369   4.724   9.574   5.787  2.6370 -0.0514  2.6039
21332SOL    HW262370   4.731   9.412   5.768  0.4435  0.1210  0.0414
21333SOL     OW62371   9.859   2.702   5.848 -0.0673  0.3710 -0.7086
21333SOL    HW162372   9.957   2.706   5.869 -0.2028  1.1022 -0.1956
21333SOL    HW262373   9.809   2.758   5.913 -0.9974 -1.2683  0.0084
21336SOL     OW62374   8.515   3.603   2.645 -0.1083 -0.6782 -0.1807
21336SOL    HW162375   8.604   3.636   2.613 -0.3718  0.5066  0.2680
21336SOL    HW262376   8.469   3.552   2.572  1.6511 -2.7629  0.1101
21337SOL     OW62377   9.564   4.096   2.695 -0.3429  0.5290  0.7130
21337SOL    HW162378   9.586   4.034   2.619 -0.3081  2.1788 -0.6356
21337SOL    HW262379   9.485   4.060   2.745 -1.1973  0.1076 -0.9013
21338SOL     OW62380   4.410   9.976   5.366 -0.1114  0.0190 -0.7083
21338SOL    HW162381   4.383   9.897   5.311 -0.6872 -0.3194  0.0633
21338SOL    HW262382   4.510   9.982   5.368 -0.0650 -0.6761 -0.7915
21339SOL     OW62383   5.625   0.950   4.465  0.7582 -0.5879  0.2960
21339SOL    HW162384   5.569   0.883   4.513 -0.3977  1.2358  1.5423
21339SOL    HW262385   5.575   0.986   4.387  1.9169 -2.1611 -1.2179
21340SOL     OW62386   4.579   8.551   4.497  0.3820  0.0260  0.2534
21340SOL    HW162387   4.589   8.453   4.481 -0.0915 -0.1834  1.2352
21340SOL    HW262388   4.484   8.571   4.522  0.1331  0.9357 -1.3614
21341SOL     OW62389   2.973   9.709   3.089  0.2386 -0.2811 -0.0407
21341SOL    HW162390   2.926   9.794   3.113  0.9434 -0.3684  1.6889
21341SOL    HW262391   2.935   9.674   3.003 -0.2698  1.6091 -0.6210
21342SOL     OW62392   6.906   0.479   7.687  0.0947  0.4069  0.2101
21342SOL    HW162393   6.893   0.572   7.653  1.7761  0.0464 -1.4809
21342SOL    HW262394   6.842   0.417   7.643  0.1519  0.4736  0.0339
21345SOL     OW62395   7.109   0.239   0.887 -0.4130 -0.2746 -0.7833
21345SOL    HW162396   7.036   0.281   0.833 -0.9876 -1.1141 -0.6685
21345SOL    HW262397   7.082   0.237   0.984  0.1270  0.1871 -0.6201
21346SOL     OW62398   9.624   2.395   4.614 -0.1108 -0.5196 -0.1080
21346SOL    HW162399   9.689   2.375   4.540 -0.7521 -3.7711  0.1346
21346SOL    HW262400   9.532   2.367   4.586 -0.3963 -1.5808  1.8141
21347SOL     OW62401   0.841   7.058   3.382  0.1085  0.4840 -0.1156
21347SOL    HW162402   0.820   7.155   3.378  0.2503  0.4531 -1.8535
21347SOL    HW262403   0.757   7.005   3.369 -0.1816  0.3547  2.0940
21349SOL     OW62404   3.516   3.421   1.353 -0.5293  0.5644  0.4922
21349SOL    HW162405   3.521   3.497   1.417 -1.3091  1.6476 -0.7262
21349SOL    HW262406   3.459   3.348   1.392 -3.0848  2.2571 -0.0207
21350SOL     OW62407   7.203   1.993   2.185 -0.0531  0.1627  0.0866
21350SOL    HW162408   7.247   2.019   2.099 -2.4007 -1.3857 -1.6483
21350SOL    HW262409   7.193   2.073   2.243  0.6801  1.4363 -1.5083
21351SOL     OW62410   0.412   3.683   3.910 -0.0918  0.6338  0.3379
21351SOL    HW162411   0.493   3.692   3.969  1.0169 -2.9816 -0.5237
21351SOL    HW262412   0.431   3.726   3.822  0.3547  1.1004  0.6568
21352SOL     OW62413   3.173   4.132   4.153  0.0179  0.7903  0.4160
21352SOL    HW162414   3.103   4.061   4.166  0.8659 -0.3545 -1.1401
21352SOL    HW262415   3.160   4.176   4.065  2.6459 -1.0570 -0.9481
21353SOL     OW62416   4.826   8.826   7.332 -0.2705  0.4353 -0.3746
21353SOL    HW162417   4.740   8.869   7.359 -1.2467 -2.7089  1.8934
21353SOL    HW262418   4.807   8.748   7.272  1.0174 -0.0262 -0.2082
21354SOL     OW62419   6.649   1.756   2.937  0.5934 -0.4942  0.2601
21354SOL    HW162420   6.623   1.851   2.920 -0.3301 -0.4738  1.6278
21354SOL    HW262421   6.748   1.750   2.948  1.1025 -0.3543 -3.7370
21355SOL     OW62422   2.173   0.530   0.560  0.0888 -0.3243 -0.2958
21355SOL    HW162423   2.167   0.628   0.542  0.2438 -0.4461 -1.0098
21355SOL    HW262424   2.156   0.479   0.476  0.0409 -0.9157  0.0629
21357SOL     OW62425   0.761   7.040   7.858  0.1759  0.2798 -0.7618
21357SOL    HW162426   0.698   7.077   7.789 -2.1280 -0.6884  0.7456
21357SOL    HW262427   0.807   7.116   7.904  0.9054  0.9685 -2.5858
21358SOL     OW62428   9.678   8.949   7.099 -0.7173  0.5611  0.6247
21358SOL    HW162429   9.760   8.906   7.137  0.7592  2.2000 -0.6427
21358SOL    HW262430   9.637   8.888   7.031  1.5894  1.2646 -1.4616
21359SOL     OW62431   8.781   2.292   6.060  0.1240 -0.4727  0.5500
21359SOL    HW162432   8.763   2.382   6.021  0.0814 -0.2275  1.1357
21359SOL    HW262433   8.695   2.247   6.082  0.1873  0.0181  1.7959
21360SOL     OW62434   2.270   3.330   2.533  0.0389  0.2550  0.0863
21360SOL    HW162435   2.316   3.307   2.619  1.4363  1.0155 -0.4503
21360SOL    HW262436   2.337   3.362   2.466 -1.3327  2.0020 -0.5019
21361SOL     OW62437   3.699   9.117   1.866  0.1180  0.0751 -0.5561
21361SOL    HW162438   3.760   9.054   1.819  0.1107 -0.1167 -0.3105
21361SOL    HW262439   3.658   9.179   1.800  0.6431  0.2581 -0.7109
21362SOL     OW62440   9.047   7.860   3.156  0.1894  0.1123 -0.1385
21362SOL    HW162441   9.038   7.768   3.118 -0.0857 -0.4059  1.1623
21362SOL    HW262442   9.119   7.860   3.226  1.7715  1.4040 -1.7233
21363SOL     OW62443   1.786   6.075   7.624 -0.2253  0.4872  0.1384
21363SOL    HW162444   1.699   6.060   7.670  0.4996 -2.4055  0.7130
21363SOL    HW262445   1.796   6.008   7.550  1.8673  0.1806  0.6669
21365SOL     OW62446   7.028   8.324   7.692  0.0126 -0.4480 -0.1665
21365SOL    HW162447   7.061   8.267   7.767  2.5362  0.6107 -0.4275
21365SOL    HW262448   7.003   8.414   7.728  2.2276  0.4138 -0.7078
21366SOL     OW62449   3.172   4.790   5.972  0.1456  0.5388 -0.3524
21366SOL    HW162450   3.130   4.727   6.037 -0.6647  2.0691  0.6474
21366SOL    HW262451   3.142   4.767   5.879  0.3869 -0.9432 -0.0680
21367SOL     OW62452   0.955   6.747   4.215 -0.3208  0.0928  0.3117
21367SOL    HW162453   0.905   6.728   4.300  2.4660 -0.8611  1.8367
21367SOL    HW262454   1.015   6.669   4.194 -0.9810  0.3275 -2.5597
21368SOL     OW62455   3.879   7.959   6.065 -0.6709 -0.3410 -0.1689
21368SOL    HW162456   3.957   7.896   6.067 -1.0652 -0.9040 -2.1008
21368SOL    HW262457   3.896   8.032   5.999  0.3990  2.4756  3.0150
21369SOL     OW62458   2.389   9.170   3.068  0.5420 -0.5061 -0.1016
21369SOL    HW162459   2.333   9.156   3.149 -1.2118  0.6633 -1.0698
21369SOL    HW262460   2.362   9.105   2.997  0.9088 -0.4286 -0.3148
21372SOL     OW62461   2.284   4.954   3.658  0.5223 -0.1605  0.0809
21372SOL    HW162462   2.362   4.892   3.656  0.1864 -0.5921  0.2704
21372SOL    HW262463   2.219   4.923   3.727  0.6530  0.7654  0.6291
21375SOL     OW62464   6.067   0.028   3.319  0.2444  0.0368 -0.2509
21375SOL    HW162465   6.107   0.120   3.319 -1.2462  0.6990 -0.8221
21375SOL    HW262466   6.073  -0.012   3.228  1.3957 -0.6694  0.1240
21376SOL     OW62467   7.673   7.442   3.066 -0.0188  0.5527 -0.6654
21376SOL    HW162468   7.763   7.444   3.022 -0.2428  0.6219 -1.1156
21376SOL    HW262469   7.627   7.529   3.050  0.1756  0.8357  0.2746
21377SOL     OW62470   5.457   9.728   5.407  0.2499 -0.1720  0.0738
21377SOL    HW162471   5.517   9.665   5.456 -0.7738 -0.1326  1.3969
21377SOL    HW262472   5.456   9.817   5.453 -0.2461  0.0591 -0.3690
21382SOL     OW62473   1.977   2.907   1.579 -0.2209  0.0253 -0.0868
21382SOL    HW162474   2.033   2.825   1.574  3.0282  2.1228  0.1606
21382SOL    HW262475   1.937   2.915   1.671  1.4998 -0.0373  0.6964
21383SOL     OW62476   9.364   1.495   4.609 -0.8762 -0.0515 -0.6996
21383SOL    HW162477   9.383   1.509   4.511  0.7330 -0.2522 -0.4369
21383SOL    HW262478   9.296   1.562   4.640 -0.7410  0.5895 -1.7582
21384SOL     OW62479   0.384   5.431   4.821  0.0039  0.3518 -0.2129
21384SOL    HW162480   0.338   5.388   4.899  0.4962 -0.2267 -0.2447
21384SOL    HW262481   0.319   5.493   4.775 -1.5418 -2.2666 -1.7085
21385SOL     OW62482   2.493   7.098   1.643 -0.3296 -0.4659 -0.1405
21385SOL    HW162483   2.393   7.101   1.654 -0.3239 -1.3107  0.2003
21385SOL    HW262484   2.526   7.008   1.671  0.4477 -0.4429 -0.9821
21386SOL     OW62485   8.482   1.680   2.039  0.3643  0.5424  1.0603
21386SOL    HW162486   8.467   1.635   1.951  1.3982  0.9474  0.6770
21386SOL    HW262487   8.425   1.762   2.044  3.2339  2.7249 -0.8809
21388SOL     OW62488   8.877   0.565   4.374 -0.0846  0.4849  0.0979
21388SOL    HW162489   8.848   0.633   4.442  0.3289 -0.2202  0.9974
21388SOL    HW262490   8.804   0.497   4.363 -0.9478  1.6524 -1.6060
21389SOL     OW62491   8.023   4.559   0.200  0.0432 -0.6120  0.0358
21389SOL    HW162492   8.007   4.498   0.277 -0.7274  0.9127  1.0929
21389SOL    HW262493   7.938   4.606   0.176  1.1238  1.8098  0.7616
21392SOL     OW62494   6.329   0.393   5.926  0.2633 -0.1124  0.3680
21392SOL    HW162495   6.427   0.383   5.914  0.5867  0.6371  2.2199
21392SOL    HW262496   6.281   0.359   5.845  2.0734  0.1789 -0.8433
21394SOL     OW62497   1.307   3.898   3.855 -0.2039  0.0919  0.2370
21394SOL    HW162498   1.276   3.868   3.945 -0.3199 -0.8032 -0.0897
21394SOL    HW262499   1.387   3.845   3.828  0.1667  0.7453  0.0553
21395SOL     OW62500   1.818   2.866   4.331 -0.2231 -0.5126 -0.2673
21395SOL    HW162501   1.882   2.791   4.345  0.8335  0.5876  0.8982
21395SOL    HW262502   1.745   2.861   4.399  0.4267  0.1221  0.4790
21396SOL     OW62503   7.194   7.694   7.137 -0.6285 -0.6130  0.0887
21396SOL    HW162504   7.158   7.753   7.064 -0.4008 -1.0904 -0.4194
21396SOL    HW262505   7.257   7.747   7.194 -0.3776 -0.3819 -0.3982
21397SOL     OW62506   4.873   7.816   2.867  0.2477  0.1076 -0.8801
21397SOL    HW162507   4.919   7.853   2.947 -3.1614  0.7834  0.8904
21397SOL    HW262508   4.844   7.722   2.887  0.6823 -0.2370 -1.8763
21398SOL     OW62509   8.008   7.474   2.811  0.7732 -0.1936  0.4895
21398SOL    HW162510   8.055   7.518   2.887  0.1220 -1.0282  1.3975
21398SOL    HW262511   7.911   7.499   2.813  0.8938  0.3857 -0.5278
21399SOL     OW62512   3.343   9.079   1.117  0.0428  0.2237  0.0274
21399SOL    HW162513   3.351   9.166   1.068 -0.4188 -0.0250 -0.4876
21399SOL    HW262514   3.433   9.037   1.124  0.3000  0.8317  0.4443
21400SOL     OW62515   2.184   7.086   2.530  0.0603 -0.4471 -0.1861
21400SOL    HW162516   2.088   7.057   2.522  0.0773 -1.1645  1.9243
21400SOL    HW262517   2.190   7.163   2.594  1.0139 -0.9611  0.3441
21403SOL     OW62518   2.274   9.592   7.575 -0.4982 -0.7310 -0.0167
21403SOL    HW162519   2.311   9.563   7.487 -0.9950 -0.7302 -0.2229
21403SOL    HW262520   2.265   9.692   7.576  1.0622 -0.5679  0.6365
21404SOL     OW62521   6.536   6.215   1.249 -0.0974 -0.1005  0.6687
21404SOL    HW162522   6.549   6.200   1.151  0.5889 -2.5816  1.0984
21404SOL    HW262523   6.439   6.225   1.269 -0.1908  1.1170 -0.3434
21405SOL     OW62524   3.618   9.219   4.278 -0.4455 -0.1575 -1.1145
21405SOL    HW162525   3.658   9.220   4.369  1.6905 -0.4131 -2.0194
21405SOL    HW262526   3.523   9.247   4.283 -0.1144  0.6391  1.0825
21406SOL     OW62527   9.362   3.677   1.433  0.1788  0.1801 -0.1507
21406SOL    HW162528   9.360   3.683   1.333  1.2348 -2.5501 -0.3761
21406SOL    HW262529   9.379   3.582   1.461  0.0811  0.9260  2.6301
21409SOL     OW62530   9.320   1.121   2.239 -0.2889 -0.3478  0.6475
21409SOL    HW162531   9.261   1.108   2.160  0.3592  0.0094  0.0977
21409SOL    HW262532   9.294   1.057   2.311 -1.2568 -0.2817  0.3647
21411SOL     OW62533   3.522   1.985   4.287  0.4868 -0.3354  0.5241
21411SOL    HW162534   3.510   1.887   4.275 -0.1114 -0.4034  1.5872
21411SOL    HW262535   3.582   2.021   4.215 -2.1089 -0.8595 -1.9772
21412SOL     OW62536   5.360   8.511   3.482  0.4438  0.4766 -0.2123
21412SOL    HW162537   5.440   8.504   3.542  1.9001  0.4844 -2.1086
21412SOL    HW262538   5.296   8.437   3.502  1.5304 -0.2945  0.4604
21414SOL     OW62539   3.306   7.214   2.334  0.0729 -0.1551 -0.6743
21414SOL    HW162540   3.351   7.233   2.422  0.4118  2.5369 -1.3827
21414SOL    HW262541   3.372   7.224   2.260 -0.7729 -0.0537 -1.4163
21415SOL     OW62542   2.633   1.004   2.381 -0.2267  0.4130 -0.3205
21415SOL    HW162543   2.559   0.952   2.338 -0.2589  0.3714 -0.2135
21415SOL    HW262544   2.721   0.971   2.347 -0.1980 -0.4388  0.5516
21416SOL     OW62545   1.322   4.579   2.886 -0.0437 -0.0850 -0.0150
21416SOL    HW162546   1.400   4.551   2.831 -0.2379  1.0890 -0.9113
21416SOL    HW262547   1.262   4.638   2.831 -0.0909  1.3378  1.5476
21417SOL     OW62548   1.241   1.235   4.864 -0.0446 -0.0604 -0.0876
21417SOL    HW162549   1.297   1.290   4.803 -0.5357  0.1972 -0.3043
21417SOL    HW262550   1.191   1.167   4.811 -0.6530  0.3178  0.0071
21420SOL     OW62551   8.995   0.351   0.489 -0.0812  0.0484 -0.2137
21420SOL    HW162552   8.927   0.286   0.456 -0.3666  0.4788 -0.4763
21420SOL    HW262553   9.070   0.357   0.422 -0.9310  1.3390 -1.0572
21421SOL     OW62554   7.651   7.081   2.279  0.6340  0.1175  0.2620
21421SOL    HW162555   7.674   7.048   2.370  1.8460  1.7585  0.5672
21421SOL    HW262556   7.602   7.168   2.286  2.5681  1.3086 -0.6915
21422SOL     OW62557   4.779   8.373   6.085  0.0884 -0.5016  0.0045
21422SOL    HW162558   4.738   8.288   6.120 -0.6717 -0.5200 -0.9107
21422SOL    HW262559   4.870   8.353   6.047  0.4547 -0.6739  0.9647
21423SOL     OW62560   3.681   3.926   4.208 -0.0866 -0.0483  0.1334
21423SOL    HW162561   3.753   3.937   4.277 -0.4158 -1.1285  0.6533
21423SOL    HW262562   3.611   3.995   4.222 -0.4501 -0.6451  1.2548
21424SOL     OW62563   9.161   4.871   2.218  0.7911 -0.1750  0.4038
21424SOL    HW162564   9.118   4.788   2.252  0.6441  0.4703  1.8307
21424SOL    HW262565   9.216   4.850   2.137 -2.1495 -1.0264 -1.4473
21425SOL     OW62566   7.321   8.088   3.381 -0.3001 -0.2983 -0.2189
21425SOL    HW162567   7.250   8.063   3.316 -0.5776  0.5604 -0.2477
21425SOL    HW262568   7.379   8.159   3.342  0.5624 -0.9733 -0.1813
21427SOL     OW62569   4.552   1.869   6.516 -0.2126 -0.4763 -0.3213
21427SOL    HW162570   4.630   1.844   6.573 -0.4826 -0.1433  0.2019
21427SOL    HW262571   4.583   1.926   6.439 -0.3994  2.8778  1.9688
21428SOL     OW62572   5.187   9.456   5.213  0.5274 -0.0447  0.4846
21428SOL    HW162573   5.187   9.365   5.255  1.2697 -1.0359 -1.6214
21428SOL    HW262574   5.095   9.476   5.178 -0.3196  1.1279  3.1785
21429SOL     OW62575   0.940   4.313   4.793  0.7667  0.1864 -0.3627
21429SOL    HW162576   0.862   4.276   4.743  1.1609 -1.3358  0.0947
21429SOL    HW262577   0.999   4.365   4.731  1.3223 -1.7794 -1.5215
21430SOL     OW62578   5.378   8.791   2.344  0.3908  0.2434 -0.2776
21430SOL    HW162579   5.413   8.734   2.418 -1.7992  0.3419  0.8793
21430SOL    HW262580   5.285   8.762   2.322  0.6227  0.9465 -2.2525
21431SOL     OW62581   2.245   6.387   7.055  0.3177 -0.3231 -0.0881
21431SOL    HW162582   2.301   6.460   7.015 -0.1116 -0.4785 -0.9866
21431SOL    HW262583   2.162   6.427   7.094  0.7424 -0.1692  0.6586
21432SOL     OW62584   3.085   7.893   0.318  0.6591  0.2819 -0.2895
21432SOL    HW162585   3.027   7.913   0.239  2.7049  0.7149 -1.7369
21432SOL    HW262586   3.105   7.795   0.321  1.4968  0.4259 -0.9810
21433SOL     OW62587   9.433   8.497   5.062  0.2563  0.3340  0.2172
21433SOL    HW162588   9.400   8.545   5.143 -0.7609  0.2443 -0.1364
21433SOL    HW262589   9.464   8.564   4.994  0.5887  0.4275  0.4610
21434SOL     OW62590   2.170   6.092   7.309 -0.0150  0.7335 -0.0014
21434SOL    HW162591   2.210   6.182   7.292  0.0480  0.6834 -0.1127
21434SOL    HW262592   2.086   6.082   7.255  1.6442 -0.4997 -2.4469
21435SOL     OW62593   5.329   8.877   3.579  0.2246  0.2052  0.2140
21435SOL    HW162594   5.336   8.816   3.500 -0.4980 -1.0290  1.0910
21435SOL    HW262595   5.270   8.955   3.556  1.0087  0.5003 -0.8494
21437SOL     OW62596   7.746   0.147   4.330  1.1330  0.4056 -0.0549
21437SOL    HW162597   7.656   0.170   4.292  0.5971 -1.4946  0.0233
21437SOL    HW262598   7.750   0.176   4.426  0.1624 -0.5236  0.2869
21438SOL     OW62599   2.374   0.814   6.139 -0.1231 -0.1397  0.2938
21438SOL    HW162600   2.290   0.842   6.093  0.4774 -1.2660 -1.5758
21438SOL    HW262601   2.397   0.879   6.211 -1.8501  0.9098 -0.0823
21439SOL     OW62602   3.773   1.699   4.164 -0.2970  0.7385 -0.2565
21439SOL    HW162603   3.809   1.718   4.255 -0.5603 -0.7003  0.1492
21439SOL    HW262604   3.676   1.677   4.170  0.2739 -1.9775 -0.5599
21440SOL     OW62605   8.010   6.443   4.904  0.0372  0.3136  0.3117
21440SOL    HW162606   7.921   6.450   4.860 -0.4186 -0.6122  1.0601
21440SOL    HW262607   8.079   6.416   4.836 -0.5322 -0.4519  0.0379
21441SOL     OW62608   7.433   4.076   2.430  0.0737 -0.0640 -0.1198
21441SOL    HW162609   7.433   4.049   2.527 -0.4541  0.0183 -0.0933
21441SOL    HW262610   7.345   4.117   2.408  0.2899  0.1551 -0.5734
21443SOL     OW62611   7.385   4.619   7.654 -0.3214 -0.0993  0.3775
21443SOL    HW162612   7.340   4.703   7.684  1.4321  0.9078  0.2596
21443SOL    HW262613   7.425   4.572   7.733 -0.8813 -0.5722  0.3816
21444SOL     OW62614   3.487   6.393   2.470 -0.8512 -0.3950  0.4960
21444SOL    HW162615   3.402   6.342   2.463 -0.6960 -0.3559 -2.0224
21444SOL    HW262616   3.564   6.329   2.478 -0.9241 -0.4857  0.4594
21445SOL     OW62617   1.973   3.499   5.793 -0.0694  0.1771  0.3880
21445SOL    HW162618   1.898   3.560   5.769 -1.6531 -2.0691 -0.5362
21445SOL    HW262619   1.959   3.463   5.885  1.4675  2.0669  1.3859
21447SOL     OW62620   3.982   0.465   4.279  0.6018  0.0041  0.4548
21447SOL    HW162621   3.937   0.376   4.266  1.1256 -0.1028 -0.6142
21447SOL    HW262622   3.944   0.531   4.214  0.3721  0.5170  1.0998
21449SOL     OW62623   3.436   0.671   1.462  0.6889  0.3001  0.3401
21449SOL    HW162624   3.516   0.647   1.406  1.1156 -0.5166  1.2786
21449SOL    HW262625   3.354   0.630   1.422  1.0882 -0.8559  0.6666
21450SOL     OW62626   8.097   4.590   3.779 -0.1040  0.0791 -0.4039
21450SOL    HW162627   8.000   4.593   3.756 -0.1071 -3.3674 -1.2107
21450SOL    HW262628   8.151   4.624   3.702 -0.5780 -0.7518 -1.1085
21451SOL     OW62629   0.751   7.705   4.691 -0.5122  0.3181  0.2279
21451SOL    HW162630   0.753   7.610   4.722  0.6857  0.9609  2.1572
21451SOL    HW262631   0.726   7.707   4.594  2.3722 -2.1851 -0.6608
21452SOL     OW62632   0.594   4.310   1.113  0.4695 -0.2206 -0.2992
21452SOL    HW162633   0.599   4.367   1.031  0.3207  1.7596  1.0183
21452SOL    HW262634   0.629   4.219   1.092  1.5687  0.6034 -2.2537
21453SOL     OW62635   7.864   2.206   2.794 -0.1045 -0.4725  0.1565
21453SOL    HW162636   7.943   2.204   2.733 -1.1596 -0.2373 -1.2595
21453SOL    HW262637   7.867   2.128   2.856  0.5915 -1.1665 -0.7303
21454SOL     OW62638   4.380   9.637   0.583  0.5048 -0.3459 -0.0779
21454SOL    HW162639   4.462   9.654   0.638  1.2820 -0.5958 -1.1459
21454SOL    HW262640   4.302   9.684   0.625  1.6652  1.9245 -0.3892
21455SOL     OW62641   5.020   2.633   6.002  0.0699 -0.2713  0.1283
21455SOL    HW162642   4.970   2.714   6.032 -0.1375 -0.9667  1.6931
21455SOL    HW262643   5.103   2.662   5.953 -0.6221  0.8754 -0.3974
21456SOL     OW62644   1.947   0.128   2.514 -0.3401 -0.2003 -0.1581
21456SOL    HW162645   1.982   0.083   2.595  3.0787  2.0662 -0.2661
21456SOL    HW262646   1.937   0.062   2.440 -0.9669 -1.7885  1.3286
21457SOL     OW62647   9.420   7.399   3.782  0.1370 -0.1984 -0.4668
21457SOL    HW162648   9.513   7.377   3.812  0.2473  1.5616  0.5361
21457SOL    HW262649   9.372   7.447   3.856 -1.6013 -1.1836 -0.9460
21459SOL     OW62650   3.904   9.874   5.303  0.0185 -0.0131  0.0179
21459SOL    HW162651   3.912   9.888   5.205 -0.3880 -0.0938 -0.0258
21459SOL    HW262652   3.880   9.960   5.348  1.0826  0.2256  0.1484
21460SOL     OW62653   4.358   5.869   2.330  0.0165 -0.6316 -0.1324
21460SOL    HW162654   4.403   5.826   2.408 -0.0636 -0.8277 -0.1933
21460SOL    HW262655   4.398   5.835   2.245 -0.7116 -1.3309 -0.2031
21461SOL     OW62656   5.396   1.836   4.544 -0.0661 -0.6443  0.4364
21461SOL    HW162657   5.300   1.810   4.536  0.0768 -1.0791  0.0785
21461SOL    HW262658   5.445   1.810   4.460  0.3565 -0.4156  0.6084
21463SOL     OW62659   2.229   0.590   2.791  0.4348 -0.2923  0.1701
21463SOL    HW162660   2.212   0.684   2.760  0.5432  0.6203  2.7885
21463SOL    HW262661   2.301   0.550   2.735 -1.0798  0.4008 -2.3968
21464SOL     OW62662   6.216   0.925   4.745 -0.3751 -0.2319  0.0784
21464SOL    HW162663   6.228   0.996   4.814 -1.5734 -0.0139  0.0762
21464SOL    HW262664   6.261   0.953   4.660  0.9826 -0.4391  0.7210
21465SOL     OW62665   4.257   4.432   0.638 -0.0045 -0.3284  0.2833
21465SOL    HW162666   4.268   4.439   0.539  0.2007 -2.1134  0.1536
21465SOL    HW262667   4.294   4.344   0.669  0.3763  0.4229  2.0124
21466SOL     OW62668   2.873   3.718   2.360  0.6222  0.0775  0.2164
21466SOL    HW162669   2.969   3.697   2.375  0.0327 -3.4341 -0.4769
21466SOL    HW262670   2.863   3.812   2.328  3.7206  0.7365  1.0994
21467SOL     OW62671   1.247   3.113   6.545 -0.2548  0.4603  0.1722
21467SOL    HW162672   1.147   3.116   6.544 -0.3053  1.3613  2.7643
21467SOL    HW262673   1.277   3.018   6.554 -0.9796  0.3315  1.4788
21468SOL     OW62674   3.362   6.021   6.741 -0.4514  0.0312 -0.1493
21468SOL    HW162675   3.306   5.991   6.818  1.1093  0.6144  1.2549
21468SOL    HW262676   3.457   5.993   6.756  0.1292  1.4056 -1.1570
21469SOL     OW62677   2.423   8.433   5.599 -0.0159 -0.0901 -0.2035
21469SOL    HW162678   2.401   8.530   5.609 -1.4107 -0.5317  1.1505
21469SOL    HW262679   2.513   8.424   5.557  0.5519  1.7840  0.5468
21470SOL     OW62680   6.998   5.917   1.435 -0.2157  0.3482  0.2878
21470SOL    HW162681   7.000   5.818   1.453 -1.4935  0.1049 -0.7826
21470SOL    HW262682   7.027   5.966   1.517  1.3288 -0.9327  0.5483
21471SOL     OW62683   7.643   6.611   2.609  0.3293  0.7885  0.0721
21471SOL    HW162684   7.557   6.607   2.559  0.5262  0.3612 -0.2344
21471SOL    HW262685   7.713   6.651   2.550  0.7908 -0.5757 -0.3186
21473SOL     OW62686   9.129   8.165   1.161  0.0758 -0.2068  0.4481
21473SOL    HW162687   9.058   8.235   1.174  0.9410  0.9178 -0.7805
21473SOL    HW262688   9.086   8.075   1.163 -1.3982  0.4461 -0.1608
21474SOL     OW62689   2.942   5.712   0.773  0.4519  0.2431 -0.2969
21474SOL    HW162690   2.885   5.716   0.691 -0.5371  2.7961  0.4871
21474SOL    HW262691   3.038   5.718   0.747  0.1997 -0.0241 -1.3210
21477SOL     OW62692   4.919   7.486   1.574  0.4531  0.3469  0.2627
21477SOL    HW162693   4.856   7.564   1.575  0.5109  0.3903  0.5459
21477SOL    HW262694   4.943   7.464   1.480  1.3750  1.4340  0.2369
21478SOL     OW62695   0.087   2.528   3.750  0.1480  0.0340 -0.3158
21478SOL    HW162696   0.086   2.493   3.843  0.0538  0.4998 -0.1399
21478SOL    HW262697   0.134   2.617   3.748 -0.4254  0.3374 -0.5978
21480SOL     OW62698   8.752   3.836   7.448  0.3090  0.2029  0.4496
21480SOL    HW162699   8.722   3.929   7.427 -1.3894 -0.0250  1.7276
21480SOL    HW262700   8.772   3.787   7.364  0.0936  1.3561 -0.2840
21481SOL     OW62701   3.355   5.332   2.557 -0.4924  0.2720  0.3666
21481SOL    HW162702   3.318   5.310   2.466 -1.5499 -0.6167  1.0036
21481SOL    HW262703   3.445   5.289   2.568  0.5425  1.9963 -0.9861
21482SOL     OW62704   3.791   1.745   3.867  0.0937 -0.9994  0.0182
21482SOL    HW162705   3.890   1.761   3.864  0.1683 -1.5012 -0.3343
21482SOL    HW262706   3.763   1.730   3.962  0.3114 -0.5845  0.1483
21483SOL     OW62707   9.416   9.812   4.917  0.3639 -0.2583 -0.3751
21483SOL    HW162708   9.394   9.725   4.962 -0.6844  0.3395  0.2972
21483SOL    HW262709   9.391   9.807   4.821 -3.1486  0.5091  0.4366
21484SOL     OW62710   3.935   9.885   5.040 -0.1488  0.9209 -0.1421
21484SOL    HW162711   3.859   9.833   5.000  1.0980 -0.9450 -0.1113
21484SOL    HW262712   4.021   9.857   4.998  0.8042  1.3232  1.4793
21485SOL     OW62713   9.550   4.740   0.598  0.2179  0.1182 -0.1449
21485SOL    HW162714   9.467   4.749   0.544 -0.3117  1.6196  0.8905
21485SOL    HW262715   9.533   4.682   0.677 -0.2835  1.6403  0.8868
21486SOL     OW62716   9.017   7.215   3.127 -0.0689  0.0843  0.0337
21486SOL    HW162717   8.930   7.225   3.175  0.9291 -0.3865  1.9856
21486SOL    HW262718   9.088   7.268   3.174  0.8119  0.0673 -1.2449
21488SOL     OW62719   7.937   0.676   0.836  0.2937 -0.1329 -0.0449
21488SOL    HW162720   8.015   0.739   0.844 -0.2147  0.5380 -0.2350
21488SOL    HW262721   7.970   0.585   0.813  1.0914 -0.0749  0.8368
21489SOL     OW62722   9.027   2.398   2.455  0.0758  0.0844  0.2524
21489SOL    HW162723   8.969   2.478   2.438 -0.8667 -0.4440  0.9859
21489SOL    HW262724   9.018   2.334   2.379  1.9431  1.3202 -1.0422
21491SOL     OW62725   0.142   5.139   4.085  0.4680  0.0077  0.2138
21491SOL    HW162726   0.106   5.047   4.069 -0.2216  0.2412  0.3721
21491SOL    HW262727   0.128   5.164   4.181  0.4432  0.3667  0.1175
21492SOL     OW62728   8.420   0.566   3.160  0.6823  0.2121  0.2448
21492SOL    HW162729   8.406   0.515   3.245  0.4144 -1.8148 -0.9757
21492SOL    HW262730   8.395   0.662   3.174 -0.0537 -0.2450  2.2436
21494SOL     OW62731   0.902   8.636   1.470 -0.8905 -0.1137 -0.0446
21494SOL    HW162732   0.839   8.615   1.544 -2.3048  0.5645 -1.0282
21494SOL    HW262733   0.907   8.558   1.407 -2.2107  0.4992 -0.9537
21495SOL     OW62734   1.012   5.576   4.924 -0.4610  0.0149  0.0888
21495SOL    HW162735   0.973   5.499   4.973 -0.2889 -0.5621 -0.6751
21495SOL    HW262736   1.057   5.638   4.989  1.0952 -1.5172  0.5156
21496SOL     OW62737   5.296   3.357   5.319  0.3383  0.4248  0.3905
21496SOL    HW162738   5.262   3.386   5.229 -1.6957  1.0293  1.3354
21496SOL    HW262739   5.295   3.435   5.381 -0.0914 -0.4349  1.4718
21497SOL     OW62740   5.385   1.507   7.289 -0.3738  0.0931 -0.3887
21497SOL    HW162741   5.385   1.505   7.189  1.7875 -0.6573 -0.3906
21497SOL    HW262742   5.428   1.424   7.324  1.1830  1.4906  1.1266
21498SOL     OW62743   7.192   8.443   7.505  0.0676 -0.2605  0.4905
21498SOL    HW162744   7.143   8.409   7.585 -1.1980  3.8332  1.5511
21498SOL    HW262745   7.127   8.471   7.435  1.0029  0.5916 -0.0628
21499SOL     OW62746   2.824   2.834   0.563  0.0738 -0.3317 -0.0397
21499SOL    HW162747   2.857   2.923   0.596 -0.5678 -0.2400  0.3679
21499SOL    HW262748   2.884   2.802   0.490 -0.4169  1.0347 -1.0676
21500SOL     OW62749   9.789   0.789   7.537  0.3392  0.1832 -0.1611
21500SOL    HW162750   9.747   0.702   7.565 -1.1340  0.2638 -2.0305
21500SOL    HW262751   9.864   0.770   7.473 -0.8624  0.3329 -1.6366
21501SOL     OW62752   1.643   8.997   5.338 -0.6698  0.0398 -0.0508
21501SOL    HW162753   1.611   9.075   5.392 -1.6867 -0.4924  0.1275
21501SOL    HW262754   1.608   8.912   5.378  1.0868 -0.5730  0.2218
21502SOL     OW62755   0.518   9.782   5.810 -0.2234  0.4906  0.2742
21502SOL    HW162756   0.615   9.758   5.799 -0.0829  0.8190  0.7743
21502SOL    HW262757   0.485   9.826   5.727  0.1155  0.5725  0.1829
21503SOL     OW62758   5.413   9.659   4.836 -0.1744 -0.1996 -0.4440
21503SOL    HW162759   5.500   9.706   4.853 -0.7550  1.0120 -0.7822
21503SOL    HW262760   5.404   9.582   4.900  1.5275 -0.8666 -0.9675
21504SOL     OW62761   6.985   7.396   6.775  0.0678  0.1873 -0.3262
21504SOL    HW162762   7.059   7.390   6.707 -0.3527  1.3178 -0.8945
21504SOL    HW262763   7.025   7.397   6.866  0.5643 -3.0255 -0.4496
21507SOL     OW62764   4.673   9.415   4.234 -0.3898  0.4144  0.4272
21507SOL    HW162765   4.768   9.444   4.248 -0.2742  0.0096  0.4977
21507SOL    HW262766   4.665   9.318   4.256 -0.4778  0.0506 -1.1311
21508SOL     OW62767   8.725   9.528   4.544 -0.0333 -0.4415 -0.4789
21508SOL    HW162768   8.637   9.511   4.590  0.2653 -0.2870  0.1565
21508SOL    HW262769   8.709   9.544   4.447 -0.9738  2.0148  0.0303
21509SOL     OW62770   2.129   6.093   6.006 -0.1131  0.0911 -0.7103
21509SOL    HW162771   2.146   6.001   5.971 -0.5096 -0.0750 -0.4729
21509SOL    HW262772   2.192   6.112   6.082 -0.4068 -0.2020 -0.3885
21510SOL     OW62773   7.927   7.790   1.141 -0.0771  0.4351 -0.1473
21510SOL    HW162774   7.915   7.820   1.236 -0.7814 -0.3064  0.0014
21510SOL    HW262775   8.025   7.785   1.120  0.1895 -2.3045  1.4915
21512SOL     OW62776   9.558   4.708   1.084 -0.0351 -0.5635 -0.6005
21512SOL    HW162777   9.626   4.781   1.071  1.1449 -1.4022  0.7062
21512SOL    HW262778   9.485   4.718   1.017  1.0828  0.7161 -1.6500
21513SOL     OW62779   6.948   1.153   1.557 -0.0613 -0.6071 -0.5482
21513SOL    HW162780   7.028   1.168   1.498 -1.3889 -0.0190 -2.2374
21513SOL    HW262781   6.976   1.103   1.639  2.1544  0.1402 -0.8120
21514SOL     OW62782   7.780   5.842   4.257 -0.1438  0.1195 -0.0597
21514SOL    HW162783   7.821   5.902   4.325 -0.1583  1.0907 -0.9007
21514SOL    HW262784   7.847   5.773   4.229  0.1413  0.2470  0.3028
21515SOL     OW62785   9.596   6.515   4.283  0.0434  0.1735  0.2600
21515SOL    HW162786   9.606   6.561   4.195  1.7498  1.7942  1.2745
21515SOL    HW262787   9.518   6.452   4.279 -0.7206  1.2170 -1.9702
21516SOL     OW62788   6.119   3.477   1.637  0.5272  0.0921  0.4965
21516SOL    HW162789   6.155   3.565   1.607 -0.5235  0.3689  0.0283
21516SOL    HW262790   6.190   3.427   1.687  0.6762  1.8292  2.0585
21517SOL     OW62791   5.879   4.270   0.073 -0.1521 -0.0639 -0.1471
21517SOL    HW162792   5.955   4.303   0.018 -1.5743  0.1394 -2.0329
21517SOL    HW262793   5.910   4.257   0.168  1.9640  0.8850 -0.6712
21518SOL     OW62794   3.284   8.495   2.461  0.5217 -0.1669  0.5340
21518SOL    HW162795   3.365   8.479   2.404  0.8346  0.0000  0.9334
21518SOL    HW262796   3.300   8.573   2.520  0.0942 -0.1821  0.6692
21519SOL     OW62797   1.909   7.682   3.247 -0.5642  0.2493  0.4680
21519SOL    HW162798   1.954   7.767   3.221 -1.4401  0.2797 -1.0457
21519SOL    HW262799   1.920   7.615   3.173 -1.1896 -0.4454  0.9950
21520SOL     OW62800   0.523   9.123   3.767  0.6254  0.5492 -0.1119
21520SOL    HW162801   0.572   9.076   3.841  0.3558  0.8481  0.2606
21520SOL    HW262802   0.554   9.089   3.679 -0.5233 -1.3087  0.1719
21523SOL     OW62803   8.441   9.169   7.683 -0.5737  0.3032 -0.8060
21523SOL    HW162804   8.419   9.167   7.585 -2.0939  0.6058 -0.4794
21523SOL    HW262805   8.417   9.259   7.721  1.6448  0.7951 -0.5145
21524SOL     OW62806   2.872   8.542   6.096 -0.3813  0.0061 -0.1915
21524SOL    HW162807   2.873   8.473   6.024  2.5418  0.9354 -1.1119
21524SOL    HW262808   2.896   8.631   6.058 -1.0218  0.9548  1.5410
21525SOL     OW62809   2.274   8.359   0.132 -0.2306 -0.4527  0.2080
21525SOL    HW162810   2.370   8.353   0.160  0.2149  1.2770 -0.8420
21525SOL    HW262811   2.245   8.272   0.093  1.0220 -0.8708  0.1863
21526SOL     OW62812   0.405   0.539   0.766 -0.0984 -0.2708 -0.9619
21526SOL    HW162813   0.492   0.582   0.790  0.6304 -1.3695 -1.5813
21526SOL    HW262814   0.331   0.586   0.812  0.7937  0.9054 -0.6990
21527SOL     OW62815   8.680   0.003   0.168  0.3251 -0.2433 -0.2654
21527SOL    HW162816   8.763   0.026   0.218  1.8005 -0.3812 -2.5836
21527SOL    HW262817   8.654   0.080   0.109 -0.2212 -0.8281 -0.7994
21528SOL     OW62818   4.652   7.082   3.439  0.3139 -0.5437 -0.2211
21528SOL    HW162819   4.678   6.986   3.452 -1.8331 -1.0022  0.9257
21528SOL    HW262820   4.559   7.096   3.472  0.9112  2.1425  0.4270
21530SOL     OW62821   7.108   8.714   6.992 -0.4154  0.1268  0.1198
21530SOL    HW162822   7.187   8.704   6.931 -0.8218  0.0342 -0.3946
21530SOL    HW262823   7.060   8.626   6.998 -1.2531  0.5324 -0.6253
21532SOL     OW62824   1.541   3.868   4.248  0.6066 -0.2131 -0.3496
21532SOL    HW162825   1.517   3.774   4.222 -0.6779  0.3367 -1.2019
21532SOL    HW262826   1.460   3.914   4.285  0.8680  0.9958 -1.2525
21534SOL     OW62827   5.132   4.100   7.674  0.1590  0.2519 -0.2698
21534SOL    HW162828   5.069   4.066   7.744 -0.2749  0.5806 -0.4932
21534SOL    HW262829   5.145   4.029   7.604  1.6632 -0.5834  0.8309
21537SOL     OW62830   0.233   6.040   7.254 -0.1508  0.0115 -0.3947
21537SOL    HW162831   0.229   6.131   7.296 -0.1566  0.4184 -1.2654
21537SOL    HW262832   0.147   6.023   7.206 -0.9383 -1.2615  1.4017
21539SOL     OW62833   4.911   1.491   7.100 -0.3502  0.4970 -0.2040
21539SOL    HW162834   4.901   1.394   7.078 -0.8934  0.5049  0.0045
21539SOL    HW262835   4.916   1.544   7.015 -0.7765  0.3590 -0.3137
21540SOL     OW62836   5.140   8.997   7.591  0.4220 -0.0412  0.5397
21540SOL    HW162837   5.097   9.085   7.573 -1.0631 -0.6642  0.9167
21540SOL    HW262838   5.239   9.006   7.585  0.3421  1.9392  1.8413
21543SOL     OW62839   8.843   0.045   0.753  0.2385  0.3875 -0.1310
21543SOL    HW162840   8.818   0.032   0.657 -0.0916 -1.3439  0.1862
21543SOL    HW262841   8.931   0.093   0.758  0.9869 -0.8136 -1.3392
21544SOL     OW62842   7.075   7.034   1.874 -0.2953  0.4764 -1.1687
21544SOL    HW162843   7.089   7.130   1.852  0.0946  0.7198  0.0995
21544SOL    HW262844   7.151   7.001   1.930 -1.4172 -0.0316  0.0846
21546SOL     OW62845   9.751   0.213   4.199  0.1548 -0.3810 -0.5769
21546SOL    HW162846   9.847   0.189   4.186  0.2021 -1.2524  1.2029
21546SOL    HW262847   9.744   0.297   4.251 -0.0388 -0.7514  0.0044
21547SOL     OW62848   9.056   6.265   3.622  0.6588  0.2912  0.1498
21547SOL    HW162849   8.967   6.279   3.667  0.5280  1.3273 -0.3996
21547SOL    HW262850   9.076   6.168   3.617 -0.2258  0.0705  0.7223
21548SOL     OW62851   2.732   1.666   1.856  0.1331 -0.3574  0.3620
21548SOL    HW162852   2.758   1.569   1.861  0.4865 -0.3051 -0.4762
21548SOL    HW262853   2.638   1.676   1.889  0.3381 -0.8827  1.1242
21550SOL     OW62854   9.095   5.654   1.947  0.3298 -0.1825 -0.6364
21550SOL    HW162855   9.006   5.684   1.912  0.2046 -0.3500 -0.4634
21550SOL    HW262856   9.166   5.718   1.916 -0.0015  0.5555  0.1232
21553SOL     OW62857   3.686   0.366   2.248 -0.0283  0.4087  0.3456
21553SOL    HW162858   3.595   0.395   2.279  0.0542  0.4231  0.5779
21553SOL    HW262859   3.704   0.274   2.281  0.8904  1.1908  2.1019
21554SOL     OW62860   3.670   4.387   1.730  0.3722  0.0883 -0.1996
21554SOL    HW162861   3.655   4.304   1.676  2.0149  0.5075 -1.3320
21554SOL    HW262862   3.619   4.462   1.689  1.3279  0.3229 -0.9780
21556SOL     OW62863   6.482   3.546   0.141 -0.0804  0.2320  1.2727
21556SOL    HW162864   6.425   3.627   0.154  0.1435  0.3150  1.7659
21556SOL    HW262865   6.540   3.533   0.222 -0.6441 -0.8358  1.5130
21557SOL     OW62866   5.515   1.663   0.754  0.1268 -0.8209 -0.5627
21557SOL    HW162867   5.530   1.637   0.658 -0.1347  0.0137 -0.8380
21557SOL    HW262868   5.521   1.582   0.812 -0.3554 -1.4398 -1.3642
21558SOL     OW62869   9.742   2.828   3.764 -0.2838 -0.5976  0.1997
21558SOL    HW162870   9.838   2.827   3.737 -0.5193 -0.5698 -0.6557
21558SOL    HW262871   9.714   2.736   3.792  0.2338 -0.4111  1.3330
21561SOL     OW62872   3.209   6.337   3.454 -0.0537  0.6091 -0.2257
21561SOL    HW162873   3.153   6.355   3.535 -2.2222  0.2276 -1.5993
21561SOL    HW262874   3.190   6.245   3.420  0.4894  0.9297 -1.4290
21562SOL     OW62875   8.795   3.899   0.146 -0.1776 -0.2357 -0.3297
21562SOL    HW162876   8.702   3.867   0.162 -0.6568 -0.8729 -3.9953
21562SOL    HW262877   8.800   3.997   0.163 -1.1399 -0.4413  1.2703
21563SOL     OW62878   4.061   3.946   1.193  0.3511 -0.3496 -0.0667
21563SOL    HW162879   4.101   3.971   1.281 -0.3188 -0.9082  0.3927
21563SOL    HW262880   4.030   3.851   1.195 -1.0824  0.1024 -0.3943
21566SOL     OW62881   5.019   5.755   0.438  0.3745  0.1357 -0.1773
21566SOL    HW162882   5.117   5.736   0.430  0.4757  0.7117 -0.3208
21566SOL    HW262883   4.998   5.776   0.533  0.3730 -0.0685 -0.1313
21567SOL     OW62884   9.180   7.620   5.611 -0.3213  0.2535 -0.1571
21567SOL    HW162885   9.202   7.526   5.633 -0.1891  0.2476 -0.3106
21567SOL    HW262886   9.221   7.644   5.523  1.7844  1.2235  1.0321
21568SOL     OW62887   0.161   2.603   2.183  0.2118  0.3388 -0.5806
21568SOL    HW162888   0.120   2.634   2.096  0.6329  1.2150 -0.4681
21568SOL    HW262889   0.108   2.525   2.218  0.7082 -0.7525 -2.1959
21570SOL     OW62890   9.473   2.940   6.431  0.3707  0.3777  0.6708
21570SOL    HW162891   9.424   2.916   6.515  0.1088 -1.0969  0.1056
21570SOL    HW262892   9.409   2.978   6.364  0.1372 -0.6937  0.2700
21571SOL     OW62893   2.429   5.032   1.903 -0.2348 -0.0032  0.5580
21571SOL    HW162894   2.363   4.973   1.951 -1.8686 -0.0292 -1.6078
21571SOL    HW262895   2.379   5.100   1.849  1.4436 -0.7048 -2.0028
21572SOL     OW62896   7.077   8.299   2.076 -0.2533  0.1387 -0.1406
21572SOL    HW162897   6.989   8.317   2.032 -0.3591 -0.1807 -0.0584
21572SOL    HW262898   7.093   8.201   2.079 -0.6304  0.1130  1.2662
21573SOL     OW62899   0.514   3.531   2.871  0.2228 -0.2558 -0.3672
21573SOL    HW162900   0.415   3.528   2.853  0.1634 -0.2427 -0.0489
21573SOL    HW262901   0.543   3.445   2.913  0.1911  0.0602  0.3165
21574SOL     OW62902   2.834   8.310   2.613 -0.4324  0.0002  0.4678
21574SOL    HW162903   2.779   8.318   2.696 -0.4321  1.1258  0.3704
21574SOL    HW262904   2.787   8.355   2.537  0.7485  1.2957  0.4622
21575SOL     OW62905   9.314   3.879   4.794 -0.2256  0.2405 -0.8066
21575SOL    HW162906   9.394   3.933   4.819 -0.1721  0.9876 -2.5088
21575SOL    HW262907   9.289   3.819   4.870  2.4580 -0.6382 -0.5681
21577SOL     OW62908   4.455   1.051   3.180 -0.0727 -0.1078  0.1168
21577SOL    HW162909   4.424   1.017   3.091 -0.3732  1.0609 -0.2251
21577SOL    HW262910   4.535   0.999   3.210  0.3700 -0.1220 -1.0935
21578SOL     OW62911   0.170   9.887   3.875  0.1894 -0.3038 -0.2096
21578SOL    HW162912   0.120   9.909   3.791 -1.5895  0.8709  1.1128
21578SOL    HW262913   0.152   9.792   3.899  1.3949 -0.9008 -1.6057
21579SOL     OW62914   2.836   7.137   1.873 -0.2990  0.2609 -0.3220
21579SOL    HW162915   2.853   7.086   1.957 -0.6696  0.5142 -0.0944
21579SOL    HW262916   2.758   7.197   1.885  0.5737  1.4239 -0.3458
21580SOL     OW62917   8.443   8.449   2.709 -0.2553  0.6000  0.2212
21580SOL    HW162918   8.485   8.359   2.696  2.2388  1.8445 -0.7765
21580SOL    HW262919   8.382   8.447   2.788  0.2953 -1.7817  0.6089
21581SOL     OW62920   2.881   4.698   0.071  0.3239  0.3465  0.1519
21581SOL    HW162921   2.891   4.696   0.170  0.3423  1.7183  0.1939
21581SOL    HW262922   2.876   4.793   0.040 -2.5602 -0.0839 -0.8600
21582SOL     OW62923   9.942   5.515   0.861 -0.3412  0.0908  0.2983
21582SOL    HW162924   9.880   5.441   0.834  0.3760 -0.7057  0.8149
21582SOL    HW262925   9.974   5.564   0.779  0.5057 -1.2514 -0.1856
21583SOL     OW62926   8.012   5.614   7.106 -0.3023  0.1240 -0.7193
21583SOL    HW162927   8.058   5.531   7.136 -0.7565 -0.3340 -1.2682
21583SOL    HW262928   8.072   5.666   7.045 -0.0856  0.1079 -0.5189
21584SOL     OW62929   5.216   2.708   5.212  0.4030 -0.3263 -0.2332
21584SOL    HW162930   5.250   2.628   5.262  1.6683  0.7466  0.6408
21584SOL    HW262931   5.197   2.681   5.117  2.1600 -1.3394 -0.3185
21585SOL     OW62932   3.455   2.717   1.064 -0.5673  0.3489 -0.0492
21585SOL    HW162933   3.438   2.619   1.080  0.6232  0.0706 -0.4669
21585SOL    HW262934   3.378   2.755   1.013 -1.1319 -0.3278  0.2825
21586SOL     OW62935   3.330   4.546   5.298 -0.0841 -0.0996 -0.5157
21586SOL    HW162936   3.297   4.636   5.270 -0.1540 -0.1665 -0.6489
21586SOL    HW262937   3.276   4.513   5.375 -0.1202 -0.0689 -0.5278
21587SOL     OW62938   3.950   9.480   6.979 -0.1103 -0.0528  0.1741
21587SOL    HW162939   3.881   9.529   7.032 -0.3258  0.6706 -0.7642
21587SOL    HW262940   3.919   9.470   6.884  0.0623 -1.7447  0.2805
21588SOL     OW62941   9.290   4.559   0.151  0.3781  0.2444 -0.2385
21588SOL    HW162942   9.286   4.495   0.074  0.4518  0.0527 -0.0827
21588SOL    HW262943   9.200   4.563   0.194  0.3866  0.2091 -0.2190
21589SOL     OW62944   2.123   2.608   4.555  0.6841 -0.3326 -0.3062
21589SOL    HW162945   2.151   2.542   4.624  0.0909 -0.2415  0.0203
21589SOL    HW262946   2.200   2.670   4.536  0.6106  0.1114  0.8216
21591SOL     OW62947   4.978   9.028   6.299 -0.1210  0.1813 -0.2308
21591SOL    HW162948   4.930   9.097   6.244 -0.1386  0.3551 -0.0003
21591SOL    HW262949   4.949   9.036   6.395  0.2552  0.1880 -0.1162
21592SOL     OW62950   1.496   6.541   5.298  0.6378  0.2242 -0.5842
21592SOL    HW162951   1.412   6.510   5.255  1.3651 -1.4671 -0.8453
21592SOL    HW262952   1.565   6.468   5.292  2.4253  1.9105 -1.2385
21593SOL     OW62953   1.944   2.620   4.362 -0.0033  0.1728 -0.1701
21593SOL    HW162954   1.974   2.627   4.267 -1.8468 -2.9329 -1.0490
21593SOL    HW262955   2.023   2.601   4.421  1.0115  1.1714 -1.2002
21594SOL     OW62956   0.198   6.593   2.408  0.1208  0.1171  0.9721
21594SOL    HW162957   0.237   6.533   2.338  2.1269  0.2177  1.9674
21594SOL    HW262958   0.114   6.634   2.373 -0.7416 -2.4683 -0.1043
21595SOL     OW62959   6.668   9.182   4.374  0.4468 -0.2283  0.0261
21595SOL    HW162960   6.626   9.268   4.347  1.1242  0.2816  0.5803
21595SOL    HW262961   6.650   9.166   4.471  1.8852  0.2039  0.3702
21596SOL     OW62962   2.627   9.556   5.949  0.0433 -0.4610 -0.3015
21596SOL    HW162963   2.683   9.637   5.928 -1.4920  0.5942 -0.4326
21596SOL    HW262964   2.683   9.487   5.993  0.9841  1.4518  1.6052
21597SOL     OW62965   5.129   1.859   0.963  0.0828  0.1943 -0.3603
21597SOL    HW162966   5.220   1.867   0.922  0.5711 -1.1142  0.4320
21597SOL    HW262967   5.059   1.872   0.893  0.8621  2.0155 -0.8231
21598SOL     OW62968   3.209   2.383   5.851 -0.7458  0.0327 -0.2905
21598SOL    HW162969   3.243   2.290   5.835  0.2707  0.3959 -0.2597
21598SOL    HW262970   3.189   2.395   5.948  2.2905  0.8851  0.2685
21599SOL     OW62971   2.626   8.995   0.418  0.1893  0.3437  0.2328
21599SOL    HW162972   2.551   8.931   0.400  0.4501  0.4093 -1.1516
21599SOL    HW262973   2.647   8.994   0.516 -0.2643 -1.1782  0.3366
21600SOL     OW62974   1.559   8.485   6.226  0.1470  0.0852  0.0394
21600SOL    HW162975   1.575   8.566   6.284  1.0610  0.4508 -0.7210
21600SOL    HW262976   1.461   8.463   6.228 -0.1071  1.1667  0.3159
21601SOL     OW62977   1.195   6.900   5.114 -0.3192 -0.6581 -0.0380
21601SOL    HW162978   1.154   6.841   5.183 -1.6546 -0.7863 -0.9363
21601SOL    HW262979   1.133   6.977   5.095 -0.5811 -1.3521 -2.0745
21604SOL     OW62980   8.197   4.057   6.314 -0.1394  0.1361 -0.5496
21604SOL    HW162981   8.226   4.113   6.392  0.6155  0.3207 -0.9586
21604SOL    HW262982   8.178   4.116   6.236 -0.0164 -0.1171 -0.7722
21605SOL     OW62983   7.004   8.223   5.014 -0.3657 -0.1045 -0.3598
21605SOL    HW162984   6.909   8.249   4.998 -0.4784 -0.7005 -0.6980
21605SOL    HW262985   7.064   8.283   4.963 -0.6288 -0.6040 -1.2680
21606SOL     OW62986   0.037   0.255   6.031  0.4252 -0.0902 -0.0017
21606SOL    HW162987   0.008   0.185   6.097  0.4350  0.5145  0.6427
21606SOL    HW262988   0.129   0.286   6.054  0.5548 -0.1056 -0.4943
21607SOL     OW62989   8.096   4.274   7.729  0.1196 -0.0852  0.8488
21607SOL    HW162990   8.044   4.252   7.646  0.3776 -0.8382  0.8835
21607SOL    HW262991   8.032   4.291   7.804 -0.0964 -1.0847  0.9102
21609SOL     OW62992   9.661   9.291   1.667 -0.5334 -0.0334 -0.0960
21609SOL    HW162993   9.637   9.235   1.747 -1.2542  0.3653 -0.0299
21609SOL    HW262994   9.614   9.379   1.673  0.2835  0.4274 -0.4039
21610SOL     OW62995   0.263   7.235   3.991 -0.4531  0.0424 -0.1010
21610SOL    HW162996   0.198   7.221   4.066 -0.5862 -1.8420 -0.5449
21610SOL    HW262997   0.250   7.164   3.922  1.3777  0.2836 -0.7121
21614SOL     OW62998   4.324   8.865   4.386  0.1502 -0.0099  0.5766
21614SOL    HW162999   4.391   8.868   4.313 -0.1398  2.1465  0.3445
21614SOL    HW263000   4.240   8.821   4.354 -0.0932  1.2243 -0.5129
21616SOL     OW63001   4.091   9.925   5.545 -0.9925  0.3800 -0.2056
21616SOL    HW163002   4.106   9.999   5.609 -0.5090  1.0639 -1.0952
21616SOL    HW263003   4.017   9.950   5.482 -0.0847  0.5924 -1.2093
21617SOL     OW63004   2.625   3.822   1.484 -0.0460 -0.0192 -0.2508
21617SOL    HW163005   2.529   3.847   1.493 -0.8154 -2.5018 -0.9975
21617SOL    HW263006   2.657   3.781   1.570 -0.1391 -0.6786 -0.5261
21618SOL     OW63007   3.827   9.311   5.435  0.1390  0.5818 -0.0110
21618SOL    HW163008   3.822   9.214   5.409 -0.8557  0.3025  1.1798
21618SOL    HW263009   3.915   9.329   5.479 -0.4291 -0.2291  1.4890
21620SOL     OW63010   3.207   9.669   2.509  0.0179  0.7505 -0.0048
21620SOL    HW163011   3.132   9.675   2.444  0.0346  0.6494 -0.0332
21620SOL    HW263012   3.284   9.723   2.477  0.4771 -0.2868 -0.6791
21621SOL     OW63013   6.859   2.788   3.328  0.2585  0.5793 -0.2304
21621SOL    HW163014   6.814   2.855   3.269 -1.3003 -1.2669 -1.1954
21621SOL    HW263015   6.958   2.795   3.318  0.0343  0.7741 -2.5683
21622SOL     OW63016   5.385   0.639   3.911  0.5510  0.2827 -0.3098
21622SOL    HW163017   5.409   0.549   3.873 -0.0252  0.5397 -1.2894
21622SOL    HW263018   5.469   0.688   3.936  0.8469 -0.8713  1.0715
21623SOL     OW63019   6.275   8.057   2.442 -0.2184 -0.4716 -0.9603
21623SOL    HW163020   6.359   8.075   2.492  0.0631 -2.7344 -0.5726
21623SOL    HW263021   6.202   8.117   2.476  0.4146 -0.7591  0.9114
21624SOL     OW63022   1.602   0.168   4.143 -0.0685  0.4784 -0.0930
21624SOL    HW163023   1.579   0.079   4.104 -0.8435  0.3814  0.5664
21624SOL    HW263024   1.644   0.226   4.072  1.1757 -0.6749 -0.3140
21625SOL     OW63025   8.255   9.003   3.141  0.3725  0.1963 -0.6577
21625SOL    HW163026   8.292   9.045   3.224 -1.9228  2.1995 -0.6045
21625SOL    HW263027   8.310   9.030   3.063  1.3675 -0.0960 -0.0709
21626SOL     OW63028   9.448   9.719   6.867 -0.2799 -0.5593  0.6902
21626SOL    HW163029   9.397   9.793   6.912 -0.4098 -1.7441  2.5452
21626SOL    HW263030   9.540   9.752   6.845 -0.3882  0.2180  1.3561
21627SOL     OW63031   2.677   6.681   4.531 -0.1237  0.1478  0.2810
21627SOL    HW163032   2.719   6.595   4.561  0.7765  0.0178 -1.3015
21627SOL    HW263033   2.748   6.741   4.494 -0.7040  1.7058  1.6690
21628SOL     OW63034   7.766   2.345   4.112  0.0619  0.0424  0.0541
21628SOL    HW163035   7.713   2.263   4.135  0.1087  0.7333  2.8936
21628SOL    HW263036   7.716   2.398   4.044 -0.6891 -1.5995 -0.7202
21629SOL     OW63037   7.528   5.792   1.806  0.1080  0.2010 -0.2976
21629SOL    HW163038   7.567   5.817   1.717  1.6722 -0.7934  0.0992
21629SOL    HW263039   7.532   5.693   1.817 -0.8772  0.2445  0.5389
21630SOL     OW63040   2.666   5.292   0.992 -0.2504  0.5497  0.0429
21630SOL    HW163041   2.660   5.370   1.055  1.5957  2.4926 -2.1342
21630SOL    HW263042   2.613   5.311   0.910  1.1506 -0.0011 -0.9981
21632SOL     OW63043   9.618   5.154   1.453 -0.8461 -0.4514 -0.4721
21632SOL    HW163044   9.594   5.071   1.502 -1.0224 -1.3458 -2.0547
21632SOL    HW263045   9.557   5.228   1.480  1.6316  0.2055  3.7334
21633SOL     OW63046   9.514   7.153   0.370 -0.0240  0.2809 -0.1754
21633SOL    HW163047   9.490   7.119   0.279 -0.8661 -0.8564  0.4647
21633SOL    HW263048   9.603   7.197   0.366  0.1695 -0.1984 -1.4461
21634SOL     OW63049   1.500   4.090   0.523 -0.3909 -0.7107 -0.0244
21634SOL    HW163050   1.518   4.045   0.611 -0.7262 -0.6459  0.0781
21634SOL    HW263051   1.570   4.063   0.457 -0.2709 -0.9449  0.1975
21635SOL     OW63052   3.176   6.189   1.015  0.1099  0.5623  0.5008
21635SOL    HW163053   3.230   6.138   0.947 -1.5107  0.7678 -0.9685
21635SOL    HW263054   3.134   6.124   1.078 -0.0378  0.2349  0.0716
21636SOL     OW63055   4.271   3.259   7.312 -0.4887 -0.1542  0.2406
21636SOL    HW163056   4.196   3.256   7.246 -1.5679  2.5250  1.2551
21636SOL    HW263057   4.319   3.171   7.313 -1.7495 -0.9207 -2.5675
21638SOL     OW63058   9.171   0.109   4.995  0.1670 -0.2583 -0.0743
21638SOL    HW163059   9.168   0.207   4.975  2.9461  0.0293  0.7205
21638SOL    HW263060   9.127   0.091   5.083 -0.5940  0.2256 -0.3541
21639SOL     OW63061   4.741   9.091   1.573  0.3635 -0.0016  0.5617
21639SOL    HW163062   4.705   9.174   1.532 -1.0777 -0.9832 -0.2117
21639SOL    HW263063   4.669   9.045   1.626  1.3149 -0.4302  1.5166
21642SOL     OW63064   9.721   6.250   5.809 -0.2054  0.2314 -0.2700
21642SOL    HW163065   9.637   6.304   5.808 -1.3461 -1.4661  1.1674
21642SOL    HW263066   9.699   6.153   5.800  1.6661 -0.1640 -0.7557
21643SOL     OW63067   4.656   7.046   0.032  0.1045  0.0482  0.2766
21643SOL    HW163068   4.641   7.055  -0.066  1.4868  3.1329  0.3060
21643SOL    HW263069   4.614   7.123   0.080  1.0537 -0.4207  1.9161
21644SOL     OW63070   2.414   1.010   6.310  0.5596  0.6143  0.2023
21644SOL    HW163071   2.330   1.016   6.364 -0.1521  0.6011 -0.8765
21644SOL    HW263072   2.488   1.055   6.359  0.7356 -2.2125  2.7032
21645SOL     OW63073   6.829   1.384   5.001  0.0879 -0.2371  0.5238
21645SOL    HW163074   6.924   1.415   5.004  0.0815 -0.1136 -0.3165
21645SOL    HW263075   6.788   1.414   4.915 -0.2291 -1.6882  0.1655
21646SOL     OW63076   8.331   6.427   7.285  0.0596  0.9528 -0.3823
21646SOL    HW163077   8.428   6.412   7.300 -0.2481 -0.1508  0.5153
21646SOL    HW263078   8.281   6.419   7.372 -1.1489 -0.9956 -1.2129
21647SOL     OW63079   6.982   2.777   0.395  0.3159 -0.1367 -0.0325
21647SOL    HW163080   7.022   2.766   0.304 -0.1315 -1.1006 -0.1230
21647SOL    HW263081   6.986   2.690   0.444  1.2635  0.5611  1.1707
21649SOL     OW63082   3.798   2.661   5.318  0.1206 -0.1103 -0.1722
21649SOL    HW163083   3.733   2.725   5.277  0.0638 -0.4786 -0.6654
21649SOL    HW263084   3.806   2.580   5.260  0.7347 -0.2332  0.0807
21651SOL     OW63085   1.682   0.591   6.826  0.0349 -0.4955  0.7824
21651SOL    HW163086   1.649   0.673   6.875 -1.3518 -1.6115  1.7578
21651SOL    HW263087   1.607   0.526   6.815  0.7272 -0.9575 -1.4694
21652SOL     OW63088   1.587   6.833   2.566  0.8206  0.2666 -0.1036
21652SOL    HW163089   1.597   6.917   2.512  2.6187  0.1859  0.0714
21652SOL    HW263090   1.620   6.849   2.659 -1.0261  0.0175  0.6080
21654SOL     OW63091   9.757   9.177   7.622  0.8222 -0.0510  0.1633
21654SOL    HW163092   9.770   9.160   7.719  0.6653  2.4085  0.6511
21654SOL    HW263093   9.693   9.253   7.610  1.1542 -0.0679 -1.8605
21657SOL     OW63094   4.498   3.160   1.413 -0.2226  0.0628 -0.0879
21657SOL    HW163095   4.539   3.242   1.453  2.6437 -0.5809 -1.5656
21657SOL    HW263096   4.474   3.178   1.318 -1.4859 -0.2088  0.1713
21658SOL     OW63097   8.831   2.703   6.251  0.3382  0.2531  0.2841
21658SOL    HW163098   8.802   2.725   6.344 -1.0885 -0.2646 -0.0144
21658SOL    HW263099   8.750   2.699   6.191  1.1019 -0.6134 -0.7181
21659SOL     OW63100   4.345   8.126   2.510 -1.3807  0.6125  0.1296
21659SOL    HW163101   4.297   8.038   2.515 -0.3075 -0.0562 -1.0135
21659SOL    HW263102   4.375   8.142   2.416 -0.9708  1.8867  0.4713
21660SOL     OW63103   7.816   6.094   3.754  0.2749 -0.1498 -0.0391
21660SOL    HW163104   7.888   6.094   3.685 -0.9108  0.1004 -1.3117
21660SOL    HW263105   7.733   6.052   3.716 -0.7643  1.0645  0.8122
21661SOL     OW63106   4.813   4.297   2.177  0.4633  0.1322  0.4839
21661SOL    HW163107   4.907   4.262   2.180  0.6240  0.5512  0.5798
21661SOL    HW263108   4.761   4.259   2.254 -0.2814 -2.3378 -1.1856
21662SOL     OW63109   7.525   1.347   6.400 -0.2626  0.1225  0.1979
21662SOL    HW163110   7.448   1.310   6.452 -1.7565  2.0753 -0.5606
21662SOL    HW263111   7.498   1.358   6.304  1.1487  0.2845 -0.1842
21663SOL     OW63112   9.857   9.570   1.484  0.2796  0.1831 -0.3578
21663SOL    HW163113   9.919   9.645   1.509  1.4060 -1.0048  0.5061
21663SOL    HW263114   9.901   9.512   1.415 -0.4845  0.1689 -0.8395
21665SOL     OW63115   9.047   8.650   6.966  0.2463 -0.0252 -0.6995
21665SOL    HW163116   9.102   8.578   7.007  0.8409  0.8285  0.0064
21665SOL    HW263117   8.950   8.635   6.989  0.4516 -0.1622  0.0899
21666SOL     OW63118   4.979   0.377   5.802  0.1068  0.6656 -0.6559
21666SOL    HW163119   5.040   0.338   5.871 -0.1029  2.4096  0.5438
21666SOL    HW263120   4.884   0.354   5.823  0.1475 -0.0653 -1.2236
21667SOL     OW63121   8.131   9.234   3.588 -0.3870 -0.1013  0.0456
21667SOL    HW163122   8.039   9.254   3.554  0.7605  1.2758 -2.4205
21667SOL    HW263123   8.172   9.162   3.533  0.2072 -0.3331  0.7853
21668SOL     OW63124   3.243   5.662   1.823  0.2010 -0.1553 -0.2051
21668SOL    HW163125   3.150   5.696   1.840  0.4059  1.1818 -1.5638
21668SOL    HW263126   3.306   5.709   1.884  0.6026  2.7274 -2.6983
21669SOL     OW63127   9.441   7.615   0.662 -0.2246  0.6144  0.2175
21669SOL    HW163128   9.448   7.621   0.762  0.6205 -0.2015  0.2208
21669SOL    HW263129   9.522   7.656   0.621  0.0457 -0.2014 -0.0818
21670SOL     OW63130   8.932   2.373   1.471 -0.2364  0.8390 -0.1888
21670SOL    HW163131   9.018   2.413   1.500 -0.9669  2.8766 -0.7697
21670SOL    HW263132   8.949   2.306   1.399  0.8654  1.1244 -0.1964
21671SOL     OW63133   1.851   4.196   2.503 -0.1578 -0.0321 -0.3363
21671SOL    HW163134   1.933   4.230   2.457 -1.4343 -0.7148 -3.2094
21671SOL    HW263135   1.783   4.269   2.509 -0.3071 -0.1770 -0.2577
21672SOL     OW63136   7.719   7.252   2.644  0.7320 -0.0286  0.3755
21672SOL    HW163137   7.639   7.238   2.587 -0.0172 -0.7245  1.5867
21672SOL    HW263138   7.706   7.332   2.702  2.4844  2.1334 -2.1247
21673SOL     OW63139   1.248   6.330   1.382 -0.2763  0.0595 -0.2182
21673SOL    HW163140   1.205   6.420   1.393  0.2632  0.3012 -0.0701
21673SOL    HW263141   1.347   6.342   1.373 -0.4441 -0.3228 -2.8059
21674SOL     OW63142   3.212   0.550   5.169  0.1702  0.5658  0.3572
21674SOL    HW163143   3.132   0.521   5.118 -0.6764  1.6839  1.0209
21674SOL    HW263144   3.186   0.573   5.262  0.9877  2.2957  0.1893
21675SOL     OW63145   1.125   6.752   5.357 -0.4219 -0.3945 -0.3346
21675SOL    HW163146   1.092   6.822   5.421  0.5052  0.0824 -0.3558
21675SOL    HW263147   1.219   6.727   5.382 -0.7867 -1.7013 -0.2788
21677SOL     OW63148   1.546   4.757   4.934 -0.2406 -0.1120 -0.5854
21677SOL    HW163149   1.632   4.807   4.924 -0.1081 -0.4266 -1.0925
21677SOL    HW263150   1.566   4.662   4.959 -0.4603 -0.0667 -0.2401
21680SOL     OW63151   0.782   5.924   6.983  0.2516 -0.2447  0.3692
21680SOL    HW163152   0.837   5.973   6.915  0.1085 -0.4018  0.1429
21680SOL    HW263153   0.733   5.990   7.040 -0.9265 -0.1408 -0.7385
21682SOL     OW63154   7.792   7.978   3.611  0.5427  0.1035 -0.9831
21682SOL    HW163155   7.847   7.921   3.549 -0.1873  0.9448 -2.4222
21682SOL    HW263156   7.711   8.011   3.563 -1.5649 -1.5652  1.2758
21683SOL     OW63157   4.213   9.027   0.074 -0.2314 -0.0551 -0.2366
21683SOL    HW163158   4.139   9.042   0.009 -0.7699  0.0899  0.3972
21683SOL    HW263159   4.201   9.089   0.152 -0.6574 -1.5400  0.8912
21684SOL     OW63160   3.000   9.093   4.465 -0.1632 -0.0417 -0.0651
21684SOL    HW163161   2.995   9.172   4.404  0.9259 -0.9260 -1.3372
21684SOL    HW263162   3.096   9.069   4.480 -0.4966 -1.4744 -0.1699
21686SOL     OW63163   6.116   0.722   2.376 -0.3983 -0.6738  0.4483
21686SOL    HW163164   6.034   0.669   2.397 -0.2765 -1.3119 -0.6008
21686SOL    HW263165   6.097   0.785   2.301  0.1390 -1.0706 -0.0399
21687SOL     OW63166   1.044   0.045   2.604  0.2581 -0.2827  0.2399
21687SOL    HW163167   0.983   0.020   2.530  1.0597 -0.7864 -0.2634
21687SOL    HW263168   1.125  -0.014   2.602 -0.1703 -1.0050  2.1416
21689SOL     OW63169   7.957   4.393   7.357 -0.3632 -0.3779 -0.3844
21689SOL    HW163170   7.899   4.472   7.378  0.2553 -0.1102  0.3436
21689SOL    HW263171   7.943   4.366   7.262 -0.3427  0.8017 -0.7337
21690SOL     OW63172   2.306   7.898   0.631 -0.3557  0.8631  0.2627
21690SOL    HW163173   2.327   7.963   0.558 -0.4828  0.9985  0.3482
21690SOL    HW263174   2.367   7.819   0.623 -0.5396  0.7612 -0.1402
21691SOL     OW63175   4.165   9.908   6.280  0.3528  0.5141 -0.1013
21691SOL    HW163176   4.125   9.884   6.192 -1.3407 -0.0142  0.7820
21691SOL    HW263177   4.167   9.826   6.338 -0.4352  1.2898  1.0445
21692SOL     OW63178   5.832   0.404   4.169 -0.3169  0.4842 -0.1422
21692SOL    HW163179   5.789   0.470   4.107 -2.4054 -1.0827 -0.4485
21692SOL    HW263180   5.762   0.340   4.201  1.7126 -1.8176 -0.1755
21695SOL     OW63181   4.256   4.867   0.832  0.1409  0.1089  0.3660
21695SOL    HW163182   4.196   4.944   0.855 -1.0774 -0.4825 -0.7274
21695SOL    HW263183   4.241   4.793   0.897  0.6908  0.4738  0.9102
21697SOL     OW63184   5.460   5.125   7.820  0.1320  0.0026 -0.7196
21697SOL    HW163185   5.495   5.041   7.863 -1.8469 -2.0450 -2.9536
21697SOL    HW263186   5.360   5.124   7.823  0.0445  1.2145 -2.7723
21698SOL     OW63187   2.116   1.115   4.983 -0.5671 -0.0641 -0.3071
21698SOL    HW163188   2.084   1.070   4.900  0.8873 -0.9066 -0.4275
21698SOL    HW263189   2.093   1.212   4.980  0.7725  0.2046 -2.3746
21702SOL     OW63190   6.884   2.009   1.441  0.2458 -0.1487 -0.1302
21702SOL    HW163191   6.788   2.038   1.436 -0.2811 -1.7169  0.6880
21702SOL    HW263192   6.912   2.005   1.537  1.7478  2.2079 -0.4232
21703SOL     OW63193   4.775   9.445   7.334 -0.2484 -0.2666 -0.0584
21703SOL    HW163194   4.711   9.411   7.403 -0.1581 -2.2334 -0.8980
21703SOL    HW263195   4.849   9.378   7.321  0.9576  1.1129 -0.4516
21705SOL     OW63196   0.494   7.845   0.435  0.2970 -0.0643  0.5565
21705SOL    HW163197   0.414   7.903   0.425  0.1188 -0.4526 -0.2539
21705SOL    HW263198   0.517   7.837   0.532  0.0812  1.0234  0.7046
21706SOL     OW63199   9.389   5.171   1.782  0.2819 -0.1374 -0.0551
21706SOL    HW163200   9.481   5.134   1.765 -0.0773 -0.0310 -2.4328
21706SOL    HW263201   9.321   5.099   1.765 -0.1763  0.3617 -0.3323
21707SOL     OW63202   7.549   6.169   2.032  0.1800  0.6189 -0.3884
21707SOL    HW163203   7.449   6.174   2.033  0.0427 -1.5746 -1.6338
21707SOL    HW263204   7.583   6.216   1.950  0.0555 -0.1924 -0.9141
21709SOL     OW63205   2.017   7.465   1.003 -0.4310  0.0780  0.1297
21709SOL    HW163206   2.026   7.561   1.031 -1.1091 -0.3793  1.9827
21709SOL    HW263207   1.926   7.450   0.964 -0.8283 -0.1110  1.1139
21711SOL     OW63208   0.759   5.198   2.665 -0.4790 -0.4559  0.1167
21711SOL    HW163209   0.737   5.295   2.653 -0.8083 -0.4424  0.8212
21711SOL    HW263210   0.849   5.190   2.708 -1.9197 -0.3781  3.2843
21712SOL     OW63211   1.766   7.196   6.428 -0.0429  0.0876 -0.1436
21712SOL    HW163212   1.716   7.176   6.344 -1.1013 -0.2133  0.5590
21712SOL    HW263213   1.773   7.295   6.439 -0.6542  0.1319 -0.1439
21714SOL     OW63214   8.943   3.584   3.686  0.1307 -0.1411  0.0347
21714SOL    HW163215   8.870   3.649   3.665 -0.5760 -0.9664 -0.1051
21714SOL    HW263216   9.011   3.627   3.744 -0.4791  0.6344  0.1777
21715SOL     OW63217   7.601   2.922   1.191  0.0459  0.3301 -0.3975
21715SOL    HW163218   7.684   2.922   1.136 -0.1249 -0.3884 -0.6609
21715SOL    HW263219   7.539   2.993   1.158 -0.0211 -0.0464 -1.0950
21717SOL     OW63220   2.903   2.169   5.394  0.4994 -0.6071  0.6335
21717SOL    HW163221   3.001   2.171   5.411  0.6908 -3.3851  0.1522
21717SOL    HW263222   2.854   2.178   5.481  1.2296 -1.2330  1.1194
21718SOL     OW63223   0.204   0.255   2.663  0.1716  0.0760 -0.4708
21718SOL    HW163224   0.182   0.161   2.634  1.3325 -0.0371 -1.0516
21718SOL    HW263225   0.270   0.294   2.599 -0.8759  1.5726 -0.6533
21720SOL     OW63226   7.500   0.947   3.351  0.4713 -0.1006 -0.1011
21720SOL    HW163227   7.514   1.040   3.316  0.5025 -0.0120  0.1455
21720SOL    HW263228   7.471   0.887   3.276  1.3186 -0.0938 -0.4433
21723SOL     OW63229   5.579   8.525   4.199  0.5423  0.2125 -0.0450
21723SOL    HW163230   5.564   8.565   4.109  2.4471  1.6848  0.2666
21723SOL    HW263231   5.527   8.576   4.267  2.3403  1.6842  0.2421
21724SOL     OW63232   9.820   4.219   1.593 -0.2726  0.2336 -0.1561
21724SOL    HW163233   9.776   4.182   1.675 -1.4066 -2.5555 -1.9454
21724SOL    HW263234   9.919   4.210   1.601 -0.3015  1.2085  1.4494
21725SOL     OW63235   2.117   8.138   7.752 -0.0777  0.1290 -0.9251
21725SOL    HW163236   2.131   8.146   7.653  1.4600  0.7103 -0.6732
21725SOL    HW263237   2.202   8.106   7.794 -0.4112  0.9197  0.3427
21726SOL     OW63238   7.858   2.814   4.145 -0.0513 -0.2384  0.4918
21726SOL    HW163239   7.917   2.778   4.073 -0.6701  0.5273 -0.4180
21726SOL    HW263240   7.765   2.780   4.132 -0.2598  0.2635  0.6548
21727SOL     OW63241   9.622   5.826   5.364  0.5864  0.1957 -0.0698
21727SOL    HW163242   9.628   5.785   5.455  1.2891  0.5360  0.0356
21727SOL    HW263243   9.652   5.921   5.368  0.5491  0.2329 -0.6431
21728SOL     OW63244   5.343   8.458   1.771 -0.5437  0.5605 -0.4432
21728SOL    HW163245   5.321   8.466   1.674  0.2478  0.0738 -0.6651
21728SOL    HW263246   5.301   8.375   1.808  0.0879  0.1490 -0.6377
21731SOL     OW63247   7.076   8.989   7.522  0.3394  0.2274  0.0304
21731SOL    HW163248   6.993   9.008   7.574  0.6819  1.4841  0.1281
21731SOL    HW263249   7.055   8.985   7.425 -0.1458 -1.2613  0.1815
21734SOL     OW63250   0.037   7.747   3.593  0.3272  0.0990  0.3161
21734SOL    HW163251   0.048   7.683   3.518 -0.3595 -0.1314  0.4102
21734SOL    HW263252   0.123   7.796   3.608  0.3809  0.3453 -0.7938
21735SOL     OW63253   2.074   7.744   7.644  0.2026 -0.6139 -0.0059
21735SOL    HW163254   2.004   7.804   7.682 -0.6925 -0.5918 -1.6435
21735SOL    HW263255   2.130   7.707   7.718 -1.7917 -0.9508  1.3831
21737SOL     OW63256   6.962   5.151   7.266 -0.1161 -0.2728 -0.2388
21737SOL    HW163257   6.874   5.164   7.312 -0.6639 -0.6663 -1.1498
21737SOL    HW263258   6.955   5.184   7.172  0.5785 -0.6960 -0.4427
21738SOL     OW63259   7.308   0.081   0.731  0.4422  0.7303 -0.6365
21738SOL    HW163260   7.241   0.152   0.749 -0.5336 -0.0528 -1.1312
21738SOL    HW263261   7.276  -0.007   0.767  1.2670  0.3820 -0.7264
21740SOL     OW63262   7.296   9.692   3.880 -0.1333  0.5969 -0.0320
21740SOL    HW163263   7.309   9.788   3.858  0.6410  0.5270  0.1081
21740SOL    HW263264   7.341   9.635   3.811  0.6391  0.3545  0.6612
21741SOL     OW63265   2.681   9.555   2.379  0.1382  0.3631 -0.7335
21741SOL    HW163266   2.684   9.477   2.441 -0.1491  0.4521 -0.6052
21741SOL    HW263267   2.700   9.639   2.429 -0.2138  0.4487 -0.7351
21742SOL     OW63268   8.805   9.236   1.374 -0.7577 -0.1899  0.2160
21742SOL    HW163269   8.870   9.279   1.438  1.0711  0.0238 -1.7187
21742SOL    HW263270   8.777   9.148   1.410  1.8122 -0.9828  0.4204
21743SOL     OW63271   8.801   2.955   2.657  0.2554  0.1791 -0.2891
21743SOL    HW163272   8.851   3.021   2.601 -0.4681  1.0475  0.0747
21743SOL    HW263273   8.717   2.929   2.609 -0.0634  0.4592  0.1219
21744SOL     OW63274   8.186   8.210   4.355 -0.1665 -0.6243 -0.3058
21744SOL    HW163275   8.149   8.296   4.391 -2.0124 -0.9226 -1.4156
21744SOL    HW263276   8.177   8.138   4.425  1.3264  0.0523  0.5995
21746SOL     OW63277   1.670   0.162   1.050 -0.2768 -0.3381  0.0803
21746SOL    HW163278   1.766   0.147   1.025 -1.0072 -0.3589 -2.9674
21746SOL    HW263279   1.660   0.158   1.149  2.9111 -0.1058  0.4671
21747SOL     OW63280   5.213   9.908   7.436  0.1495 -0.3312  0.1143
21747SOL    HW163281   5.220   9.877   7.341  0.1271  0.4760 -0.1568
21747SOL    HW263282   5.236  10.005   7.441 -2.9988  0.4513  0.4227
21748SOL     OW63283   2.128   2.696   1.529 -0.3843  0.3311  0.4888
21748SOL    HW163284   2.171   2.627   1.588  0.7807 -0.0848 -0.8201
21748SOL    HW263285   2.143   2.671   1.434 -1.2258  1.6406  0.0141
21749SOL     OW63286   8.873   0.212   0.106 -0.2251 -0.0571  0.2291
21749SOL    HW163287   8.951   0.230   0.046 -0.1997  1.1183  0.6003
21749SOL    HW263288   8.790   0.200   0.051 -0.0695  0.2999 -0.0817
21751SOL     OW63289   1.416   3.838   2.374  0.3570  0.3345 -0.2007
21751SOL    HW163290   1.399   3.827   2.472 -2.3921 -0.2411 -0.7049
21751SOL    HW263291   1.366   3.767   2.324 -0.1733  2.0570 -2.1703
21753SOL     OW63292   1.896   2.771   0.009  0.2279  0.2400  1.0855
21753SOL    HW163293   1.872   2.860  -0.030  0.9292  0.9366  2.2140
21753SOL    HW263294   1.843   2.755   0.092 -0.5131 -0.7842  0.4295
21754SOL     OW63295   8.677   7.970   7.424 -0.3881 -0.3576  0.4426
21754SOL    HW163296   8.581   7.951   7.442 -0.3495 -3.2712 -1.8613
21754SOL    HW263297   8.696   7.954   7.327  2.5769 -0.5976  1.0143
21756SOL     OW63298   0.683   9.827   0.043  0.1711  0.5799 -0.1619
21756SOL    HW163299   0.587   9.827   0.072  0.3255 -4.3735  0.8143
21756SOL    HW263300   0.740   9.856   0.120 -0.3292  0.2589  0.3380
21757SOL     OW63301   4.953   7.431   2.475  0.1842  0.1521 -0.5035
21757SOL    HW163302   4.954   7.531   2.484 -0.9559  0.0917  0.3507
21757SOL    HW263303   5.044   7.400   2.449  1.3245  1.1658  2.0798
21758SOL     OW63304   2.583   9.343   4.920 -0.3358 -0.2372  0.0548
21758SOL    HW163305   2.633   9.392   4.849 -0.6465 -1.1476 -0.8112
21758SOL    HW263306   2.510   9.402   4.957  0.5386  0.6313  0.4210
21759SOL     OW63307   0.218   7.869   7.619 -0.4240 -0.8025 -0.5638
21759SOL    HW163308   0.195   7.919   7.702 -0.9882  0.6000 -1.5340
21759SOL    HW263309   0.158   7.790   7.609 -1.4529 -0.0448 -0.4682
21760SOL     OW63310   6.677   0.316   6.542  0.0562  0.1870 -0.1174
21760SOL    HW163311   6.653   0.230   6.497  0.3670 -0.7489  1.4906
21760SOL    HW263312   6.732   0.372   6.479  0.1407 -0.9222 -1.0441
21762SOL     OW63313   3.043   4.746   1.149 -0.4338  0.1760 -0.2816
21762SOL    HW163314   2.981   4.736   1.071 -1.1884 -0.3687  0.3906
21762SOL    HW263315   3.043   4.663   1.203  1.1263  0.0572 -0.4355
21763SOL     OW63316   5.902   1.343   0.904 -0.2770 -0.2615  0.4799
21763SOL    HW163317   5.917   1.416   0.837 -1.5283 -1.0015 -0.6216
21763SOL    HW263318   5.815   1.359   0.951  0.1988 -0.1983  1.3452
21765SOL     OW63319   9.645   8.861   7.885 -0.2505 -0.0858  0.0793
21765SOL    HW163320   9.663   8.779   7.830 -0.5256  0.1810 -0.4116
21765SOL    HW263321   9.555   8.898   7.860  0.6957  1.4744 -1.1021
21766SOL     OW63322   4.000   3.239   5.506  0.0512 -0.2451  0.1284
21766SOL    HW163323   4.082   3.182   5.500  0.7481  0.6795  0.6251
21766SOL    HW263324   4.016   3.324   5.455 -1.4649 -1.0448 -1.7581
21767SOL     OW63325   1.884   1.999   1.987  0.2101  0.1981  0.6050
21767SOL    HW163326   1.894   1.931   2.060  1.1144 -1.4314 -1.0120
21767SOL    HW263327   1.800   1.982   1.936  0.9936 -0.3995 -0.4989
21768SOL     OW63328   1.793   6.575   4.300  0.3856 -0.0200 -0.3427
21768SOL    HW163329   1.892   6.578   4.314 -0.0439  1.9199  2.7569
21768SOL    HW263330   1.752   6.511   4.364 -0.5596  0.5811 -0.3402
21769SOL     OW63331   2.898   7.905   0.033 -0.2080 -0.3784 -0.2500
21769SOL    HW163332   2.871   7.979  -0.028 -2.4583 -1.5977 -0.8111
21769SOL    HW263333   2.971   7.851  -0.009 -0.0322  0.2643 -0.7636
21770SOL     OW63334   1.313   1.516   6.284 -0.1108  0.4467  0.1522
21770SOL    HW163335   1.337   1.533   6.379  0.4756  1.5210 -0.1803
21770SOL    HW263336   1.215   1.498   6.276 -0.0719 -0.1824  1.0216
21771SOL     OW63337   1.237   4.989   2.389  0.4260 -0.2516  0.3197
21771SOL    HW163338   1.257   4.902   2.435 -1.3765 -1.4553 -1.0534
21771SOL    HW263339   1.138   4.995   2.373  0.6689  1.5831 -0.5428
21772SOL     OW63340   2.745   4.134   6.875 -0.4098 -0.0904 -0.3013
21772SOL    HW163341   2.686   4.116   6.953 -0.2933 -1.3713 -0.5035
21772SOL    HW263342   2.830   4.082   6.883  0.2081  0.8595 -0.5799
21773SOL     OW63343   2.408   1.836   1.490 -0.0605 -0.0158 -0.3578
21773SOL    HW163344   2.501   1.815   1.458 -0.3138 -1.6812 -0.0313
21773SOL    HW263345   2.341   1.790   1.431 -0.6485  0.3146  0.0482
21774SOL     OW63346   3.476   3.273   3.591 -0.3583 -0.1976 -0.1742
21774SOL    HW163347   3.428   3.267   3.504  0.3587 -1.0455 -0.5134
21774SOL    HW263348   3.515   3.365   3.601 -0.2082 -0.1811 -0.8742
21775SOL     OW63349   9.890   2.230   7.032  0.0970 -0.4566  0.6524
21775SOL    HW163350   9.989   2.222   7.049  0.2879 -0.0632 -0.2677
21775SOL    HW263351   9.874   2.245   6.935 -0.7774  0.9855  1.0021
21776SOL     OW63352   8.719   8.861   4.464 -0.2411  0.3962 -0.0118
21776SOL    HW163353   8.631   8.897   4.432  0.3186 -0.2249 -2.3403
21776SOL    HW263354   8.715   8.761   4.467 -0.1156  0.4255  1.4375
21777SOL     OW63355   8.712   3.974   0.466 -0.1194  0.6112  0.1625
21777SOL    HW163356   8.680   3.987   0.560  2.1839 -2.6382  1.4904
21777SOL    HW263357   8.644   3.921   0.415 -1.0856  1.8492  0.1331
21778SOL     OW63358   7.341   1.390   0.551  0.8456  0.5054  0.4181
21778SOL    HW163359   7.264   1.442   0.589 -0.1263 -0.9086  0.4337
21778SOL    HW263360   7.399   1.357   0.625 -0.7805 -1.8374  0.6976
21779SOL     OW63361   1.366   6.683   6.860 -0.3586 -0.1987  0.0360
21779SOL    HW163362   1.366   6.585   6.879  0.2179  0.0720  1.4746
21779SOL    HW263363   1.309   6.730   6.927  1.4681  0.7407  0.9713
21780SOL     OW63364   0.717   1.205   1.659 -0.1971  0.2713  0.5143
21780SOL    HW163365   0.771   1.137   1.611 -0.7848  0.7926 -0.9205
21780SOL    HW263366   0.668   1.162   1.735  1.2306 -0.4375  1.0312
21781SOL     OW63367   1.864   8.821   2.077 -0.1777 -0.1536  0.0170
21781SOL    HW163368   1.868   8.745   2.141 -0.3276 -0.4154 -0.2814
21781SOL    HW263369   1.778   8.870   2.089  0.3716  0.5930  0.9148
21783SOL     OW63370   2.580   4.469   6.145  0.2482 -0.2802  0.3699
21783SOL    HW163371   2.528   4.552   6.162  1.3677  0.5389 -0.1397
21783SOL    HW263372   2.591   4.455   6.047  0.2079 -0.9399  0.4543
21784SOL     OW63373   0.646   4.272   5.698 -0.4085  0.9900  0.1997
21784SOL    HW163374   0.740   4.301   5.716  0.1357  1.7276 -3.4516
21784SOL    HW263375   0.646   4.180   5.659 -1.1028  1.4282 -0.8480
21785SOL     OW63376   7.685   4.590   1.612  0.1903 -0.6377  0.0886
21785SOL    HW163377   7.705   4.527   1.687  0.7446  0.0339  0.5194
21785SOL    HW263378   7.763   4.596   1.551 -0.0672 -0.7886 -0.2574
21786SOL     OW63379   3.816   7.960   1.540  0.4595 -0.4825 -0.3044
21786SOL    HW163380   3.832   7.935   1.635  2.1870 -3.5853 -1.3330
21786SOL    HW263381   3.729   7.921   1.509 -1.0318  2.0934  0.4637
21787SOL     OW63382   1.162   1.949   4.497 -0.1757 -0.2105  0.1585
21787SOL    HW163383   1.078   1.939   4.444  0.1052  3.1630 -1.0469
21787SOL    HW263384   1.148   2.015   4.570  1.3829  0.2141  0.0823
21789SOL     OW63385   0.455   1.980   6.920 -0.4343  0.0590  0.2170
21789SOL    HW163386   0.368   1.944   6.885 -1.4172  1.0049  1.6309
21789SOL    HW263387   0.509   1.905   6.957 -1.8003 -0.1941  1.7418
21790SOL     OW63388   1.581   4.240   3.442  0.4049 -0.1296  0.0307
21790SOL    HW163389   1.574   4.283   3.352 -1.4815 -0.4898 -0.0097
21790SOL    HW263390   1.603   4.309   3.511  2.4116  0.0655 -0.7570
21791SOL     OW63391   9.517   0.386   3.537 -0.2269  0.1354 -1.2748
21791SOL    HW163392   9.551   0.449   3.607 -0.3231 -1.1872 -0.0240
21791SOL    HW263393   9.533   0.426   3.446  0.3242  1.6537 -0.5276
21792SOL     OW63394   0.108   6.057   2.633 -0.1573  0.1516  0.0058
21792SOL    HW163395   0.179   5.994   2.600  0.1374  0.6289 -0.2836
21792SOL    HW263396   0.132   6.089   2.725  0.4198  0.9426 -0.4170
21793SOL     OW63397   2.206   5.815   4.425  0.0621 -0.6801  0.1583
21793SOL    HW163398   2.239   5.869   4.502  0.4368  0.7391 -0.9814
21793SOL    HW263399   2.195   5.719   4.454  0.9288 -0.3194  1.7509
21794SOL     OW63400   5.223   7.961   6.133  0.1250  0.5771 -0.0964
21794SOL    HW163401   5.218   7.879   6.190  0.3149 -0.0921 -1.0353
21794SOL    HW263402   5.163   8.031   6.171  0.9770  0.4740  1.4758
21796SOL     OW63403   1.460   5.749   0.378  0.3544  0.4504  0.1979
21796SOL    HW163404   1.422   5.657   0.388  0.1782  0.6436  1.4273
21796SOL    HW263405   1.507   5.757   0.290  0.9913 -1.0391  0.3876
21797SOL     OW63406   2.597   1.819   4.049 -0.0714 -0.1204  0.4079
21797SOL    HW163407   2.603   1.875   3.966 -0.1095 -0.8981 -0.1203
21797SOL    HW263408   2.510   1.770   4.050  0.3859 -0.9516  0.3638
21798SOL     OW63409   1.691   3.677   2.928  0.3299  0.5225  0.5114
21798SOL    HW163410   1.780   3.715   2.952  1.4594 -1.1598 -0.8854
21798SOL    HW263411   1.703   3.599   2.867 -2.2836  2.4379 -2.5870
21800SOL     OW63412   9.656   6.673   2.468  0.1111 -1.3959 -0.4616
21800SOL    HW163413   9.636   6.658   2.371  1.0672  0.4164 -0.9537
21800SOL    HW263414   9.755   6.667   2.483 -0.0113 -1.4302  0.3728
21801SOL     OW63415   8.447   5.907   2.454 -0.1281 -0.1415 -0.2011
21801SOL    HW163416   8.401   5.985   2.496 -0.9523 -1.8558  2.2422
21801SOL    HW263417   8.384   5.861   2.391 -0.2135  0.2008 -0.3636
21802SOL     OW63418   6.341   5.629   7.925 -0.2959 -0.0316  0.0667
21802SOL    HW163419   6.422   5.574   7.904 -0.3288 -0.0691  0.0393
21802SOL    HW263420   6.357   5.723   7.896  0.3095  0.2938  1.4203
21803SOL     OW63421   5.901   0.411   7.456  0.1512  0.2187 -0.0693
21803SOL    HW163422   5.868   0.428   7.549 -2.2761 -0.0628 -0.8234
21803SOL    HW263423   5.822   0.407   7.394  1.6636 -0.6003 -1.9714
21804SOL     OW63424   0.043   3.626   7.873 -1.0088  0.1298 -0.2504
21804SOL    HW163425  -0.045   3.617   7.826  0.1770  0.7591 -2.6117
21804SOL    HW263426   0.058   3.722   7.898 -1.2479 -0.0705  0.6880
21805SOL     OW63427   9.536   9.409   5.677 -0.2129 -0.5630 -0.6007
21805SOL    HW163428   9.438   9.405   5.662 -0.7526  0.2055  2.4252
21805SOL    HW263429   9.572   9.317   5.690 -1.1290 -0.6242  1.6458
21806SOL     OW63430   3.867   0.793   3.774  0.8033 -0.5141  0.4086
21806SOL    HW163431   3.965   0.774   3.773  0.7935 -0.5545  0.1659
21806SOL    HW263432   3.817   0.708   3.794  0.7316 -0.8812 -1.2117
21807SOL     OW63433   9.931   0.309   3.073  0.4393  0.1061 -0.1417
21807SOL    HW163434   9.832   0.315   3.078  0.4088 -1.0146  0.5994
21807SOL    HW263435   9.958   0.274   2.983  0.2033  1.1523 -0.6259
21808SOL     OW63436   9.543   0.861   3.783 -0.4974  0.3986 -0.9781
21808SOL    HW163437   9.571   0.916   3.704  1.2110  1.7657  0.5455
21808SOL    HW263438   9.530   0.920   3.862 -0.0013 -1.2257  0.3445
21809SOL     OW63439   6.918   6.139   4.750 -0.5849  0.4852  0.2329
21809SOL    HW163440   6.915   6.238   4.760  1.6347  0.5578  0.3411
21809SOL    HW263441   6.878   6.113   4.662  0.3228  1.5994 -0.5255
21810SOL     OW63442   7.879   8.566   2.485  0.5062  0.1862  0.2737
21810SOL    HW163443   7.943   8.491   2.471 -0.3120 -0.4773  0.0640
21810SOL    HW263444   7.915   8.649   2.443  1.7863  0.1062  1.2051
21811SOL     OW63445   7.904   3.068   4.289 -0.0414 -0.2348 -0.6032
21811SOL    HW163446   7.995   3.079   4.329  0.8411 -0.8553 -2.3785
21811SOL    HW263447   7.889   2.971   4.267 -2.7829 -0.8497  3.4371
21812SOL     OW63448   6.394   2.587   3.316  0.3827  0.2644  0.0525
21812SOL    HW163449   6.383   2.586   3.216  0.7049  0.3546  0.0161
21812SOL    HW263450   6.304   2.579   3.359  0.2476  0.1648 -0.2452
21813SOL     OW63451   4.405   4.303   2.516 -0.1121 -0.4314  0.3954
21813SOL    HW163452   4.345   4.301   2.436 -1.1959  0.6773  1.1725
21813SOL    HW263453   4.379   4.231   2.580 -1.6139  0.9874  1.4257
21814SOL     OW63454   8.904   9.938   7.073  0.3286  0.3664 -0.3020
21814SOL    HW163455   8.973   9.914   7.004  1.1746  0.9487  0.3310
21814SOL    HW263456   8.853  10.018   7.041  1.2476  1.1223  0.0774
21816SOL     OW63457   2.957   0.176   1.383 -0.1934  0.5105  0.0332
21816SOL    HW163458   2.950   0.084   1.421 -1.8940  1.2333  1.5790
21816SOL    HW263459   2.947   0.172   1.283  0.1557 -1.0067  0.0467
21817SOL     OW63460   3.989   9.081   1.533  0.2515  0.4944  0.0664
21817SOL    HW163461   3.894   9.090   1.564  0.3100  0.4961  0.2446
21817SOL    HW263462   4.033   9.171   1.533 -0.3463  0.8072 -1.9474
21818SOL     OW63463   0.885   3.099   6.029  0.1850  0.6862 -0.0289
21818SOL    HW163464   0.819   3.159   6.074 -0.5528 -0.6788  0.7127
21818SOL    HW263465   0.965   3.087   6.088 -0.1716  0.0259  0.3289
21819SOL     OW63466   2.979   1.364   6.259 -0.3163  0.5643 -0.1555
21819SOL    HW163467   3.039   1.284   6.268 -0.8225  0.0384 -1.3091
21819SOL    HW263468   3.033   1.444   6.232 -0.2597 -0.1619 -2.3061
21820SOL     OW63469   2.808   0.006   3.066  1.0657 -0.3708  0.0937
21820SOL    HW163470   2.727   0.019   3.123  1.8429 -1.1013  1.3874
21820SOL    HW263471   2.864   0.089   3.068  0.0269  0.3646 -1.3228
21821SOL     OW63472   3.206   3.185   2.262  0.4167  0.1762  0.4888
21821SOL    HW163473   3.123   3.241   2.261  0.5225  0.3550  1.2367
21821SOL    HW263474   3.279   3.236   2.308  1.3071  0.5385 -1.2998
21822SOL     OW63475   0.949   0.347   2.985  0.1940  0.3082 -0.3706
21822SOL    HW163476   0.995   0.284   3.048  1.6817  1.0184 -0.7127
21822SOL    HW263477   0.894   0.412   3.037  0.8997  0.4886  0.1620
21824SOL     OW63478   2.668   4.140   0.733 -0.5695 -0.0226  0.3055
21824SOL    HW163479   2.724   4.102   0.659  1.2299  0.9353  1.1338
21824SOL    HW263480   2.603   4.071   0.764  0.0134 -1.1098 -0.8203
21825SOL     OW63481   3.099   2.741   2.006 -0.1529 -0.5831 -0.0919
21825SOL    HW163482   3.061   2.817   1.954  0.1638 -0.5687 -0.3039
21825SOL    HW263483   3.052   2.734   2.094 -0.9364 -0.8337 -0.5249
21826SOL     OW63484   2.112   8.680   2.446  0.6715 -0.2479  0.3270
21826SOL    HW163485   2.113   8.660   2.544  0.5991 -1.8638  0.0167
21826SOL    HW263486   2.131   8.777   2.431 -0.2181  0.1998  1.9802
21827SOL     OW63487   3.356   8.559   0.025 -0.0934 -0.0830 -0.0429
21827SOL    HW163488   3.285   8.488   0.028 -0.8031  0.5881 -0.7651
21827SOL    HW263489   3.436   8.522  -0.022 -0.0851 -0.7359  0.4688
21828SOL     OW63490   2.024   7.955   3.775  0.4047  0.5916  0.0425
21828SOL    HW163491   2.087   8.022   3.737 -0.7030  1.3397 -0.5012
21828SOL    HW263492   1.974   7.910   3.701 -0.2986  0.6080  0.4986
21830SOL     OW63493   5.415   0.606   4.420 -0.3466 -0.5980  0.0962
21830SOL    HW163494   5.508   0.624   4.451 -0.0558 -0.0661 -1.0956
21830SOL    HW263495   5.398   0.507   4.421  0.4967 -0.7482 -0.5028
21831SOL     OW63496   9.744   7.296   1.574  0.1461  0.3431  0.2891
21831SOL    HW163497   9.656   7.259   1.543  0.6797  0.8781 -1.9854
21831SOL    HW263498   9.751   7.392   1.544  2.4444 -0.3606 -1.5723
21832SOL     OW63499   5.157   6.240   1.560 -0.0505  0.4916 -0.0803
21832SOL    HW163500   5.221   6.225   1.635 -0.0350  0.1809 -0.1560
21832SOL    HW263501   5.194   6.200   1.476 -0.0533  0.8681 -0.2622
21833SOL     OW63502   5.533   8.180   2.842  0.3544 -0.3636 -0.2400
21833SOL    HW163503   5.618   8.230   2.857  0.0731 -0.5259  2.0756
21833SOL    HW263504   5.553   8.092   2.799  1.0177  0.9337 -2.6583
21834SOL     OW63505   9.002   0.967   2.299 -0.4050  0.7775 -0.7936
21834SOL    HW163506   9.091   0.922   2.300 -0.4725  0.6413  0.2080
21834SOL    HW263507   8.931   0.900   2.278 -0.7888 -0.2046  3.1482
21835SOL     OW63508   7.313   1.761   1.129  0.2080  0.8796 -0.5498
21835SOL    HW163509   7.347   1.770   1.222  2.4061 -1.2915 -1.0564
21835SOL    HW263510   7.368   1.818   1.068 -0.0011  0.8683 -0.7493
21836SOL     OW63511   9.989   7.577   3.335  0.4383 -0.4453  0.3737
21836SOL    HW163512  10.003   7.496   3.391 -0.8397 -1.0743 -0.2094
21836SOL    HW263513   9.963   7.550   3.242  3.7477  0.5411 -0.9330
21837SOL     OW63514   2.336   9.962   2.387 -0.0202  0.0358  0.2572
21837SOL    HW163515   2.332   9.979   2.289 -0.6116  1.1283  0.4649
21837SOL    HW263516   2.278   9.883   2.410 -2.5867  1.8284  0.1669
21838SOL     OW63517   8.740   7.904   5.814  0.0232  0.5518 -0.0859
21838SOL    HW163518   8.654   7.862   5.845  0.4708 -0.3219 -0.0248
21838SOL    HW263519   8.815   7.840   5.826  0.0946 -0.1466 -3.6999
21839SOL     OW63520   7.912   3.304   0.667  0.2380  0.1576  0.5558
21839SOL    HW163521   7.865   3.391   0.648 -1.5977 -1.0220 -0.3930
21839SOL    HW263522   7.937   3.301   0.764 -1.8441  0.7544  1.1483
21840SOL     OW63523   6.152   9.502   1.845  0.4202  0.2298 -0.5834
21840SOL    HW163524   6.212   9.430   1.880  0.4923  1.4500  1.9253
21840SOL    HW263525   6.077   9.461   1.793 -0.4240 -1.7965  2.1081
21842SOL     OW63526   0.143   0.124   1.828 -0.1492  0.0311  0.3250
21842SOL    HW163527   0.152   0.217   1.863 -0.3430  0.1487  0.0658
21842SOL    HW263528   0.118   0.062   1.902  0.7645  0.0533  0.6470
21843SOL     OW63529   5.036   1.301   1.211 -0.0679  0.1707  0.1109
21843SOL    HW163530   4.962   1.317   1.276  0.7548  0.3022  1.0399
21843SOL    HW263531   5.103   1.374   1.218 -1.0000  1.2960 -2.4065
21844SOL     OW63532   5.161   6.840   2.930 -0.1409  0.0524  0.3709
21844SOL    HW163533   5.214   6.755   2.926  1.3540  0.9425  0.7100
21844SOL    HW263534   5.087   6.829   2.996  0.0181 -0.9986  0.3923
21845SOL     OW63535   2.452   1.400   1.211  0.5840 -0.2401 -0.2010
21845SOL    HW163536   2.484   1.358   1.296 -2.1184  1.3956  1.6928
21845SOL    HW263537   2.400   1.333   1.158  1.6956 -1.0666 -0.2639
21846SOL     OW63538   2.603   8.602   1.776 -0.5915 -0.2407 -0.3646
21846SOL    HW163539   2.624   8.631   1.869 -1.3391  1.6096 -0.7568
21846SOL    HW263540   2.565   8.678   1.725 -2.9129 -2.0069 -1.3521
21847SOL     OW63541   1.647   5.804   2.324 -0.1810  0.3014 -0.3506
21847SOL    HW163542   1.641   5.710   2.289  3.2967  0.7378 -2.3046
21847SOL    HW263543   1.742   5.826   2.345 -0.9522  3.3985  0.1456
21848SOL     OW63544   2.314   4.484   4.237  0.6151 -0.3215  0.0872
21848SOL    HW163545   2.219   4.513   4.222  0.2710 -1.8693 -0.8648
21848SOL    HW263546   2.331   4.476   4.335 -0.6192 -1.1695  0.2556
21850SOL     OW63547   7.427   2.922   2.488 -0.0576  0.3201  0.2275
21850SOL    HW163548   7.514   2.876   2.472  0.1183  0.1226  1.7091
21850SOL    HW263549   7.434   3.017   2.458  0.1169 -0.1418 -1.2444
21851SOL     OW63550   4.124   9.124   4.076  0.3184 -0.4537  0.2761
21851SOL    HW163551   4.205   9.075   4.042 -0.3550  0.8714 -3.5187
21851SOL    HW263552   4.151   9.212   4.113  0.8357 -0.8986  0.9571
21853SOL     OW63553   5.185   1.075   6.802  0.0585 -0.0724  0.4035
21853SOL    HW163554   5.215   1.146   6.866  0.1194  0.4494 -0.2009
21853SOL    HW263555   5.173   0.989   6.852  1.0285  0.0903  0.9497
21854SOL     OW63556   9.663   5.413   6.560 -0.5144  0.4438  0.5182
21854SOL    HW163557   9.676   5.324   6.516 -2.1054  0.2829  0.3334
21854SOL    HW263558   9.654   5.401   6.659 -0.9547  0.3626  0.4710
21855SOL     OW63559   9.344   9.106   5.775  0.0840 -0.4110  0.1566
21855SOL    HW163560   9.437   9.123   5.744 -0.3622  0.6589 -0.6178
21855SOL    HW263561   9.279   9.144   5.709 -0.9098 -1.3165  0.5896
21856SOL     OW63562   7.668   7.603   4.421  0.1242  0.1157 -0.2463
21856SOL    HW163563   7.760   7.605   4.460  0.0280 -0.7937  0.0462
21856SOL    HW263564   7.614   7.679   4.457  0.4736  0.1075  0.2904
21857SOL     OW63565   5.746   7.948   3.567  0.1478  0.1488  0.1361
21857SOL    HW163566   5.727   7.951   3.469  0.7733 -0.5124 -0.0137
21857SOL    HW263567   5.757   7.853   3.596 -2.0363  0.2200  1.2572
21858SOL     OW63568   4.291   9.214   3.381  0.7758  0.3985  0.0719
21858SOL    HW163569   4.268   9.165   3.465 -1.0764  1.8759  0.4515
21858SOL    HW263570   4.224   9.191   3.310  1.9869 -0.3732 -0.8495
21859SOL     OW63571   8.105   1.269   3.105  0.6282 -0.1039 -0.1928
21859SOL    HW163572   8.148   1.319   3.029  0.8316  0.8963  0.5660
21859SOL    HW263573   8.167   1.268   3.183 -0.3551  0.5577  0.6078
21860SOL     OW63574   5.537   2.678   1.654  0.5750 -0.0241  0.3648
21860SOL    HW163575   5.635   2.670   1.676  1.2378  1.1275 -1.9798
21860SOL    HW263576   5.483   2.638   1.728  2.8098 -0.4718  1.8153
21861SOL     OW63577   9.390   5.955   5.574  0.0639  0.1267  0.4918
21861SOL    HW163578   9.362   5.859   5.567 -0.5888  0.1751  2.1528
21861SOL    HW263579   9.486   5.959   5.604  0.3371 -0.0035 -0.3483
21863SOL     OW63580   9.212   7.318   3.636  0.0805  0.2743 -0.3920
21863SOL    HW163581   9.148   7.389   3.607 -0.3696 -0.3227 -0.8827
21863SOL    HW263582   9.289   7.360   3.684 -1.1010  0.9367  0.9847
21864SOL     OW63583   6.736   1.338   0.977  0.3825  0.0537  0.2348
21864SOL    HW163584   6.687   1.425   0.979  1.4959  0.6940 -0.0635
21864SOL    HW263585   6.734   1.301   0.884  0.1980 -0.0711  0.2888
21865SOL     OW63586   8.909   4.921   4.267 -0.0235  0.2089  0.0392
21865SOL    HW163587   8.885   5.016   4.248  3.4177  1.1804  0.3183
21865SOL    HW263588   8.946   4.914   4.359 -0.7417 -1.5127  0.2082
21866SOL     OW63589   1.088   9.386   1.201 -0.1092  0.4439 -0.0299
21866SOL    HW163590   1.014   9.382   1.269  0.9554 -2.0542  1.0283
21866SOL    HW263591   1.127   9.478   1.200 -1.9083  1.2507  0.8049
21867SOL     OW63592   8.649   9.434   7.783  0.2297  0.6865 -0.3415
21867SOL    HW163593   8.696   9.347   7.768 -0.8379 -0.2714  1.5928
21867SOL    HW263594   8.560   9.416   7.827 -0.3855  2.6959 -0.7063
21868SOL     OW63595   0.249   3.530   3.726 -0.4361 -0.2565 -0.5333
21868SOL    HW163596   0.303   3.546   3.809 -0.0892  1.3733 -1.0554
21868SOL    HW263597   0.290   3.580   3.649 -1.2629 -1.0308 -1.4986
21869SOL     OW63598   7.792   8.695   1.120  0.3366 -0.6664  0.3489
21869SOL    HW163599   7.781   8.760   1.195  1.8530 -0.1701  0.1585
21869SOL    HW263600   7.814   8.744   1.036  2.0085 -1.4479  0.3128
21870SOL     OW63601   1.888   4.836   7.353  0.3645 -0.1232  0.1176
21870SOL    HW163602   1.974   4.886   7.363  1.6547 -2.2617  0.1090
21870SOL    HW263603   1.894   4.750   7.404 -2.2392  0.2559  1.1150
21873SOL     OW63604   2.416   9.768   7.885 -0.2610 -0.4917  0.1775
21873SOL    HW163605   2.488   9.761   7.816  0.1587  0.1598  0.5538
21873SOL    HW263606   2.402   9.678   7.926  1.2889 -0.3560  1.0605
21874SOL     OW63607   7.381   5.883   5.177  0.5460 -0.1388  0.4175
21874SOL    HW163608   7.348   5.971   5.144  0.6249  0.1438  1.1006
21874SOL    HW263609   7.346   5.866   5.269 -0.0446 -1.1393  0.0120
21875SOL     OW63610   9.287   3.510   4.138 -0.2808  0.2453 -0.2795
21875SOL    HW163611   9.349   3.530   4.062 -0.8790  0.1022 -0.8110
21875SOL    HW263612   9.336   3.457   4.207  0.2517  0.3200 -0.5924
21876SOL     OW63613   6.508   9.568   6.590 -0.1357  0.4144 -0.0972
21876SOL    HW163614   6.493   9.603   6.497 -1.5088  0.1460  0.0128
21876SOL    HW263615   6.598   9.598   6.622 -0.3282  1.9276 -0.8771
21878SOL     OW63616   7.102   1.232   5.706  0.1919  0.4480  0.2912
21878SOL    HW163617   7.110   1.154   5.767 -0.1267  1.3528  1.5207
21878SOL    HW263618   7.148   1.311   5.747 -0.8039  1.3033 -0.2125
21880SOL     OW63619   3.113   2.617   4.340 -0.6945  0.0875 -0.0610
21880SOL    HW163620   3.175   2.573   4.405 -1.4093  0.7320  1.0534
21880SOL    HW263621   3.035   2.656   4.388 -0.7994  1.3203 -1.2122
21881SOL     OW63622   9.989   4.475   7.835 -0.0006  0.5841 -0.2815
21881SOL    HW163623   9.896   4.492   7.805 -0.0871 -0.3281 -0.5307
21881SOL    HW263624  10.051   4.477   7.757 -0.1506 -1.2302 -0.4710
21886SOL     OW63625   1.273   1.764   3.163  0.1209  0.2109  0.2914
21886SOL    HW163626   1.301   1.778   3.258  1.2772  0.8969 -0.1384
21886SOL    HW263627   1.352   1.774   3.103 -1.0498  2.2938 -0.9806
21887SOL     OW63628   9.800   0.021   4.772  0.3811 -0.2289  0.3419
21887SOL    HW163629   9.792   0.118   4.794 -1.3581 -0.0274 -1.0822
21887SOL    HW263630   9.800  -0.032   4.857 -1.0276  0.8700  1.0596
21889SOL     OW63631   3.498   5.018   4.969  0.5993  0.3607 -0.1908
21889SOL    HW163632   3.470   4.976   5.055  0.4707  2.0666  0.6287
21889SOL    HW263633   3.598   5.013   4.961  0.5774 -0.1602 -0.1319
21890SOL     OW63634   2.382   6.148   1.734  0.0293  0.3170  0.2295
21890SOL    HW163635   2.380   6.194   1.645 -0.1035  0.3925  0.2718
21890SOL    HW263636   2.477   6.140   1.765  0.1071 -0.0639 -0.1012
21891SOL     OW63637   7.224   3.423   4.127  0.1543  0.3158  0.0297
21891SOL    HW163638   7.315   3.389   4.149  0.4147  1.9790  1.6293
21891SOL    HW263639   7.159   3.390   4.196 -0.1168  0.6283 -0.0780
21893SOL     OW63640   1.428   1.720   0.069 -0.7399 -0.0940 -0.2597
21893SOL    HW163641   1.438   1.641   0.130 -2.5754 -0.0855  0.0974
21893SOL    HW263642   1.369   1.788   0.113  0.8392  1.4972 -0.5604
21894SOL     OW63643   8.975   4.679   3.082 -0.1871  0.7733  0.2018
21894SOL    HW163644   8.907   4.607   3.068  0.2648 -0.0698  2.2121
21894SOL    HW263645   9.006   4.714   2.993 -1.0780 -0.8763 -0.7737
21895SOL     OW63646   8.735   5.146   1.671  0.0852 -0.1919  0.1527
21895SOL    HW163647   8.740   5.199   1.586 -1.4459 -2.2457 -1.2752
21895SOL    HW263648   8.665   5.185   1.731 -0.2331  0.0883 -0.3991
21896SOL     OW63649   7.759   7.227   1.770 -0.3923 -0.1923  0.0510
21896SOL    HW163650   7.731   7.171   1.692  0.1738 -0.6461  0.1677
21896SOL    HW263651   7.680   7.273   1.809 -0.8489 -0.8482 -0.0999
21897SOL     OW63652   5.661   1.908   0.813 -0.2452 -0.0357  0.1731
21897SOL    HW163653   5.689   1.921   0.908 -1.4923  0.9732  0.4131
21897SOL    HW263654   5.640   1.811   0.798 -0.1687 -0.1778  0.9581
21898SOL     OW63655   8.610   2.258   6.979  0.0770 -0.1393 -0.3564
21898SOL    HW163656   8.654   2.187   6.926  0.2163 -0.6382  0.4137
21898SOL    HW263657   8.667   2.282   7.058  0.3025  1.2262 -0.9140
21899SOL     OW63658   2.809   9.210   4.070  0.3505  0.5106 -0.3889
21899SOL    HW163659   2.723   9.223   4.118 -0.5902  0.6005 -2.0983
21899SOL    HW263660   2.823   9.284   4.004  2.0607  0.8635  0.3288
21900SOL     OW63661   0.174   9.674   1.973 -0.3984  0.1529  0.4479
21900SOL    HW163662   0.243   9.746   1.981  0.6195 -0.7221 -0.2066
21900SOL    HW263663   0.169   9.624   2.060  0.2633 -0.1819  0.3019
21901SOL     OW63664   1.661   3.450   4.045  1.3058  0.0392  0.0889
21901SOL    HW163665   1.707   3.365   4.018  0.8387  0.1855 -1.1863
21901SOL    HW263666   1.700   3.483   4.131 -0.7313 -3.2930  2.4735
21902SOL     OW63667   1.977   2.347   3.094 -0.0874  0.3113  0.1595
21902SOL    HW163668   2.033   2.264   3.086  0.1022  0.5781 -1.5380
21902SOL    HW263669   2.035   2.428   3.085 -0.5052  0.6064  0.0780
21903SOL     OW63670   9.085   9.933   0.040  0.1700  0.4801 -0.3065
21903SOL    HW163671   9.091   9.897   0.133  2.1718  3.0723  0.6590
21903SOL    HW263672   9.081   9.858  -0.026  0.6734 -1.4085  1.7710
21904SOL     OW63673   1.222   9.488   1.991  0.0892  0.3005 -0.0273
21904SOL    HW163674   1.143   9.459   1.938 -0.8425  0.3508  1.3052
21904SOL    HW263675   1.192   9.552   2.062  1.1481 -0.6513  1.2823
21906SOL     OW63676   5.537   6.464   0.498 -0.3071 -0.0959  0.0154
21906SOL    HW163677   5.540   6.558   0.532  0.9838 -0.4759  1.0094
21906SOL    HW263678   5.503   6.464   0.404  0.9057  1.5052 -0.4583
21907SOL     OW63679   1.905   9.492   4.463 -0.4937 -0.0534 -0.3367
21907SOL    HW163680   1.855   9.554   4.524  1.0592  0.0028  0.9207
21907SOL    HW263681   2.003   9.497   4.484 -0.2457 -2.1799 -0.9182
21911SOL     OW63682   3.448   6.747   5.342  0.2503  0.2729  0.2421
21911SOL    HW163683   3.483   6.826   5.393  2.2303  1.0539 -2.2481
21911SOL    HW263684   3.371   6.776   5.285  0.9452  0.3974 -0.6348
21912SOL     OW63685   7.807   7.391   5.667  0.5819  0.6793 -0.3786
21912SOL    HW163686   7.892   7.416   5.714  0.1318  0.2001  0.6995
21912SOL    HW263687   7.734   7.379   5.733  0.3883 -1.9106 -0.9828
21913SOL     OW63688   3.363   3.497   4.724  0.0356  0.7118 -0.3305
21913SOL    HW163689   3.373   3.518   4.626  0.4805  1.0923 -0.2058
21913SOL    HW263690   3.352   3.582   4.775 -0.7381  0.4775 -0.1048
21916SOL     OW63691   6.659   8.170   7.471  0.5851  0.3158 -0.2460
21916SOL    HW163692   6.569   8.213   7.478  0.9143  0.8117  1.1146
21916SOL    HW263693   6.650   8.082   7.423 -0.4556  0.8237 -0.9961
21917SOL     OW63694   9.172   4.760   6.323 -0.2745 -0.0135 -0.0952
21917SOL    HW163695   9.157   4.850   6.363  2.0596  0.0969  0.6568
21917SOL    HW263696   9.223   4.770   6.238  0.9588 -0.6618  0.5510
21919SOL     OW63697   9.505   7.234   5.954  0.1030  0.3507  0.0587
21919SOL    HW163698   9.605   7.238   5.951  0.3439 -1.1983  3.6089
21919SOL    HW263699   9.474   7.235   6.049 -3.2490 -0.0106 -0.9542
21920SOL     OW63700   9.449   2.355   2.423 -0.4314  0.0733 -0.3589
21920SOL    HW163701   9.513   2.429   2.399  0.2888 -0.5870 -0.5078
21920SOL    HW263702   9.434   2.297   2.343 -1.1874  0.1936 -0.3073
21922SOL     OW63703   6.586   0.006   1.493  0.1850 -0.4957 -0.0495
21922SOL    HW163704   6.633   0.040   1.412  1.7788 -0.6888  0.7833
21922SOL    HW263705   6.597  -0.093   1.499  3.2595 -0.0951  2.3431
21923SOL     OW63706   6.264   9.009   5.793  0.1319 -0.0920  0.5885
21923SOL    HW163707   6.232   9.097   5.828  0.9468 -0.2832  1.8593
21923SOL    HW263708   6.297   8.954   5.869  0.6395 -1.0722 -0.3399
21924SOL     OW63709   6.928   2.440   2.495  0.0892 -0.5970  0.7576
21924SOL    HW163710   6.903   2.527   2.537  0.6741  0.7252 -1.5278
21924SOL    HW263711   6.990   2.390   2.555 -0.6899  0.3233  2.3347
21925SOL     OW63712   3.114   8.656   3.329 -0.1517 -0.0987  0.1716
21925SOL    HW163713   3.154   8.653   3.421 -0.6743  1.3716  0.4517
21925SOL    HW263714   3.144   8.740   3.282  0.3459 -0.9744 -1.1097
21926SOL     OW63715   5.732   0.686   2.523 -0.2622 -0.4167 -0.2705
21926SOL    HW163716   5.659   0.627   2.556 -0.6941 -0.6036 -1.5433
21926SOL    HW263717   5.798   0.632   2.472 -0.0963  0.0296 -0.5291
21928SOL     OW63718   2.162   6.517   1.109 -0.1239  0.6291  0.2702
21928SOL    HW163719   2.111   6.433   1.128  0.9736 -0.0973  0.0630
21928SOL    HW263720   2.200   6.513   1.017 -2.7564  2.7778 -0.9640
21929SOL     OW63721   5.711   1.802   5.719 -0.2708 -0.2275 -0.1462
21929SOL    HW163722   5.626   1.800   5.773  0.3455 -1.4649  0.7849
21929SOL    HW263723   5.722   1.716   5.670  1.0495 -0.5376  0.6723
21930SOL     OW63724   0.023   2.806   3.669  0.2902 -0.3778  0.4135
21930SOL    HW163725  -0.002   2.725   3.618 -1.1755 -0.6152  1.4944
21930SOL    HW263726   0.077   2.867   3.611 -3.2204  0.4128 -2.1791
21931SOL     OW63727   7.703   4.488   0.012 -0.0901  0.1137 -0.4343
21931SOL    HW163728   7.608   4.484  -0.016  0.0618  0.3731 -1.0025
21931SOL    HW263729   7.761   4.454  -0.063  0.4246  2.1735 -1.0187
21934SOL     OW63730   7.302   0.570   0.474  0.4982  0.6857 -0.2150
21934SOL    HW163731   7.206   0.574   0.449  0.2149 -0.5375  0.6595
21934SOL    HW263732   7.333   0.662   0.500 -0.5967  0.9634  0.1367
21935SOL     OW63733   1.817   4.668   7.726  0.0636 -0.0658 -0.2902
21935SOL    HW163734   1.896   4.609   7.744 -0.1977  0.1871  1.8788
21935SOL    HW263735   1.840   4.763   7.750 -1.5261 -0.3105  2.4079
21936SOL     OW63736   1.931   0.508   6.749  0.9027 -0.1304  0.3240
21936SOL    HW163737   1.843   0.524   6.795  0.4929 -1.0342 -0.1253
21936SOL    HW263738   1.981   0.436   6.797  0.8394 -0.4934 -0.1502
21937SOL     OW63739   3.303   9.574   6.468 -0.2789 -0.0277 -0.8585
21937SOL    HW163740   3.368   9.504   6.497  1.4966  1.8154 -0.2742
21937SOL    HW263741   3.250   9.605   6.547 -0.0774  0.2890 -0.8479
21938SOL     OW63742   3.465   0.705   6.719  0.4179 -0.0949 -0.6166
21938SOL    HW163743   3.447   0.662   6.808 -0.0516 -0.1617 -0.7442
21938SOL    HW263744   3.538   0.773   6.730 -0.0121  0.2890 -0.0629
21939SOL     OW63745   4.987   4.797   7.532 -0.1688  0.3000 -0.6452
21939SOL    HW163746   5.036   4.752   7.457  0.0807 -0.9233  0.2439
21939SOL    HW263747   4.930   4.870   7.495 -0.3238 -0.5240 -2.0811
21940SOL     OW63748   5.604   7.807   6.188  0.1386  0.0250  0.5025
21940SOL    HW163749   5.689   7.765   6.218  0.5315  0.2797 -0.2298
21940SOL    HW263750   5.544   7.736   6.149 -0.1662 -0.2233  1.4223
21941SOL     OW63751   8.177   1.691   2.927 -0.0846 -0.0146  0.2129
21941SOL    HW163752   8.271   1.711   2.954  0.0086 -1.5314  1.1138
21941SOL    HW263753   8.147   1.756   2.857  2.0786 -0.2987 -1.0217
21942SOL     OW63754   8.497   1.691   4.492 -0.1262 -0.8093 -0.4362
21942SOL    HW163755   8.549   1.637   4.426 -0.7424 -0.3132 -1.3251
21942SOL    HW263756   8.521   1.788   4.482 -0.1705 -0.7380  0.1178
21943SOL     OW63757   0.159   4.591   3.634  0.2411 -0.1660  0.0504
21943SOL    HW163758   0.130   4.620   3.543 -1.1855  0.3442  0.6492
21943SOL    HW263759   0.219   4.511   3.626  0.9302  0.4925 -1.3815
21944SOL     OW63760   7.699   0.491   4.017  0.1724  0.1660  0.6336
21944SOL    HW163761   7.658   0.577   4.047 -0.1790  0.6082 -1.0870
21944SOL    HW263762   7.660   0.464   3.929  1.8907 -0.5979  0.0915
21946SOL     OW63763   7.153   6.295   3.098  0.0766  0.1851 -1.2064
21946SOL    HW163764   7.195   6.269   3.011  0.1794 -1.1908 -0.7555
21946SOL    HW263765   7.200   6.248   3.173 -1.0175  0.1352 -0.5400
21947SOL     OW63766   6.141   3.138   0.504  0.2357  0.4026  0.6266
21947SOL    HW163767   6.231   3.140   0.459  1.0777 -1.5295  2.1591
21947SOL    HW263768   6.103   3.231   0.506  1.8767  1.1301 -0.6675
21948SOL     OW63769   2.568   6.701   6.521  0.3401  0.0477  0.4201
21948SOL    HW163770   2.567   6.799   6.500 -0.0478  0.0930  0.6527
21948SOL    HW263771   2.475   6.669   6.537  0.1847 -0.8820 -2.0848
21949SOL     OW63772   5.811   2.590   5.272  0.3779 -0.0148  1.0362
21949SOL    HW163773   5.827   2.558   5.366 -0.6885 -0.5542  1.0482
21949SOL    HW263774   5.848   2.524   5.207  0.3985 -0.0406  1.0744
21950SOL     OW63775   1.278   2.799   5.453  0.2555  0.3788 -0.2725
21950SOL    HW163776   1.198   2.858   5.468 -1.7004 -1.8573 -1.5357
21950SOL    HW263777   1.322   2.824   5.366  0.2662  0.8847 -0.1223
21951SOL     OW63778   5.479   5.991   1.662 -0.1533 -0.1957 -0.5424
21951SOL    HW163779   5.508   5.967   1.754 -0.8278  0.5867 -0.1190
21951SOL    HW263780   5.547   6.052   1.620 -0.6840  0.8210  0.0706
21953SOL     OW63781   7.387   6.342   2.648  0.1010  0.2264 -0.1985
21953SOL    HW163782   7.377   6.429   2.599  2.2561  0.7761  0.2712
21953SOL    HW263783   7.481   6.309   2.639 -0.5808 -1.8630 -0.0069
21954SOL     OW63784   0.776   2.956   0.737  0.1048  0.2043  0.5635
21954SOL    HW163785   0.708   2.995   0.675  1.0727  1.3710  0.2263
21954SOL    HW263786   0.806   2.867   0.702 -0.0238  0.4464 -0.1632
21955SOL     OW63787   7.340   2.093   1.500  0.0739 -0.0712  0.1346
21955SOL    HW163788   7.306   2.044   1.580 -1.6042  2.3152  0.9355
21955SOL    HW263789   7.307   2.048   1.417 -1.2303 -0.4703  0.8540
21956SOL     OW63790   3.218   5.337   1.047 -0.4196  0.3420 -0.2842
21956SOL    HW163791   3.183   5.252   1.005  1.8071 -0.6302 -0.2201
21956SOL    HW263792   3.196   5.414   0.987  1.0675 -0.8000 -2.3948
21957SOL     OW63793   2.584   7.245   6.204  0.0767 -0.0029 -0.2245
21957SOL    HW163794   2.519   7.241   6.280 -0.3813 -1.3972 -0.6777
21957SOL    HW263795   2.539   7.219   6.119  0.6629  1.2681 -0.9502
21958SOL     OW63796   9.210   6.741   3.569  0.4401 -0.0147  0.5343
21958SOL    HW163797   9.266   6.665   3.537 -0.4043 -0.3276 -0.2297
21958SOL    HW263798   9.253   6.827   3.541  0.9296 -0.2248  0.6215
21960SOL     OW63799   8.784   4.284   1.682 -0.1469  0.1233  0.3045
21960SOL    HW163800   8.731   4.263   1.765 -0.1904  1.3450  0.5914
21960SOL    HW263801   8.813   4.199   1.639 -1.2577 -0.5400  0.8482
21961SOL     OW63802   3.352   3.283   0.223  0.0870  0.0526  0.2068
21961SOL    HW163803   3.321   3.195   0.257  1.3157 -0.9270 -1.1527
21961SOL    HW263804   3.445   3.275   0.186  0.2691  1.9309  0.1729
21962SOL     OW63805   8.891   7.985   6.916  0.1387 -0.4298  0.1447
21962SOL    HW163806   8.988   8.007   6.920 -0.0434  0.2242  0.9252
21962SOL    HW263807   8.849   8.033   6.839 -0.2833  2.0964  1.8992
21964SOL     OW63808   6.326   7.312   3.423  0.2671 -0.7209 -0.0576
21964SOL    HW163809   6.271   7.229   3.436 -0.2924  0.0272  2.6648
21964SOL    HW263810   6.268   7.384   3.385  0.0544 -0.7409  0.2253
21965SOL     OW63811   0.757   9.719   7.125  0.2108  0.4672  0.2837
21965SOL    HW163812   0.775   9.742   7.029  1.0171 -1.2285  0.0226
21965SOL    HW263813   0.682   9.654   7.130 -0.0841  0.8448  0.8421
21966SOL     OW63814   0.304   6.184   1.177  0.1162  0.1619  0.8215
21966SOL    HW163815   0.303   6.212   1.273 -1.3998 -0.5618  1.0302
21966SOL    HW263816   0.216   6.207   1.134 -1.2830 -4.3215  1.0588
21967SOL     OW63817   5.288   7.651   4.178 -0.6866  0.2999  0.6944
21967SOL    HW163818   5.208   7.621   4.229 -0.3889 -1.8753 -0.0566
21967SOL    HW263819   5.301   7.591   4.098  0.0348  2.3634 -0.7884
21968SOL     OW63820   8.925   3.305   0.108 -0.1649  0.4300  0.4481
21968SOL    HW163821   8.986   3.239   0.064 -1.2179 -1.4919  1.8423
21968SOL    HW263822   8.975   3.389   0.126  0.9906  0.3341 -2.0515
21969SOL     OW63823   9.584   9.419   3.943  0.7692  0.4063  0.3962
21969SOL    HW163824   9.557   9.340   3.997 -0.4736  0.3250 -0.3390
21969SOL    HW263825   9.504   9.476   3.925  1.9935  3.0513  2.8625
21970SOL     OW63826   3.726   8.526   3.862 -0.1397  0.2672  0.6006
21970SOL    HW163827   3.678   8.606   3.899 -0.7297 -0.0868  0.6185
21970SOL    HW263828   3.677   8.443   3.890 -0.0510 -0.0520 -0.1888
21971SOL     OW63829   2.796   1.257   1.004 -0.4005 -0.2560 -0.4874
21971SOL    HW163830   2.714   1.262   0.947 -0.1039 -0.5068 -0.9386
21971SOL    HW263831   2.798   1.169   1.052 -0.0111 -0.5651 -1.0644
21972SOL     OW63832   3.786   6.966   3.875 -0.2573 -0.1921  0.3109
21972SOL    HW163833   3.752   6.960   3.968 -0.9225  0.5305  0.1165
21972SOL    HW263834   3.826   6.878   3.848 -0.7698 -0.6360  0.9983
21973SOL     OW63835   7.127   2.278   5.274  0.1863 -0.0908 -0.3146
21973SOL    HW163836   7.053   2.215   5.250 -0.6515  0.2750  1.2365
21973SOL    HW263837   7.100   2.371   5.253 -0.2812  0.1633  1.3622
21974SOL     OW63838   3.839   0.678   1.624  0.1132 -0.3836 -0.0825
21974SOL    HW163839   3.865   0.588   1.660  0.7864 -0.8409 -1.6892
21974SOL    HW263840   3.921   0.735   1.616 -0.1639  0.0161 -0.0835
21975SOL     OW63841   5.867   1.859   5.936  0.1011 -0.0323  0.2759
21975SOL    HW163842   5.949   1.803   5.947  0.3210 -0.0272 -1.2386
21975SOL    HW263843   5.811   1.822   5.862 -0.2877  1.1098 -0.0109
21976SOL     OW63844   3.680   6.080   2.310 -0.4724  0.2517 -0.1243
21976SOL    HW163845   3.741   6.144   2.357 -1.6653  0.5087  1.1177
21976SOL    HW263846   3.693   5.988   2.347 -0.2892  0.1657 -0.4009
21978SOL     OW63847   0.314   5.396   4.236 -0.0018 -0.1257 -0.5050
21978SOL    HW163848   0.237   5.359   4.288  0.2129  2.6272  1.9284
21978SOL    HW263849   0.377   5.322   4.212 -0.7998 -1.6708  1.9988
21979SOL     OW63850   1.556   1.969   3.364  0.0703  0.1697  0.1373
21979SOL    HW163851   1.503   1.978   3.448  1.6951 -1.7612  1.3979
21979SOL    HW263852   1.534   2.045   3.303 -2.8240  0.3637  1.3434
21980SOL     OW63853   8.551   1.476   4.342 -0.3342  0.3507  0.4304
21980SOL    HW163854   8.507   1.516   4.262 -0.6580 -0.1399  0.3571
21980SOL    HW263855   8.644   1.449   4.319 -0.3676  0.3702  0.2663
21981SOL     OW63856   3.325   9.671   3.902 -0.4253  0.7662 -0.1237
21981SOL    HW163857   3.425   9.680   3.892 -0.4988  1.3199 -0.3826
21981SOL    HW263858   3.302   9.664   3.999 -0.0273 -0.6658 -0.1324
21982SOL     OW63859   0.043   5.573   3.500 -0.2461 -0.3602 -0.4068
21982SOL    HW163860   0.066   5.654   3.554 -1.9039 -0.9925  1.3179
21982SOL    HW263861   0.002   5.602   3.413  0.6048  0.6424 -0.4981
21983SOL     OW63862   7.324   6.865   2.252 -0.2702  0.2251 -0.1933
21983SOL    HW163863   7.399   6.806   2.223 -1.2853 -1.1580 -0.0554
21983SOL    HW263864   7.353   6.921   2.330  1.2020  1.0755 -1.3251
21984SOL     OW63865   3.157   6.766   0.473  0.0046  0.3811  0.6482
21984SOL    HW163866   3.075   6.728   0.430 -0.8426  1.3642  1.3696
21984SOL    HW263867   3.177   6.855   0.433  1.3596 -0.3167 -0.2751
21985SOL     OW63868   3.836   4.651   2.521 -0.0233 -0.2290 -0.1541
21985SOL    HW163869   3.759   4.703   2.559 -0.5885 -0.6390 -0.7100
21985SOL    HW263870   3.895   4.619   2.595 -0.3665  0.1279  0.2772
21986SOL     OW63871   3.617   5.012   4.200  0.8391 -0.8250 -0.2677
21986SOL    HW163872   3.699   4.994   4.254  1.9147 -0.7101 -1.8278
21986SOL    HW263873   3.597   5.110   4.200  0.1789 -0.9564  0.8466
21988SOL     OW63874   4.305   3.845   6.761  0.8825 -0.1359 -0.0138
21988SOL    HW163875   4.287   3.763   6.814  1.4997  0.1093  0.5739
21988SOL    HW263876   4.256   3.840   6.674 -0.3220 -0.4276  0.6720
21989SOL     OW63877   7.825   4.633   3.737 -0.4430  0.5739  0.3748
21989SOL    HW163878   7.760   4.596   3.803 -0.0748  1.6785  1.3853
21989SOL    HW263879   7.788   4.719   3.700  0.9351  1.8598  1.8708
21990SOL     OW63880   1.097   3.572   5.322  0.1541  0.4079  0.3722
21990SOL    HW163881   1.180   3.561   5.267  0.5393 -0.4017  1.1084
21990SOL    HW263882   1.076   3.670   5.331  1.7854  0.6944  1.3145
21991SOL     OW63883   9.181   1.321   2.894  0.3301  0.1539 -0.2796
21991SOL    HW163884   9.168   1.237   2.946 -0.5119  0.4355 -0.0254
21991SOL    HW263885   9.126   1.317   2.810 -0.8284  1.0335  0.4232
21992SOL     OW63886   8.645   8.401   0.385  0.1213 -0.1488 -0.0658
21992SOL    HW163887   8.660   8.444   0.295 -0.5670  3.2035  1.3652
21992SOL    HW263888   8.734   8.383   0.428  0.4253 -0.8270 -0.9481
21993SOL     OW63889   7.243   3.449   2.988  0.2429 -0.1242  0.5990
21993SOL    HW163890   7.156   3.494   2.964  0.2122 -0.5408 -0.0635
21993SOL    HW263891   7.234   3.351   2.974  1.8071  0.1263 -2.4595
21994SOL     OW63892   0.745   1.415   5.411  0.7060 -0.4233 -0.3598
21994SOL    HW163893   0.663   1.360   5.423  0.5298 -0.2220 -0.6410
21994SOL    HW263894   0.802   1.408   5.493  0.4584 -0.6444 -0.2062
21995SOL     OW63895   3.982   0.147   7.412  0.1399  0.4836 -0.1958
21995SOL    HW163896   3.996   0.126   7.315 -0.0624 -0.4139 -0.0330
21995SOL    HW263897   3.900   0.100   7.445  1.3089 -0.8468  0.9050
21996SOL     OW63898   9.649   1.153   0.321 -0.2915 -0.3154  0.1444
21996SOL    HW163899   9.637   1.221   0.393 -2.8576 -1.7271  1.1331
21996SOL    HW263900   9.680   1.067   0.361 -0.5624 -0.7649 -0.5892
21997SOL     OW63901   4.280   4.654   6.126  0.2176  0.9401 -0.5162
21997SOL    HW163902   4.250   4.650   6.031  1.3415  1.3713 -0.9067
21997SOL    HW263903   4.307   4.563   6.156 -2.5743  0.3213  0.2309
21998SOL     OW63904   9.713   6.664   1.376  0.1364 -0.2077 -0.2196
21998SOL    HW163905   9.686   6.615   1.459  0.3905 -1.8594 -1.0920
21998SOL    HW263906   9.647   6.646   1.303 -0.2474  1.4759 -0.3128
21999SOL     OW63907   2.035   9.732   3.929  0.1440 -0.0780 -0.1584
21999SOL    HW163908   2.011   9.656   3.989 -0.0290  0.2201  0.1508
21999SOL    HW263909   2.033   9.818   3.981  1.2651  0.0224 -0.2754
22000SOL     OW63910   3.016   8.027   2.084  0.1239 -0.1557 -0.1025
22000SOL    HW163911   3.010   7.940   2.034  0.2817 -0.0598 -0.2919
22000SOL    HW263912   3.112   8.046   2.107  0.2412  0.5522 -1.1206
22002SOL     OW63913   8.646   2.293   1.411  0.0844  0.1816 -0.1455
22002SOL    HW163914   8.660   2.213   1.352  1.2298 -0.4201  0.9282
22002SOL    HW263915   8.734   2.325   1.445 -0.4359  1.4696  0.0242
22004SOL     OW63916   1.624   4.873   7.582  0.9723 -0.2654 -0.3674
22004SOL    HW163917   1.715   4.832   7.582  0.2605 -1.8782  0.1871
22004SOL    HW263918   1.565   4.824   7.646 -0.3496  0.6478 -0.8623
22007SOL     OW63919   6.771   9.163   5.435 -0.3156  0.4431  0.5101
22007SOL    HW163920   6.734   9.199   5.521 -1.2591  0.6577  0.0143
22007SOL    HW263921   6.699   9.112   5.386  0.4570 -0.4285  0.2616
22008SOL     OW63922   8.892   6.402   7.844  0.0226  0.4615 -0.5204
22008SOL    HW163923   8.937   6.313   7.837  0.3961  0.3457  2.7862
22008SOL    HW263924   8.930   6.454   7.920 -4.3599  0.9568  1.5196
22009SOL     OW63925   1.446   0.333   4.307  0.3671 -0.1892  0.5520
22009SOL    HW163926   1.500   0.395   4.364  0.4225  0.7094 -0.4659
22009SOL    HW263927   1.504   0.258   4.275  0.9939  0.6710 -0.3859
22010SOL     OW63928   0.487   5.597   5.739 -0.5010 -0.0098  0.1781
22010SOL    HW163929   0.566   5.656   5.721 -0.2676  0.5022  2.7103
22010SOL    HW263930   0.516   5.517   5.791 -1.2555 -1.1462 -1.0816
22011SOL     OW63931   0.823   5.705   7.305 -0.1776  0.1518 -0.3152
22011SOL    HW163932   0.729   5.733   7.287  0.2162  1.6946 -0.0802
22011SOL    HW263933   0.875   5.784   7.337  0.7012 -1.1335  1.5181
22012SOL     OW63934   1.112   3.017   7.196  0.2536 -0.2254 -0.4402
22012SOL    HW163935   1.074   2.934   7.236  0.7967 -0.0220  0.4948
22012SOL    HW263936   1.103   3.012   7.096  1.7338 -2.1363 -0.5170
22013SOL     OW63937   6.164   8.260   3.297 -0.0025 -0.0439 -0.5732
22013SOL    HW163938   6.259   8.289   3.286  0.2146  0.5380  2.3682
22013SOL    HW263939   6.152   8.217   3.387 -2.9380  1.7358 -0.0403
22014SOL     OW63940   8.429   5.634   7.084  0.0844 -0.0772  1.0341
22014SOL    HW163941   8.454   5.616   6.988 -0.5473  0.0700  0.8383
22014SOL    HW263942   8.460   5.725   7.110  0.0181 -0.0124  0.8854
22015SOL     OW63943   2.195   1.675   7.271  0.3084  0.2623  0.0445
22015SOL    HW163944   2.236   1.619   7.199  1.2411 -0.2177  0.9403
22015SOL    HW263945   2.241   1.657   7.358 -1.2277  0.3479  0.9053
22016SOL     OW63946   4.344   3.386   0.307  0.0460 -0.5966  0.1417
22016SOL    HW163947   4.433   3.424   0.335 -0.3465  0.5634 -0.1367
22016SOL    HW263948   4.308   3.328   0.380  0.3788  0.0807  0.8493
22017SOL     OW63949   8.411   0.697   5.901 -0.2873 -0.0498 -0.1495
22017SOL    HW163950   8.329   0.753   5.914 -0.0306  0.8203 -2.1029
22017SOL    HW263951   8.484   0.732   5.959 -0.3018  1.3280 -0.9240
22018SOL     OW63952   5.314   3.310   1.238  0.0532 -0.1843  0.4989
22018SOL    HW163953   5.296   3.394   1.288  0.9091 -0.3417  1.0750
22018SOL    HW263954   5.275   3.232   1.289  0.5648 -0.2994  0.7112
22019SOL     OW63955   8.190   0.863   0.300 -0.1354  0.3206 -0.3423
22019SOL    HW163956   8.166   0.856   0.397 -1.4730  1.5545 -0.5834
22019SOL    HW263957   8.289   0.849   0.290  0.0927  0.6670  1.2556
22020SOL     OW63958   2.050   7.132   4.983 -0.6715  0.0256  0.2141
22020SOL    HW163959   2.005   7.047   5.008 -0.0447 -0.5627 -0.6033
22020SOL    HW263960   1.998   7.178   4.911 -1.0726  0.3939  0.7382
22022SOL     OW63961   8.420   3.572   5.442  0.0038 -0.5536 -0.4183
22022SOL    HW163962   8.324   3.567   5.414 -0.8951  2.3556  1.9870
22022SOL    HW263963   8.431   3.531   5.532  0.9494 -0.4519 -0.4793
22023SOL     OW63964   9.190   9.033   6.263  0.3683  0.3335  0.6223
22023SOL    HW163965   9.279   9.075   6.246  0.1128  0.1513 -1.3262
22023SOL    HW263966   9.165   9.044   6.359  2.4951  0.3675  1.1926
22024SOL     OW63967   3.405   4.370   5.715 -0.3170 -0.0470 -0.1222
22024SOL    HW163968   3.425   4.465   5.692 -0.8037  0.0668 -0.0699
22024SOL    HW263969   3.378   4.364   5.811 -0.1779 -0.2563 -0.0956
22028SOL     OW63970   7.881   0.298   5.137  0.5902  0.3048  0.2932
22028SOL    HW163971   7.804   0.251   5.092  0.7611 -1.1295  1.4421
22028SOL    HW263972   7.945   0.331   5.069 -0.1656 -0.0772 -0.6100
22029SOL     OW63973   6.991   8.027   7.177  0.1697 -0.2201  0.6262
22029SOL    HW163974   6.934   8.087   7.121  2.3873  1.0179 -0.3433
22029SOL    HW263975   7.033   7.957   7.120  0.0678 -0.7903  1.2471
22030SOL     OW63976   0.687   8.377   4.356 -0.4743 -0.4628  0.0215
22030SOL    HW163977   0.781   8.407   4.341 -0.6886  0.2953  0.1747
22030SOL    HW263978   0.684   8.313   4.433 -0.3006  0.6854  0.9772
22031SOL     OW63979   2.087   0.318   3.414  0.1631 -0.1264  0.3395
22031SOL    HW163980   2.061   0.271   3.498  1.4264  0.3988  1.0286
22031SOL    HW263981   2.177   0.360   3.425  0.0632  0.4884 -1.0579
22032SOL     OW63982   6.376   9.018   4.121 -0.3553 -0.0114 -0.4395
22032SOL    HW163983   6.336   9.027   4.030  0.7311 -0.1569 -0.9381
22032SOL    HW263984   6.318   8.959   4.178 -2.0175  1.5500 -0.4390
22034SOL     OW63985   4.080   3.293   5.085 -0.0682 -0.0369  0.4939
22034SOL    HW163986   4.137   3.238   5.145  0.5108  1.6519  1.5171
22034SOL    HW263987   3.984   3.269   5.098  0.0415  0.4155  2.2357
22035SOL     OW63988   1.072   4.706   3.056 -0.4327 -0.5084  0.4770
22035SOL    HW163989   1.010   4.717   3.134  2.1077  0.3295  2.4459
22035SOL    HW263990   1.120   4.618   3.064  1.6342  0.6516  1.2390
22036SOL     OW63991   6.435   7.701   5.340 -0.2911  0.4368  0.1794
22036SOL    HW163992   6.383   7.616   5.348 -0.7014  0.5226 -1.3139
22036SOL    HW263993   6.440   7.746   5.429 -1.1849 -0.4948  0.7139
22037SOL     OW63994   3.283   7.830   2.327  0.2278  0.0435  0.5083
22037SOL    HW163995   3.343   7.910   2.321 -0.7460  0.8145  0.9350
22037SOL    HW263996   3.332   7.755   2.371  1.5586 -0.0046 -1.0089
22038SOL     OW63997   4.878   8.102   5.796  0.1265  0.5665  0.1224
22038SOL    HW163998   4.926   8.181   5.834  0.9777 -0.4836  1.2533
22038SOL    HW263999   4.779   8.116   5.804  0.2684  1.4063  0.5163
22039SOL     OW64000   2.632   0.505   7.179 -0.1616  0.2363 -0.7395
22039SOL    HW164001   2.715   0.480   7.129  0.3080  0.2389  0.0275
22039SOL    HW264002   2.650   0.500   7.277 -0.3700  2.5556 -0.5652
22040SOL     OW64003   1.564   0.241   2.695 -0.5759 -0.2135 -0.1932
22040SOL    HW164004   1.600   0.269   2.784 -0.2752 -0.5608 -0.2042
22040SOL    HW264005   1.468   0.217   2.704 -0.6261  0.0384 -0.0239
22041SOL     OW64006   3.533   7.268   2.145 -0.0743  0.2915  0.7051
22041SOL    HW164007   3.619   7.316   2.161  0.8895 -0.9888 -0.4915
22041SOL    HW264008   3.545   7.171   2.165 -0.8080 -0.1449 -0.8724
22042SOL     OW64009   6.291   4.546   1.818 -0.0158 -0.2424 -0.2317
22042SOL    HW164010   6.252   4.629   1.858 -0.9499 -0.2195 -1.1395
22042SOL    HW264011   6.382   4.565   1.782 -0.4378  0.5272 -0.9039
22043SOL     OW64012   4.319   7.554   3.836  0.5872 -0.1168 -0.1941
22043SOL    HW164013   4.383   7.557   3.913  2.1845 -1.9199 -1.4031
22043SOL    HW264014   4.288   7.461   3.823 -2.8346  0.8245  0.7427
22046SOL     OW64015   4.161   2.971   2.107 -0.0744  0.2473 -0.3096
22046SOL    HW164016   4.148   3.069   2.088 -1.0376  0.2060  0.1382
22046SOL    HW264017   4.074   2.924   2.100  0.5312 -0.7576 -1.4672
22047SOL     OW64018   4.263   1.563   6.941  0.3596 -0.1169  0.0112
22047SOL    HW164019   4.217   1.474   6.936  1.2054 -0.6274  1.1701
22047SOL    HW264020   4.313   1.579   6.856  0.3192 -0.8079 -0.1510
22049SOL     OW64021   5.719   0.533   7.043 -0.6426 -0.9067 -0.0684
22049SOL    HW164022   5.749   0.501   7.133 -2.0399  0.8483  1.0485
22049SOL    HW264023   5.622   0.556   7.046 -0.3058  0.8193 -1.5506
22052SOL     OW64024   7.784   7.587   3.752 -0.0117 -0.2117  0.8073
22052SOL    HW164025   7.882   7.602   3.767 -0.0403  1.8522 -0.7518
22052SOL    HW264026   7.734   7.672   3.770 -1.2657 -0.6752 -0.3769
22054SOL     OW64027   2.170   0.380   5.399 -0.6234 -0.5579 -0.3346
22054SOL    HW164028   2.130   0.347   5.314 -1.2419  1.9098 -1.0382
22054SOL    HW264029   2.248   0.323   5.424 -1.4667 -2.3255 -1.6354
22055SOL     OW64030   4.971   1.111   4.212  0.0066 -0.0958 -0.1912
22055SOL    HW164031   5.047   1.048   4.226  0.1668  0.2637  0.5669
22055SOL    HW264032   4.991   1.171   4.134  0.0695 -0.6545 -0.6019
22056SOL     OW64033   0.901   7.114   4.898  0.2246 -0.2519  0.1623
22056SOL    HW164034   0.996   7.137   4.879  0.5148  0.4768  2.3438
22056SOL    HW264035   0.895   7.066   4.985 -1.4396 -0.0922  0.1527
22057SOL     OW64036   2.739   8.360   0.312  0.4503 -0.1809 -0.0741
22057SOL    HW164037   2.777   8.353   0.404  0.4278 -3.8155 -0.2483
22057SOL    HW264038   2.811   8.343   0.245 -0.3736 -2.0903 -0.5368
22058SOL     OW64039   3.147   0.151   5.520 -0.0785 -0.3896  0.6086
22058SOL    HW164040   3.124   0.222   5.587  0.1446 -1.3441  1.7174
22058SOL    HW264041   3.075   0.147   5.451 -1.5341 -0.9723  2.1082
22059SOL     OW64042   2.550   7.442   0.424  0.4491  0.4931  0.1050
22059SOL    HW164043   2.498   7.388   0.490  0.9319 -1.3752 -1.0105
22059SOL    HW264044   2.620   7.495   0.472  2.9025 -3.2466  0.8523
22060SOL     OW64045   1.431   2.901   3.911  0.2618 -0.0610  0.3371
22060SOL    HW164046   1.498   2.859   3.849 -0.0799 -0.9177  0.5421
22060SOL    HW264047   1.362   2.949   3.857  0.4526 -0.0667  0.0865
22061SOL     OW64048   7.311   8.315   6.120 -0.1046 -0.5663  0.0333
22061SOL    HW164049   7.378   8.258   6.167 -1.0153 -0.6105  1.3004
22061SOL    HW264050   7.263   8.261   6.052 -0.8869 -1.3128  1.1514
22062SOL     OW64051   7.341   0.861   4.401 -0.0553  0.2890  0.0327
22062SOL    HW164052   7.249   0.845   4.365 -0.8748  0.4899  1.9334
22062SOL    HW264053   7.400   0.897   4.330 -1.1856 -0.7812 -1.4767
22064SOL     OW64054   9.895   6.330   4.114 -0.4150  0.6265 -0.2943
22064SOL    HW164055   9.991   6.305   4.119 -1.0333 -1.7558  0.0012
22064SOL    HW264056   9.867   6.373   4.199 -0.2120 -0.8801  0.5412
22065SOL     OW64057   3.940   9.910   3.535 -0.5680  0.1219 -0.3267
22065SOL    HW164058   3.957   9.860   3.620  1.5155 -0.5815 -1.1261
22065SOL    HW264059   3.915   9.846   3.462 -1.2767  0.6116 -0.5240
22066SOL     OW64060   1.238   1.839   0.219 -0.3607 -0.3294  0.2857
22066SOL    HW164061   1.246   1.922   0.274  1.6886 -0.9154  0.9096
22066SOL    HW264062   1.181   1.773   0.268 -0.9965  0.2438  0.3340
22067SOL     OW64063   9.529   4.429   1.199 -0.0618  0.1817  0.0955
22067SOL    HW164064   9.495   4.517   1.167 -2.6922 -0.3440  1.3182
22067SOL    HW264065   9.452   4.366   1.211  1.4911 -1.4534  1.7495
22068SOL     OW64066   9.822   4.572   4.698  0.9534 -0.3537 -0.0032
22068SOL    HW164067   9.829   4.644   4.767 -0.8927  0.0492 -0.2113
22068SOL    HW264068   9.791   4.487   4.741  0.6230 -0.3299 -0.1929
22069SOL     OW64069   9.885   0.039   6.749  0.0824  0.1676  0.7485
22069SOL    HW164070   9.801  -0.014   6.756  0.5544 -0.7535 -0.5217
22069SOL    HW264071   9.934   0.015   6.665  1.1648  1.3562  1.0109
22070SOL     OW64072   4.480   6.250   7.463  0.1951  0.2076 -0.1385
22070SOL    HW164073   4.425   6.306   7.401  1.6453  2.1782  0.3048
22070SOL    HW264074   4.452   6.265   7.557  0.4315  0.0139 -0.0345
22071SOL     OW64075   7.581   1.450   3.484 -0.1622  0.6164  0.0265
22071SOL    HW164076   7.633   1.534   3.465 -0.1105  0.1772 -1.7835
22071SOL    HW264077   7.485   1.474   3.500  0.1011  1.1572  0.8626
22072SOL     OW64078   2.184   5.447   0.702  0.1711 -0.4012  0.1412
22072SOL    HW164079   2.143   5.420   0.789 -2.0906  1.4258 -0.3045
22072SOL    HW264080   2.151   5.387   0.630  0.0790 -0.3628  0.1512
22073SOL     OW64081   8.014   9.923   6.891 -0.4057 -0.2362  0.7454
22073SOL    HW164082   8.011   9.872   6.977 -0.4047 -0.7965  0.4208
22073SOL    HW264083   7.961   9.873   6.822 -0.4179  0.2182  0.4288
22074SOL     OW64084   7.879   9.515   7.101  0.1101 -0.0247 -0.3669
22074SOL    HW164085   7.936   9.485   7.178  1.3847  1.6285 -0.6417
22074SOL    HW264086   7.796   9.460   7.098  0.7295 -1.0893  1.3048
22075SOL     OW64087   0.760   9.755   3.240 -0.0728 -0.2810 -0.0682
22075SOL    HW164088   0.787   9.771   3.335 -0.6571  1.2480 -0.1452
22075SOL    HW264089   0.660   9.753   3.234 -0.0316 -0.8680 -0.5784
22076SOL     OW64090   2.967   9.795   7.930 -0.4823 -0.2976 -0.2960
22076SOL    HW164091   3.009   9.704   7.930  2.3482  0.8581  3.9582
22076SOL    HW264092   2.874   9.788   7.966 -0.3347 -1.5402 -0.1167
22077SOL     OW64093   1.291   5.683   2.191 -0.2334 -0.3022  0.3541
22077SOL    HW164094   1.331   5.614   2.250  2.1640  0.7163  0.0016
22077SOL    HW264095   1.269   5.642   2.102  1.0685 -0.6482  0.1821
22078SOL     OW64096   1.973   4.970   1.750  0.1382 -0.5097  0.4551
22078SOL    HW164097   1.905   4.904   1.781  0.9660 -1.6619 -0.1364
22078SOL    HW264098   1.962   5.056   1.800 -1.7725 -0.6680  0.3087
22079SOL     OW64099   0.644   3.750   4.038  0.3405 -0.0312  0.2116
22079SOL    HW164100   0.675   3.838   4.073  1.9179 -0.7588  0.7092
22079SOL    HW264101   0.712   3.713   3.975 -1.6239  0.3975 -2.2541
22080SOL     OW64102   4.614   0.095   3.430  0.1200 -0.0958  0.3202
22080SOL    HW164103   4.671   0.013   3.424 -1.2773 -1.0154 -1.0059
22080SOL    HW264104   4.628   0.140   3.518 -0.5645 -2.8894  1.9280
22081SOL     OW64105   6.893   5.038   1.168  0.0781  0.5539  0.4099
22081SOL    HW164106   6.824   5.056   1.238 -0.0518  0.6394  0.2604
22081SOL    HW264107   6.905   5.120   1.111  0.0900  0.4415  0.2515
22082SOL     OW64108   3.665   4.721   1.997 -0.0673  0.3000 -0.0308
22082SOL    HW164109   3.684   4.794   2.062 -2.8042  0.8974  0.1487
22082SOL    HW264110   3.614   4.648   2.042  2.8291 -1.8756 -0.1516
22083SOL     OW64111   7.511   8.753   6.286 -0.2155 -0.3679  0.5453
22083SOL    HW164112   7.557   8.688   6.226  2.4127  0.7928  1.2386
22083SOL    HW264113   7.493   8.710   6.375  1.7841 -0.1126  1.1016
22084SOL     OW64114   7.076   9.717   1.548  0.2676 -0.3720  0.3899
22084SOL    HW164115   7.086   9.805   1.502  0.3522 -0.3599  0.4356
22084SOL    HW264116   7.126   9.718   1.634  1.4632 -0.9511 -0.2776
22085SOL     OW64117   7.970   5.224   1.943 -0.2156 -0.1134  0.2033
22085SOL    HW164118   7.945   5.134   1.908 -1.9223  0.4791 -0.1410
22085SOL    HW264119   8.070   5.231   1.948 -0.0673 -2.0419  0.3129
22086SOL     OW64120   3.223   9.432   1.463 -0.4387 -0.3986  0.2500
22086SOL    HW164121   3.281   9.462   1.387 -0.9849  1.1361  0.4155
22086SOL    HW264122   3.128   9.457   1.444 -0.7504 -1.0823  0.8993
22088SOL     OW64123   3.202   5.248   3.862  0.1385  0.6950  0.1548
22088SOL    HW164124   3.190   5.344   3.835 -0.6902  0.4379 -0.4094
22088SOL    HW264125   3.253   5.244   3.948 -1.2257  1.7198  1.0225
22089SOL     OW64126   1.811   2.752   6.694  0.3373 -0.2631  0.5057
22089SOL    HW164127   1.712   2.739   6.699  0.2813 -0.0010  0.1072
22089SOL    HW264128   1.831   2.848   6.677  0.6136 -0.5288 -0.7542
22090SOL     OW64129   1.902   1.270   2.985 -0.4322  0.0037  0.2213
22090SOL    HW164130   1.831   1.251   2.917 -1.8695 -0.7623  1.8667
22090SOL    HW264131   1.910   1.191   3.046  1.3596  0.3796  0.4774
22091SOL     OW64132   1.891   0.497   1.901  0.1211  0.1005 -0.3669
22091SOL    HW164133   1.927   0.405   1.883  0.3142 -0.0807  0.8841
22091SOL    HW264134   1.791   0.494   1.904  0.0970  0.1011 -1.2249
22092SOL     OW64135   3.520   7.907   5.454  0.5696  0.0699 -0.3765
22092SOL    HW164136   3.543   8.005   5.453  0.6111  0.0593 -0.5611
22092SOL    HW264137   3.493   7.879   5.362 -1.0517  0.2889  0.0114
22093SOL     OW64138   3.982   8.997   4.402  0.3397 -0.4000 -0.2887
22093SOL    HW164139   3.965   8.956   4.313  0.2388 -2.7909  0.7922
22093SOL    HW264140   4.080   9.017   4.412  0.4223 -0.5899 -0.7290
22094SOL     OW64141   7.989   8.298   5.373  0.3677  0.2835  0.5210
22094SOL    HW164142   8.002   8.317   5.275 -0.7110 -1.2994  0.0484
22094SOL    HW264143   7.891   8.295   5.393  0.5461 -1.5042  1.2154
22097SOL     OW64144   5.905   2.863   5.067 -0.3292 -0.3020  0.2205
22097SOL    HW164145   5.830   2.849   5.002 -0.2593  1.8010 -0.3615
22097SOL    HW264146   5.871   2.852   5.160 -0.2321 -4.2113 -0.1557
22098SOL     OW64147   5.068   1.580   1.101  0.3705 -0.5294  0.0786
22098SOL    HW164148   5.066   1.501   1.040 -1.2202  0.0616 -0.6592
22098SOL    HW264149   5.094   1.661   1.049 -2.1500  0.1919 -0.0907
22099SOL     OW64150   0.654   0.669   1.256 -0.1940 -0.7121  0.4112
22099SOL    HW164151   0.671   0.762   1.290 -3.1796  0.2216 -0.4941
22099SOL    HW264152   0.696   0.658   1.166  0.2895 -0.2757  0.5830
22100SOL     OW64153   6.411   1.848   6.275 -0.4880  0.3574 -0.0166
22100SOL    HW164154   6.443   1.935   6.313  0.4674 -0.0962  0.2160
22100SOL    HW264155   6.378   1.862   6.182 -0.2232  0.9426 -0.0222
22102SOL     OW64156   0.508   6.067   7.602  0.4494 -0.2573  0.5442
22102SOL    HW164157   0.534   6.111   7.687  0.4815 -0.2716  0.5416
22102SOL    HW264158   0.437   5.998   7.619 -0.1633  0.3394  0.4387
22103SOL     OW64159   1.418   3.461   7.305  0.1688  0.3054  0.0982
22103SOL    HW164160   1.469   3.440   7.222 -0.4915  1.3370 -0.5821
22103SOL    HW264161   1.396   3.376   7.353  1.6883 -0.2107 -0.0868
22104SOL     OW64162   8.929   1.530   0.758  0.1325  0.3045 -0.0967
22104SOL    HW164163   8.933   1.590   0.678 -2.4482  0.7247  0.0473
22104SOL    HW264164   9.010   1.545   0.815 -0.6471  3.9971  0.1776
22106SOL     OW64165   9.586   9.850   1.138  0.0778  0.8654  0.1520
22106SOL    HW164166   9.684   9.869   1.144 -0.0837  1.3687  1.3461
22106SOL    HW264167   9.564   9.774   1.200 -0.3978  1.1988  0.3911
22108SOL     OW64168   9.223   1.346   1.849  0.9288 -0.0629  0.1339
22108SOL    HW164169   9.154   1.411   1.819  1.3953 -0.5672 -2.1267
22108SOL    HW264170   9.305   1.395   1.878 -0.9892  0.6690  4.8185
22111SOL     OW64171   3.084   2.815   7.029  0.2356 -0.5776 -0.0106
22111SOL    HW164172   3.028   2.846   6.952 -0.8363 -0.3872  0.8244
22111SOL    HW264173   3.128   2.893   7.073  1.2385 -0.7367 -0.7201
22113SOL     OW64174   4.556   6.255   1.605 -0.2604  0.3349 -0.3756
22113SOL    HW164175   4.511   6.188   1.545  0.6986 -0.9886  0.3409
22113SOL    HW264176   4.624   6.208   1.661  1.7498  2.2321 -1.1596
22114SOL     OW64177   8.008   0.163   5.597  0.5003  0.8437  0.5650
22114SOL    HW164178   7.973   0.231   5.533  1.9250  0.0953 -1.0529
22114SOL    HW264179   8.107   0.155   5.585  0.9002  1.1520  3.3225
22115SOL     OW64180   4.059   9.582   7.649  0.3466  0.3009 -0.1521
22115SOL    HW164181   4.046   9.679   7.668 -1.1075 -0.3406  2.3816
22115SOL    HW264182   4.098   9.571   7.557 -0.8935  3.1855 -1.0969
22117SOL     OW64183   5.742   0.324   6.833 -0.1293 -0.5577 -0.3786
22117SOL    HW164184   5.830   0.327   6.786  0.0830  2.8818  0.1234
22117SOL    HW264185   5.728   0.409   6.884 -3.1069 -1.6489  0.7607
22118SOL     OW64186   0.960   1.819   0.364 -0.3118 -0.1619  0.5415
22118SOL    HW164187   1.002   1.910   0.365 -0.7337  0.0390  2.8784
22118SOL    HW264188   0.861   1.829   0.363 -0.3454 -0.6093 -0.5198
22119SOL     OW64189   8.099   3.027   4.468 -0.1661  0.6569 -0.3101
22119SOL    HW164190   8.105   3.064   4.561  1.5196 -1.0380  0.2738
22119SOL    HW264191   8.189   3.031   4.425 -0.6203  0.0171 -1.3313
22120SOL     OW64192   0.649   1.855   0.223  0.1397  0.5650 -0.0318
22120SOL    HW164193   0.713   1.925   0.189  0.6005 -0.1437 -0.6482
22120SOL    HW264194   0.567   1.854   0.165  0.3046  0.3365 -0.2667
22121SOL     OW64195   8.219   4.194   5.598  0.7511 -0.3592  0.1947
22121SOL    HW164196   8.172   4.217   5.513 -2.7505  2.4045  2.7376
22121SOL    HW264197   8.162   4.133   5.653  0.3115  2.4288  3.0004
22122SOL     OW64198   2.080   2.534   4.093  0.1428 -0.0482 -0.2512
22122SOL    HW164199   2.168   2.539   4.046 -0.1635  0.3139 -0.7882
22122SOL    HW264200   2.067   2.441   4.128  0.4124 -0.3063 -0.8145
22124SOL     OW64201   7.885   2.592   2.539 -0.0232  0.1025  0.6034
22124SOL    HW164202   7.947   2.600   2.462 -1.5597 -0.6765 -0.7491
22124SOL    HW264203   7.937   2.576   2.623  1.4617 -3.3905 -0.8994
22126SOL     OW64204   2.627   3.213   0.665  0.2294 -0.1967 -0.1804
22126SOL    HW164205   2.721   3.180   0.658  0.0053 -0.6510 -1.1752
22126SOL    HW264206   2.607   3.273   0.587  0.7016  2.5010  1.7219
22127SOL     OW64207   0.590   8.952   0.102 -0.0484  0.3118  0.0481
22127SOL    HW164208   0.673   8.903   0.129 -1.1973 -2.4949 -1.3153
22127SOL    HW264209   0.533   8.968   0.183  0.1024 -1.0792  0.4302
22128SOL     OW64210   7.786   2.075   5.150 -0.0876 -0.2424 -0.7327
22128SOL    HW164211   7.713   2.118   5.096  1.4093  1.5853 -1.3543
22128SOL    HW264212   7.783   2.111   5.243 -1.6754 -2.2208  0.0144
22129SOL     OW64213   4.233   3.305   4.813  0.2008  0.2561  0.6589
22129SOL    HW164214   4.181   3.228   4.774  0.2810  0.0446  0.9685
22129SOL    HW264215   4.186   3.339   4.895  0.2381  0.4483  0.6010
22130SOL     OW64216   3.520   7.304   7.787  0.3871  0.3160  0.8159
22130SOL    HW164217   3.516   7.251   7.872  0.4370  0.4387  0.8961
22130SOL    HW264218   3.528   7.402   7.810  1.5350  0.2644  0.6720
22131SOL     OW64219   6.706   8.724   6.835 -0.0946 -0.0993 -0.1674
22131SOL    HW164220   6.727   8.761   6.745  1.9249 -0.3270  0.1868
22131SOL    HW264221   6.734   8.628   6.839 -0.6217 -0.2275  0.5488
22133SOL     OW64222   4.734   4.317   7.146  0.1171  0.3581 -0.4968
22133SOL    HW164223   4.695   4.369   7.070 -0.3609  0.4564 -0.1878
22133SOL    HW264224   4.661   4.269   7.195  0.0672  2.2787  1.4220
22134SOL     OW64225   9.327   6.197   0.412 -0.3159 -0.7260 -0.4376
22134SOL    HW164226   9.349   6.244   0.498 -1.1922 -1.5489  0.2485
22134SOL    HW264227   9.297   6.265   0.344  1.7399  0.1012 -0.5737
22135SOL     OW64228   5.224   2.407   0.344 -0.4621  0.3711 -0.2951
22135SOL    HW164229   5.220   2.400   0.444  0.7409  0.2029 -0.2452
22135SOL    HW264230   5.203   2.500   0.316  0.7090  0.8070  0.2324
22138SOL     OW64231   2.097   4.459   7.105 -0.2396 -0.7072  0.4668
22138SOL    HW164232   2.043   4.406   7.170 -1.9901  0.8582  0.3328
22138SOL    HW264233   2.153   4.397   7.050 -1.7608 -2.3630  0.7434
22139SOL     OW64234   2.902   1.058   2.558 -0.3705 -0.0507  0.1937
22139SOL    HW164235   2.917   1.013   2.470  2.0297 -0.8596  0.9877
22139SOL    HW264236   2.900   1.157   2.544 -0.3077 -0.1833 -0.8183
22140SOL     OW64237   1.420   8.724   6.681  0.2806  0.0094 -0.3487
22140SOL    HW164238   1.511   8.727   6.641  0.2424  2.3363 -0.3647
22140SOL    HW264239   1.400   8.632   6.715  2.8865 -0.3411  0.2755
22142SOL     OW64240   2.351   8.453   4.112  0.5762  0.2138  0.9708
22142SOL    HW164241   2.410   8.534   4.118  2.4500 -1.1674  1.4500
22142SOL    HW264242   2.394   8.377   4.160 -1.4821 -0.9025  1.0822
22143SOL     OW64243   7.892   1.509   7.719  0.4389  0.3814 -0.6455
22143SOL    HW164244   7.985   1.520   7.684 -0.0598 -0.9107 -2.4838
22143SOL    HW264245   7.889   1.537   7.815  2.1861  2.6612 -1.2093
22144SOL     OW64246   5.954   0.763   2.639 -0.0805  0.2917 -0.1540
22144SOL    HW164247   5.860   0.743   2.610 -0.6959  1.2389  1.1622
22144SOL    HW264248   5.993   0.833   2.579 -0.3189  0.1199 -0.5117
22146SOL     OW64249   2.313   9.734   1.126  0.1534 -0.2758  0.1896
22146SOL    HW164250   2.352   9.644   1.141  0.6175 -0.0037  0.6356
22146SOL    HW264251   2.353   9.776   1.045  0.2424 -0.3043  0.2192
22148SOL     OW64252   2.451   9.319   5.618 -0.0197 -0.7376  0.9079
22148SOL    HW164253   2.411   9.227   5.617  1.4654 -1.4105  1.4459
22148SOL    HW264254   2.464   9.349   5.712 -0.7868  0.1502  0.7272
22150SOL     OW64255   9.618   8.144   0.887  0.7102 -0.0643 -0.1482
22150SOL    HW164256   9.603   8.076   0.958 -0.4929  0.2911 -0.0573
22150SOL    HW264257   9.716   8.163   0.880  0.9709 -1.1505  0.4213
22151SOL     OW64258   0.265   4.220   7.616  0.3460 -0.3168  0.0649
22151SOL    HW164259   0.264   4.132   7.569 -2.7524 -0.0710 -0.4584
22151SOL    HW264260   0.276   4.205   7.715  2.0401 -1.1310 -0.2365
22152SOL     OW64261   7.500   3.861   1.905  0.4089  0.6548 -0.1480
22152SOL    HW164262   7.459   3.774   1.933  0.0756  1.6861  2.7580
22152SOL    HW264263   7.592   3.845   1.869 -0.3150 -1.0675 -1.2646
22155SOL     OW64264   5.340   3.753   7.399  0.3394 -0.4391 -0.0104
22155SOL    HW164265   5.298   3.673   7.356 -0.7256  0.2530 -0.2831
22155SOL    HW264266   5.276   3.830   7.394  0.0511 -0.4121  3.0589
22158SOL     OW64267   9.857   8.377   4.549 -0.0603  0.0042 -0.3682
22158SOL    HW164268   9.857   8.426   4.636  2.1278 -0.8139  0.1253
22158SOL    HW264269   9.806   8.292   4.559 -1.6676  0.9305 -0.5111
22159SOL     OW64270   4.571   7.903   2.045 -0.0987  0.4223  0.7563
22159SOL    HW164271   4.577   7.955   2.130  0.1102  1.5125  0.0885
22159SOL    HW264272   4.519   7.955   1.977 -0.8284 -0.7210  0.4197
22160SOL     OW64273   7.546   5.923   0.439 -0.5165  0.7991 -0.0500
22160SOL    HW164274   7.642   5.939   0.463 -0.1612 -0.5403 -0.5245
22160SOL    HW264275   7.494   6.007   0.453  0.3010  0.9775  2.2396
22161SOL     OW64276   1.891   1.011   0.704 -0.1768  0.4201  0.7265
22161SOL    HW164277   1.903   0.922   0.661 -1.8086  0.8545 -0.6416
22161SOL    HW264278   1.905   1.002   0.803  1.1944 -1.0333  0.4307
22162SOL     OW64279   1.975   3.787   6.977  0.0148 -0.4514 -0.6899
22162SOL    HW164280   1.926   3.802   6.891 -1.6570 -0.0628  0.3102
22162SOL    HW264281   2.043   3.715   6.964 -0.4826 -0.6651 -2.2431
22163SOL     OW64282   4.629   8.553   4.835 -0.7127  0.4867 -0.3888
22163SOL    HW164283   4.672   8.593   4.754 -1.5094 -0.1270 -1.1138
22163SOL    HW264284   4.698   8.506   4.889  0.0137  1.7527 -0.1755
22164SOL     OW64285   0.683   6.197   2.583  0.1180 -0.1735  0.5973
22164SOL    HW164286   0.726   6.245   2.659 -0.7532  0.2851  0.8063
22164SOL    HW264287   0.596   6.241   2.561  0.7805  0.2688 -1.2604
22165SOL     OW64288   4.312   6.294   1.396  0.2760 -0.1881  0.8736
22165SOL    HW164289   4.309   6.256   1.489 -0.7956 -0.9441  0.5374
22165SOL    HW264290   4.224   6.336   1.374  0.4060 -0.3259  0.0667
22166SOL     OW64291   4.689   4.063   0.914 -0.2327  0.2027 -0.8469
22166SOL    HW164292   4.684   4.158   0.886  0.4155  0.0791 -1.4050
22166SOL    HW264293   4.762   4.052   0.983  2.8165 -0.6223 -4.0343
22167SOL     OW64294   9.124   0.103   4.110  0.7688 -0.1890 -0.2111
22167SOL    HW164295   9.176   0.038   4.167  0.2826 -0.2941  0.1205
22167SOL    HW264296   9.029   0.105   4.141  0.6594  0.2804 -0.5747
22168SOL     OW64297   3.169   7.922   5.460 -0.0069  0.3565  0.1872
22168SOL    HW164298   3.202   7.983   5.533  1.5811  0.5167 -0.6339
22168SOL    HW264299   3.157   7.974   5.376 -1.0832  0.0191  0.1326
22169SOL     OW64300   1.325   8.813   6.016 -0.7852  0.0693  0.3584
22169SOL    HW164301   1.329   8.713   6.023 -0.4576  0.1764  1.7209
22169SOL    HW264302   1.234   8.845   6.040 -1.5526 -0.0511 -2.2005
22171SOL     OW64303   2.493   8.355   4.491  0.1683 -0.1975  0.4447
22171SOL    HW164304   2.450   8.291   4.427  1.4759 -0.8079  0.1716
22171SOL    HW264305   2.547   8.304   4.558 -0.6977  0.4737  1.6845
22172SOL     OW64306   8.201   0.190   3.772  0.2066  0.6555  0.3039
22172SOL    HW164307   8.185   0.171   3.676  0.8404  2.2214 -0.1273
22172SOL    HW264308   8.116   0.177   3.823  0.0547 -0.9473 -0.3151
22173SOL     OW64309   1.848   2.614   2.214  0.1379  0.1935 -0.4307
22173SOL    HW164310   1.837   2.679   2.139 -0.0007 -0.2216 -0.7677
22173SOL    HW264311   1.900   2.657   2.287 -1.1501  1.1691 -0.0604
22174SOL     OW64312   6.025   6.094   0.175  0.1265  0.1191  0.9117
22174SOL    HW164313   6.044   5.996   0.176 -1.3020 -0.2194 -1.4224
22174SOL    HW264314   6.108   6.144   0.201  0.6868 -1.7035  2.7408
22176SOL     OW64315   1.247   2.455   1.665  0.2281  0.1476  0.1586
22176SOL    HW164316   1.162   2.508   1.666  1.4146  2.1334 -1.3024
22176SOL    HW264317   1.246   2.390   1.741 -1.5990  1.7264  1.5471
22177SOL     OW64318   3.529   8.386   4.133  0.2873 -0.0520  0.3269
22177SOL    HW164319   3.486   8.339   4.056 -2.0730  0.0804  1.5397
22177SOL    HW264320   3.499   8.481   4.135  1.3328  0.2781  0.6784
22178SOL     OW64321   0.811   3.264   0.096 -0.1254  0.0027  0.4559
22178SOL    HW164322   0.776   3.354   0.124 -0.9621 -0.2072  0.1113
22178SOL    HW264323   0.823   3.207   0.177  1.5535  0.8197  0.7907
22180SOL     OW64324   0.680   6.740   4.862  0.0750  0.3051 -0.4977
22180SOL    HW164325   0.624   6.724   4.943  2.7623 -2.7786  0.8815
22180SOL    HW264326   0.701   6.838   4.855  0.8080  0.4796  3.2612
22181SOL     OW64327   6.921   9.454   1.828  0.2308 -0.2983 -0.7490
22181SOL    HW164328   6.962   9.460   1.738  1.1240  0.3811 -0.3022
22181SOL    HW264329   6.988   9.416   1.893  0.2374  1.0082  0.0226
22182SOL     OW64330   3.493   2.508   7.443 -0.6927  0.0828  0.0876
22182SOL    HW164331   3.559   2.583   7.451 -0.4335 -0.1066 -0.2677
22182SOL    HW264332   3.401   2.543   7.457 -0.6527  0.6394 -1.0177
22183SOL     OW64333   7.390   8.390   5.219 -0.3085  0.4511  0.0064
22183SOL    HW164334   7.326   8.316   5.238 -0.3179  0.1828 -1.0231
22183SOL    HW264335   7.470   8.353   5.171 -0.3704  1.1156 -0.6243
22184SOL     OW64336   9.367   4.960   2.389  0.1020  0.3257  0.3042
22184SOL    HW164337   9.280   4.926   2.352  0.9763 -0.6519 -0.9166
22184SOL    HW264338   9.399   4.897   2.459  0.3420  0.1312  0.0188
22185SOL     OW64339   9.445   5.438   3.964 -0.2052 -0.1445 -0.1329
22185SOL    HW164340   9.434   5.517   3.903 -0.4011 -0.0767 -0.0101
22185SOL    HW264341   9.445   5.469   4.059  0.0012 -0.2628 -0.0942
22186SOL     OW64342   1.942   0.472   4.067 -0.1965  0.4201  0.1683
22186SOL    HW164343   1.955   0.540   4.140  0.0214  1.2316 -0.6109
22186SOL    HW264344   1.911   0.386   4.107 -3.3878  1.8288  0.9281
22187SOL     OW64345   8.423   5.519   4.261  0.1896  0.0644 -0.0048
22187SOL    HW164346   8.461   5.450   4.321 -0.7100  0.9551  1.6259
22187SOL    HW264347   8.497   5.578   4.227  0.8121 -1.0076 -0.5418
22190SOL     OW64348   5.085   0.138   4.569  0.4124 -0.2754  0.4489
22190SOL    HW164349   5.173   0.144   4.522  0.7195  0.4639  1.1065
22190SOL    HW264350   5.094   0.176   4.661 -0.3253 -1.1812  0.9102
22191SOL     OW64351   1.691   7.107   4.943  0.4253 -0.4184  0.1093
22191SOL    HW164352   1.598   7.094   4.978  0.2217  1.6183  0.3472
22191SOL    HW264353   1.756   7.058   5.002 -0.2099  0.6601  1.7327
22192SOL     OW64354   7.375   5.957   2.912 -0.3837 -0.4533 -0.6217
22192SOL    HW164355   7.305   5.908   2.860 -0.8962 -1.1911  0.7330
22192SOL    HW264356   7.444   5.892   2.944 -1.0565 -0.3014  1.1712
22193SOL     OW64357   5.169   0.559   4.689 -0.4107  0.0334 -0.0392
22193SOL    HW164358   5.188   0.648   4.647  2.0798 -1.3653 -2.0552
22193SOL    HW264359   5.255   0.508   4.698 -1.6648 -1.7578  2.0521
22194SOL     OW64360   5.194   9.484   4.330 -0.0382 -0.0513  0.1480
22194SOL    HW164361   5.216   9.581   4.338 -1.7695  0.2811  1.1338
22194SOL    HW264362   5.258   9.440   4.267  0.5386  1.8057 -0.5838
22195SOL     OW64363   8.498   6.379   0.819  0.1034 -0.0574 -0.0089
22195SOL    HW164364   8.527   6.448   0.752  0.2075 -0.0245  0.0694
22195SOL    HW264365   8.460   6.300   0.772  0.9695 -0.4011 -0.1448
22196SOL     OW64366   6.753   8.237   5.764 -0.2841 -0.4737  0.1325
22196SOL    HW164367   6.816   8.295   5.817 -1.4767 -0.8247  1.9632
22196SOL    HW264368   6.791   8.145   5.757  0.4261 -0.1278 -0.6209
22198SOL     OW64369   2.022   8.538   3.685 -0.4598  0.4644 -0.1761
22198SOL    HW164370   2.021   8.625   3.636 -0.6142 -0.3385 -1.6014
22198SOL    HW264371   2.063   8.552   3.776 -1.4645  2.2380  0.0382
22199SOL     OW64372   5.696   8.828   6.037 -0.0554  0.2881  0.2746
22199SOL    HW164373   5.635   8.770   6.090  1.4182 -1.0698  0.5272
22199SOL    HW264374   5.644   8.873   5.964 -1.4651 -0.3179  0.8830
22200SOL     OW64375   4.063   3.782   6.965 -0.0418  0.5875 -0.1028
22200SOL    HW164376   4.048   3.737   6.877 -0.8270  0.1010  0.2641
22200SOL    HW264377   4.160   3.783   6.987  0.1316  0.5154 -0.8722
22201SOL     OW64378   9.273   1.615   7.761  0.0368  0.1550  0.0871
22201SOL    HW164379   9.302   1.685   7.696  1.9165 -0.5274  0.1360
22201SOL    HW264380   9.269   1.526   7.715  0.6200 -0.1982  0.6954
22202SOL     OW64381   4.457   9.005   6.208  0.6073  0.1321 -0.2581
22202SOL    HW164382   4.443   9.031   6.304  0.1734  0.4097 -0.3943
22202SOL    HW264383   4.530   8.937   6.202  3.0792  2.6341 -0.0374
22203SOL     OW64384   2.241   2.254   3.948  0.2346 -0.2097 -0.3041
22203SOL    HW164385   2.294   2.338   3.959 -0.3313  0.0944  0.1302
22203SOL    HW264386   2.168   2.270   3.882 -1.3297  0.3542  1.5127
22205SOL     OW64387   1.929   6.208   6.804 -0.1366  0.0025  0.1694
22205SOL    HW164388   1.968   6.222   6.713 -1.2399  2.0454 -0.0195
22205SOL    HW264389   2.003   6.197   6.871  0.7513  1.7079 -0.4956
22206SOL     OW64390   8.947   1.431   0.227  0.0408  0.3564  0.1121
22206SOL    HW164391   8.868   1.491   0.210 -1.4032 -1.5106  0.1341
22206SOL    HW264392   8.962   1.373   0.148  1.3106  0.5979  0.1753
22207SOL     OW64393   0.719   8.800   7.618 -0.0329  0.4044  0.0072
22207SOL    HW164394   0.738   8.714   7.666 -0.8210 -0.0825 -0.5466
22207SOL    HW264395   0.681   8.780   7.528 -0.5030  1.3415 -0.0014
22209SOL     OW64396   9.211   7.510   2.642 -0.3194 -0.2981 -0.7399
22209SOL    HW164397   9.307   7.533   2.658 -0.5194 -0.0000  0.0811
22209SOL    HW264398   9.192   7.509   2.544 -0.0762  2.1931 -0.8489
22211SOL     OW64399   4.953   2.483   5.458  0.6545  0.3667  0.7153
22211SOL    HW164400   4.969   2.434   5.544 -2.1971  0.1364  1.1639
22211SOL    HW264401   4.919   2.575   5.478 -1.1328 -0.0846 -0.1175
22212SOL     OW64402   3.178   1.937   5.347 -0.3263  0.4129 -0.7128
22212SOL    HW164403   3.191   2.028   5.386 -0.7919  0.9447 -1.7684
22212SOL    HW264404   3.113   1.942   5.271 -1.5024 -1.0582  0.1750
22213SOL     OW64405   5.822   8.915   7.280  0.1142  0.1647 -0.2179
22213SOL    HW164406   5.809   8.892   7.376 -1.0730  0.2977 -0.3426
22213SOL    HW264407   5.835   8.831   7.227 -0.4034  0.0232 -0.1176
22214SOL     OW64408   4.746   6.986   1.262 -0.3761  0.0260  1.3738
22214SOL    HW164409   4.830   7.015   1.307 -0.1790 -0.5190  1.3625
22214SOL    HW264410   4.674   6.972   1.331 -0.6771  1.2040  1.3159
22215SOL     OW64411   7.003   8.681   1.759  0.4624 -0.8901 -0.0697
22215SOL    HW164412   7.077   8.674   1.826  0.0668 -1.3395  0.3233
22215SOL    HW264413   7.042   8.704   1.670  1.0438 -0.7875  0.2029
22216SOL     OW64414   6.554   6.964   5.131 -0.0514  0.1410 -0.2301
22216SOL    HW164415   6.494   7.041   5.108  0.0370  0.3686  0.2728
22216SOL    HW264416   6.558   6.954   5.231  0.3759 -0.1665 -0.2763
22217SOL     OW64417   8.613   3.321   7.547 -0.2988  0.4240  0.1665
22217SOL    HW164418   8.705   3.325   7.586 -1.1439  1.6045  2.1444
22217SOL    HW264419   8.607   3.385   7.470  0.0381  1.7655  1.2211
22218SOL     OW64420   3.603   3.217   4.244  0.2879  0.5104  0.3185
22218SOL    HW164421   3.544   3.284   4.200  1.5980  1.2933 -0.2741
22218SOL    HW264422   3.641   3.256   4.328  0.0818  0.0641  0.6206
22219SOL     OW64423   0.290   4.293   1.065  0.1139  0.1118  0.5726
22219SOL    HW164424   0.275   4.194   1.063 -2.3656  0.4599  0.8906
22219SOL    HW264425   0.363   4.314   1.130  0.0064 -1.4169  1.2156
22221SOL     OW64426   0.453   0.207   7.489 -0.0529  0.5143  0.5095
22221SOL    HW164427   0.358   0.177   7.496  0.2692 -1.0576 -1.3376
22221SOL    HW264428   0.513   0.128   7.497  1.0597  1.3869  0.7804
22223SOL     OW64429   0.818   9.992   0.903  0.2936  0.4771  0.2616
22223SOL    HW164430   0.874  10.012   0.823 -1.6009 -0.1016 -1.2442
22223SOL    HW264431   0.858  10.036   0.984  0.7123  3.4393 -1.4938
22225SOL     OW64432   8.487   5.366   7.870 -0.5199 -0.2330  0.8410
22225SOL    HW164433   8.434   5.330   7.793 -0.0155  1.0544 -0.1124
22225SOL    HW264434   8.471   5.464   7.879  0.5378 -0.1123  1.4826
22226SOL     OW64435   2.427   7.868   5.324 -0.0170 -0.4698 -0.5229
22226SOL    HW164436   2.499   7.799   5.321  0.1199 -0.3299 -0.4759
22226SOL    HW264437   2.400   7.893   5.231 -0.3113 -0.8409 -0.5366
22227SOL     OW64438   7.521   4.681   1.369 -0.0401  0.1337 -0.3351
22227SOL    HW164439   7.559   4.636   1.450 -0.7236  0.0575 -0.0473
22227SOL    HW264440   7.592   4.732   1.322 -0.0049  1.6096  1.2779
22228SOL     OW64441   1.128   8.333   5.515  0.8490 -0.0372  0.3594
22228SOL    HW164442   1.151   8.248   5.467 -2.0036 -0.3110 -0.6435
22228SOL    HW264443   1.196   8.351   5.585  2.3333 -2.3597 -0.4165
22229SOL     OW64444   3.436   1.745   1.438  0.4067  0.1419  0.0970
22229SOL    HW164445   3.497   1.704   1.370  0.1951 -1.3079  0.7555
22229SOL    HW264446   3.473   1.834   1.466  1.0350  0.2842 -1.1373
22230SOL     OW64447   1.070   8.993   4.072  0.1134  0.0080  0.1860
22230SOL    HW164448   1.159   8.949   4.060  0.2762  0.1325  0.8998
22230SOL    HW264449   1.016   8.984   3.988  1.5656  1.6630 -0.9309
22231SOL     OW64450   4.856   5.728   1.748 -0.4249  0.0552 -0.2963
22231SOL    HW164451   4.804   5.788   1.809 -1.2981 -0.5467 -0.4361
22231SOL    HW264452   4.839   5.755   1.653 -0.6122 -0.2407 -0.3481
22232SOL     OW64453   0.126   0.418   5.723  0.3308  0.5158 -0.1272
22232SOL    HW164454   0.220   0.383   5.728  0.0810  0.0983  2.3934
22232SOL    HW264455   0.062   0.341   5.718  0.0573  0.7818 -0.8816
22233SOL     OW64456   7.876   0.171   7.373  0.2017 -0.3436 -0.5460
22233SOL    HW164457   7.794   0.166   7.430  0.0514  0.3014 -0.7058
22233SOL    HW264458   7.919   0.081   7.368 -0.2302 -0.5737 -0.0670
22234SOL     OW64459   1.450   0.792   0.617  0.6534 -0.0446  0.0547
22234SOL    HW164460   1.541   0.751   0.626 -0.3211 -2.0787  0.8131
22234SOL    HW264461   1.403   0.788   0.705 -0.5994 -0.0546 -0.6110
22236SOL     OW64462   6.101   3.949   0.036  0.0165 -0.4435  0.0906
22236SOL    HW164463   6.008   3.913   0.047 -0.5249  0.6549 -0.8385
22236SOL    HW264464   6.105   4.008  -0.044  0.8177  1.8062  1.7404
22238SOL     OW64465   7.678   9.524   1.884  0.1826 -0.1684 -0.3994
22238SOL    HW164466   7.774   9.505   1.868  0.0453 -0.9226 -0.3354
22238SOL    HW264467   7.622   9.472   1.819 -0.4064 -3.6699  2.7266
22239SOL     OW64468   7.502   3.387   0.313 -0.1989  0.2651 -0.2422
22239SOL    HW164469   7.545   3.422   0.397 -0.9111  0.7448 -0.0773
22239SOL    HW264470   7.481   3.463   0.252 -1.0688  0.0603 -0.1996
22240SOL     OW64471   8.406   3.209   6.888 -0.1972  0.1675  0.1337
22240SOL    HW164472   8.376   3.289   6.941 -1.5681 -0.9413  1.0572
22240SOL    HW264473   8.423   3.133   6.951  0.6191 -0.4148 -0.7920
22241SOL     OW64474   3.510   6.997   0.159  0.0634  0.4583 -0.2883
22241SOL    HW164475   3.474   6.953   0.241 -0.5882  0.3429 -0.6345
22241SOL    HW264476   3.509   6.932   0.083 -1.7796  1.3259 -1.0377
22242SOL     OW64477   2.406   2.975   6.590 -0.1328 -0.0136 -0.2493
22242SOL    HW164478   2.425   2.973   6.492 -1.2488 -3.5493 -0.4545
22242SOL    HW264479   2.318   2.931   6.607 -0.2740  1.1897  2.3040
22244SOL     OW64480   5.379   8.740   7.238  0.2446 -0.3380  0.0496
22244SOL    HW164481   5.354   8.837   7.241  1.3759 -0.0183 -0.4724
22244SOL    HW264482   5.467   8.727   7.284  0.2275 -1.0695 -0.1223
22245SOL     OW64483   7.409   6.557   2.457 -0.4498  0.0924  0.1794
22245SOL    HW164484   7.313   6.585   2.465 -0.8253 -1.2981  0.8940
22245SOL    HW264485   7.422   6.506   2.372 -0.1794  0.9015 -0.2638
22247SOL     OW64486   8.831   2.032   5.947 -0.3012  0.6486  0.1271
22247SOL    HW164487   8.819   2.131   5.956 -1.9986  0.3944  0.9008
22247SOL    HW264488   8.911   2.003   6.000 -0.3672  1.4818  0.6901
22248SOL     OW64489   1.102   4.595   5.794  0.1225 -0.0435 -0.5404
22248SOL    HW164490   1.054   4.547   5.869 -0.5711 -1.4978 -1.8860
22248SOL    HW264491   1.129   4.686   5.825 -0.3950 -0.5240  1.4019
22249SOL     OW64492   6.377   9.128   7.578 -0.1644  0.3412 -0.1157
22249SOL    HW164493   6.277   9.131   7.581 -0.1396 -0.1049  1.1728
22249SOL    HW264494   6.412   9.084   7.660  1.0990  0.4724 -0.5730
22250SOL     OW64495   4.181   5.974   0.788 -0.4390  0.1318  0.2876
22250SOL    HW164496   4.267   5.997   0.833 -0.2806 -1.2231  0.7024
22250SOL    HW264497   4.105   6.021   0.833  0.0511  1.1915  0.0311
22251SOL     OW64498   1.895   2.220   0.831  0.0408 -0.0900 -0.6026
22251SOL    HW164499   1.970   2.276   0.797 -0.5620  1.3632  0.4018
22251SOL    HW264500   1.926   2.166   0.909 -0.0337  0.7644  0.0248
22252SOL     OW64501   1.883   7.231   4.793  0.3537  0.1275 -0.5755
22252SOL    HW164502   1.854   7.323   4.767 -0.5824  0.7337  2.3992
22252SOL    HW264503   1.803   7.178   4.819  1.2753 -0.1894  1.6921
22254SOL     OW64504   6.237   9.337   6.272 -0.2715 -0.0480  0.1159
22254SOL    HW164505   6.233   9.415   6.210 -2.1095  0.8686  1.3447
22254SOL    HW264506   6.170   9.268   6.243  0.0951 -0.3743  0.0523
22255SOL     OW64507   9.165   6.970   2.134 -0.0652  0.1294  0.7068
22255SOL    HW164508   9.066   6.966   2.148 -0.0607 -0.1369  0.6667
22255SOL    HW264509   9.210   6.909   2.200  0.1078  0.6579  1.0742
22256SOL     OW64510   8.625   6.118   1.782 -0.6217  0.0872  0.2134
22256SOL    HW164511   8.605   6.213   1.808 -1.2054 -0.4325  1.6733
22256SOL    HW264512   8.679   6.074   1.854  2.5348  0.2682 -1.8911
22257SOL     OW64513   0.572   5.178   3.556 -0.1620  0.3089 -0.5993
22257SOL    HW164514   0.485   5.226   3.547  0.0956  0.5956 -1.6935
22257SOL    HW264515   0.636   5.232   3.609 -0.2917  0.6060 -0.7464
22258SOL     OW64516   9.266   3.250   1.111 -0.1715  0.0189 -0.6612
22258SOL    HW164517   9.206   3.326   1.136  2.0302  1.9305 -0.9911
22258SOL    HW264518   9.337   3.283   1.049  2.8398 -1.5438  1.8111
22259SOL     OW64519   3.867   3.366   1.982  0.1255 -0.3993 -0.4614
22259SOL    HW164520   3.943   3.397   2.040 -0.1298 -3.7410  1.8344
22259SOL    HW264521   3.904   3.323   1.900  0.6648 -0.1653 -0.3457
22260SOL     OW64522   0.470   9.544   4.545  0.4134  0.1206  0.0550
22260SOL    HW164523   0.565   9.521   4.522  0.0490 -2.5025  1.0572
22260SOL    HW264524   0.410   9.468   4.520 -1.1589  0.8792  1.4401
22261SOL     OW64525   1.793   5.944   6.464 -0.8528 -0.1571  0.2131
22261SOL    HW164526   1.870   5.981   6.414  0.0565 -1.2850  0.7563
22261SOL    HW264527   1.817   5.932   6.560 -1.5695 -0.8649  0.3155
22262SOL     OW64528   7.522   2.640   0.439 -0.3199  0.5818  0.1273
22262SOL    HW164529   7.431   2.605   0.418 -0.5270 -0.1615  2.1075
22262SOL    HW264530   7.582   2.628   0.360 -1.7626  0.4710 -0.9585
22263SOL     OW64531   4.277   6.727   4.215 -0.2208 -0.1136  0.5619
22263SOL    HW164532   4.305   6.685   4.128 -0.9793  2.2391 -0.8383
22263SOL    HW264533   4.358   6.743   4.271  0.7305  1.9465 -1.3486
22264SOL     OW64534   4.477   4.095   5.634  0.0027  0.1825 -0.4106
22264SOL    HW164535   4.451   4.002   5.657  1.8043 -0.4265 -0.7399
22264SOL    HW264536   4.461   4.155   5.713  1.0294 -0.8628  0.6141
22265SOL     OW64537   3.047   1.819   6.838  0.1451 -0.3077 -0.4725
22265SOL    HW164538   3.057   1.838   6.740 -1.5603 -0.9532 -0.7877
22265SOL    HW264539   2.994   1.891   6.882 -1.0619 -1.1787 -0.4796
22266SOL     OW64540   1.713   4.472   4.812 -0.1268 -0.4683 -0.0064
22266SOL    HW164541   1.717   4.476   4.912  2.2724  0.4348 -0.0952
22266SOL    HW264542   1.788   4.416   4.777  1.1745  2.0614 -1.4149
22267SOL     OW64543   3.034   5.774   7.414  0.2222 -0.2851  1.1761
22267SOL    HW164544   3.010   5.691   7.464  0.8676 -1.1865  0.0105
22267SOL    HW264545   3.056   5.751   7.319 -0.5757  1.3408  0.5607
22268SOL     OW64546   9.401   6.308   7.172 -0.1954 -0.0545  0.0733
22268SOL    HW164547   9.348   6.332   7.254 -0.4026 -0.0105 -0.0734
22268SOL    HW264548   9.392   6.381   7.105  0.2203  0.0511  0.1267
22269SOL     OW64549   3.219   7.942   7.041 -0.1858  0.1160 -0.0023
22269SOL    HW164550   3.226   7.878   6.966 -0.1913 -0.7709  0.7446
22269SOL    HW264551   3.306   7.990   7.053 -0.0632 -0.0278 -0.3137
22270SOL     OW64552   2.923   1.877   7.514  0.0741  0.2845  0.3378
22270SOL    HW164553   2.939   1.946   7.585 -1.0075  0.0997  0.7739
22270SOL    HW264554   2.867   1.917   7.442  1.5087  0.5914 -0.6202
22272SOL     OW64555   6.852   4.396   7.658 -0.0847 -0.2507  0.5459
22272SOL    HW164556   6.844   4.301   7.688 -0.3380 -0.3140  0.2727
22272SOL    HW264557   6.774   4.448   7.691 -1.3616 -0.7424 -1.6187
22273SOL     OW64558   8.877   9.980   2.701  0.1507 -0.1045 -0.4069
22273SOL    HW164559   8.790   9.974   2.750  0.3870 -0.7295 -0.0632
22273SOL    HW264560   8.866  10.037   2.620 -0.0565  1.6389  0.8107
22274SOL     OW64561   8.640   2.118   3.999 -0.0009  0.6392  0.6404
22274SOL    HW164562   8.610   2.212   4.014  2.1215  1.3279  0.7694
22274SOL    HW264563   8.657   2.103   3.901  1.6187  1.0191  0.8542
22275SOL     OW64564   0.640   8.874   2.119  0.1251  0.2535  0.6365
22275SOL    HW164565   0.541   8.866   2.107  0.5660 -0.8106 -2.6901
22275SOL    HW264566   0.674   8.794   2.167 -0.4495  0.0536  0.7186
22276SOL     OW64567   7.794   4.907   7.423  0.2209  0.0331  0.2186
22276SOL    HW164568   7.775   4.939   7.516 -2.2189  0.5102 -0.4319
22276SOL    HW264569   7.713   4.918   7.366  1.4729 -0.9287 -1.8041
22277SOL     OW64570   1.860   1.858   4.419  0.1329 -0.2493  0.4775
22277SOL    HW164571   1.760   1.862   4.412  0.0573 -0.4076  1.4767
22277SOL    HW264572   1.888   1.764   4.439  0.3860  0.1197  1.8609
22278SOL     OW64573   9.196   0.183   2.044  0.3919 -0.3629  0.5934
22278SOL    HW164574   9.101   0.156   2.063 -0.2895  1.3707 -0.2156
22278SOL    HW264575   9.249   0.103   2.017 -1.8537 -0.7702 -2.8658
22279SOL     OW64576   7.480   0.799   7.285  0.3138 -0.3944 -0.0349
22279SOL    HW164577   7.566   0.807   7.336 -1.1466  1.0217  2.3193
22279SOL    HW264578   7.460   0.887   7.242 -0.2053 -0.5764 -0.1585
22280SOL     OW64579   4.460   4.147   3.913  0.3933 -0.0627 -0.4871
22280SOL    HW164580   4.550   4.105   3.915 -0.2655 -1.6014 -2.0858
22280SOL    HW264581   4.423   4.152   4.006  1.4681 -0.8220 -0.0138
22281SOL     OW64582   7.324   1.215   5.917 -0.4861 -0.1117  0.0046
22281SOL    HW164583   7.372   1.144   5.864  1.2683  2.2928 -1.7305
22281SOL    HW264584   7.251   1.172   5.970  1.4649 -3.4491  0.1883
22282SOL     OW64585   2.799   7.371   7.618  0.2139 -0.5156  0.5760
22282SOL    HW164586   2.761   7.366   7.711  0.1891 -0.8424  0.5492
22282SOL    HW264587   2.764   7.453   7.573 -0.2911 -0.6936  0.6316
22283SOL     OW64588   8.628   8.497   1.920  0.1947  0.0322  0.0262
22283SOL    HW164589   8.715   8.544   1.906  0.9061 -1.5260 -0.9116
22283SOL    HW264590   8.568   8.514   1.841  0.1534  0.0087  0.0526
22284SOL     OW64591   5.634   5.652   0.558 -0.2142 -0.4698 -0.0629
22284SOL    HW164592   5.616   5.749   0.546 -0.1962 -0.5536 -0.7867
22284SOL    HW264593   5.717   5.627   0.508 -1.0637 -1.1667 -1.1615
22287SOL     OW64594   2.960   0.362   7.284  0.2472  0.5893  0.6244
22287SOL    HW164595   2.872   0.317   7.266  0.2906  0.8472 -0.2716
22287SOL    HW264596   3.030   0.293   7.300 -0.2578  0.3907  2.0324
22288SOL     OW64597   1.325   7.139   3.892  0.3804  0.2408  0.1352
22288SOL    HW164598   1.367   7.050   3.906  0.8915  0.0955 -2.0992
22288SOL    HW264599   1.226   7.132   3.906  0.5088 -0.4932  0.7127
22289SOL     OW64600   0.703   6.540   5.300 -0.3996  0.2955 -0.3524
22289SOL    HW164601   0.692   6.443   5.279  0.9426  0.1241 -0.3133
22289SOL    HW264602   0.635   6.593   5.250 -1.4459 -0.7044 -0.0036
22290SOL     OW64603   3.131   9.741   5.349  0.9348 -0.2705  0.5019
22290SOL    HW164604   3.225   9.763   5.378  0.7493  1.4838 -0.1566
22290SOL    HW264605   3.067   9.803   5.394  0.2864 -0.1182 -0.6117
22291SOL     OW64606   3.156   8.832   7.709  0.2498  0.1758  0.4359
22291SOL    HW164607   3.131   8.843   7.805 -0.3354  0.0654  0.2997
22291SOL    HW264608   3.142   8.919   7.661  0.4848  0.2156  0.4391
22292SOL     OW64609   5.774   1.297   1.622  0.7312 -0.1770  0.2000
22292SOL    HW164610   5.789   1.288   1.524 -0.7416  0.2339 -0.0727
22292SOL    HW264611   5.741   1.209   1.659  0.4320 -0.0791  0.1667
22293SOL     OW64612   2.171   5.183   7.236  0.4161 -0.6015  0.9677
22293SOL    HW164613   2.114   5.265   7.238  1.8082  0.3621  2.3824
22293SOL    HW264614   2.185   5.155   7.141 -2.1989 -0.7327  0.5832
22295SOL     OW64615   9.256   3.055   4.441 -0.2726  0.4772 -0.4428
22295SOL    HW164616   9.254   2.967   4.488 -1.5722  0.1386 -1.0848
22295SOL    HW264617   9.167   3.100   4.450  0.7401  2.2600  0.8458
22297SOL     OW64618   8.232   3.815   3.800 -0.1794  0.0818  0.1574
22297SOL    HW164619   8.193   3.908   3.800 -3.1132 -1.0802  0.3359
22297SOL    HW264620   8.237   3.782   3.706  0.3172  0.2095  0.1403
22298SOL     OW64621   3.751   1.900   7.408 -0.0129  0.2170 -0.1000
22298SOL    HW164622   3.676   1.882   7.471  0.2547  0.7936  0.3902
22298SOL    HW264623   3.782   1.814   7.368 -1.9798  0.1568 -1.5310
22299SOL     OW64624   4.301   2.966   2.373  0.4824  0.5241  0.2049
22299SOL    HW164625   4.275   3.058   2.400  1.5664  0.5492  1.1950
22299SOL    HW264626   4.289   2.955   2.274  2.1507  2.3417 -0.2376
22300SOL     OW64627   8.782   5.042   2.030 -0.1353 -0.1610 -0.4331
22300SOL    HW164628   8.762   4.971   2.097  0.4585  0.1111  0.0312
22300SOL    HW264629   8.802   4.999   1.942  0.7950 -0.6040 -0.0125
22301SOL     OW64630   9.186   8.682   7.555 -0.3785 -0.1459  0.2046
22301SOL    HW164631   9.211   8.614   7.624 -0.2992 -0.3920 -0.0699
22301SOL    HW264632   9.199   8.644   7.464 -1.4581 -0.1575  0.0527
22302SOL     OW64633   7.376   6.075   3.619  0.4116 -0.2329  0.1370
22302SOL    HW164634   7.374   6.116   3.710  1.8896  0.8902 -0.3251
22302SOL    HW264635   7.291   6.025   3.603 -0.5741  0.9875  1.4793
22303SOL     OW64636   6.995   1.321   0.754  0.1440 -0.0960 -0.5335
22303SOL    HW164637   7.056   1.357   0.824  0.2975 -0.9766 -0.2064
22303SOL    HW264638   7.032   1.342   0.663  0.0965  0.7780 -0.3593
22304SOL     OW64639   9.173   8.863   2.926 -0.3450 -0.8657 -0.2630
22304SOL    HW164640   9.164   8.768   2.958 -0.8861 -1.2560 -1.5480
22304SOL    HW264641   9.157   8.867   2.827 -1.5833  0.7725 -0.0097
22305SOL     OW64642   0.746   0.593   7.471 -0.1626 -0.1267 -0.3453
22305SOL    HW164643   0.692   0.624   7.549 -0.8021 -1.9361 -0.0297
22305SOL    HW264644   0.838   0.630   7.476  0.4751 -2.0105  2.4847
22306SOL     OW64645   4.643   8.212   6.574  0.1430  0.0124  0.1042
22306SOL    HW164646   4.574   8.282   6.558  0.9476  1.1327  1.3924
22306SOL    HW264647   4.616   8.128   6.528 -1.7222  0.6382 -0.0087
22309SOL     OW64648   5.629   3.998   7.687 -0.3755 -0.2380  0.0034
22309SOL    HW164649   5.722   4.034   7.695 -0.0546 -0.7593 -1.1850
22309SOL    HW264650   5.566   4.073   7.665 -0.1762  0.0642  0.4764
22310SOL     OW64651   4.735   4.527   2.663 -0.0009 -0.1764  0.0414
22310SOL    HW164652   4.681   4.538   2.747  0.8790 -1.3067  0.7728
22310SOL    HW264653   4.723   4.433   2.629  1.8133 -0.5666  0.4409
22311SOL     OW64654   8.000   2.368   2.988  0.0891  0.1387 -0.3630
22311SOL    HW164655   7.924   2.308   2.962 -2.2277  2.7739  0.1130
22311SOL    HW264656   7.999   2.382   3.087 -1.4299  3.5431 -0.8123
22312SOL     OW64657   9.717   6.111   4.052  0.4308 -0.0945 -0.3419
22312SOL    HW164658   9.654   6.097   4.128  1.9281 -0.9029  0.7682
22312SOL    HW264659   9.789   6.174   4.079  0.4519  0.3671 -1.4207
22315SOL     OW64660   2.466   5.737   0.218  0.2101  0.7283  0.1401
22315SOL    HW164661   2.434   5.826   0.250 -2.0587 -0.2352  0.6487
22315SOL    HW264662   2.495   5.682   0.296  2.1983  1.2250 -0.2293
22316SOL     OW64663   6.563   8.314   3.103 -0.0727 -0.4653 -0.0726
22316SOL    HW164664   6.513   8.334   3.187 -0.0152  0.3620 -0.2312
22316SOL    HW264665   6.529   8.229   3.062 -1.5698  0.2736 -0.3676
22317SOL     OW64666   0.191   1.877   0.519 -0.2439  0.1390  0.0541
22317SOL    HW164667   0.146   1.954   0.564  1.6673  0.6210  1.1983
22317SOL    HW264668   0.267   1.911   0.464 -0.4788 -0.7790 -0.8493
22321SOL     OW64669   5.953   1.404   4.708  0.0024 -0.0483  0.1769
22321SOL    HW164670   5.901   1.483   4.741  2.3241  2.2386 -1.4575
22321SOL    HW264671   5.971   1.414   4.610  1.9031 -1.7035  0.3235
22322SOL     OW64672   0.254   3.519   1.765  0.4964  0.3180 -0.4531
22322SOL    HW164673   0.280   3.462   1.687  1.5836 -0.9167  0.7795
22322SOL    HW264674   0.252   3.615   1.737  0.1677 -0.1685 -2.1659
22323SOL     OW64675   3.547   8.600   3.277 -0.1582 -0.2502 -0.0641
22323SOL    HW164676   3.545   8.508   3.238  2.0162 -0.4085  0.1255
22323SOL    HW264677   3.526   8.596   3.375  0.0073 -0.5522 -0.0420
22324SOL     OW64678   8.380   6.613   1.394  0.5258  0.0391 -0.9424
22324SOL    HW164679   8.390   6.588   1.491  0.4877  0.6959 -0.7712
22324SOL    HW264680   8.450   6.565   1.341  1.3465  0.6490 -0.4256
22326SOL     OW64681   2.901   4.715   3.889  0.2343 -0.0207 -0.1977
22326SOL    HW164682   2.815   4.721   3.941  0.5217  0.0767  0.2719
22326SOL    HW264683   2.958   4.794   3.911  1.3541 -1.1838  1.1357
22327SOL     OW64684   1.743   7.130   5.862 -0.0915 -0.1664  0.4230
22327SOL    HW164685   1.731   7.033   5.842  1.3202 -0.8790  2.9087
22327SOL    HW264686   1.811   7.169   5.801  0.3852 -1.0828  0.3629
22328SOL     OW64687   6.751   5.967   1.148 -0.5117 -0.0260  0.0150
22328SOL    HW164688   6.777   6.018   1.229  1.4063 -0.6847 -0.1563
22328SOL    HW264689   6.756   6.027   1.068  1.1923 -0.3082 -0.1096
22329SOL     OW64690   1.052   1.571   1.999  0.2315  0.2459 -0.9614
22329SOL    HW164691   1.070   1.631   1.921  0.4058 -3.2493 -3.7492
22329SOL    HW264692   0.953   1.557   2.008  0.0231  2.8152  1.2307
22330SOL     OW64693   1.523   2.892   0.847  0.0901  0.5694  0.4558
22330SOL    HW164694   1.513   2.844   0.934  0.0299  2.7644  1.7075
22330SOL    HW264695   1.497   2.988   0.859 -1.1832  0.6345 -2.2977
22331SOL     OW64696   1.704   6.593   3.916 -0.2255 -0.4156  0.1011
22331SOL    HW164697   1.791   6.557   3.950  0.4374  0.1591 -0.9643
22331SOL    HW264698   1.664   6.654   3.984  1.8916  2.0466 -0.7745
22333SOL     OW64699   2.456   4.224   6.734  0.5263  0.1278  0.4402
22333SOL    HW164700   2.499   4.285   6.667 -0.5702  0.5611  0.1154
22333SOL    HW264701   2.518   4.210   6.811  1.4200  0.3900 -0.2234
22334SOL     OW64702   3.951   8.060   0.904 -0.4507  0.1939  0.7134
22334SOL    HW164703   3.958   8.047   0.805  1.0399  1.0416  0.7028
22334SOL    HW264704   3.999   8.143   0.931 -1.6204  0.4607  2.0399
22335SOL     OW64705   9.867   4.211   5.432 -0.1203  0.3446 -0.3009
22335SOL    HW164706   9.864   4.244   5.338 -3.0145 -1.1555 -0.8088
22335SOL    HW264707   9.794   4.254   5.485 -0.1806 -0.7865  0.5535
22336SOL     OW64708   9.066   4.280   2.917  0.4949 -0.4165 -0.2257
22336SOL    HW164709   9.132   4.273   2.992 -0.2550 -1.8536  0.3180
22336SOL    HW264710   9.103   4.234   2.836  0.8062  0.1213 -0.3940
22339SOL     OW64711   4.829   0.415   7.117  0.5103 -0.4363 -0.0336
22339SOL    HW164712   4.893   0.412   7.194 -0.2171 -0.5140  0.5786
22339SOL    HW264713   4.851   0.493   7.058  1.6835 -0.9512 -0.2925
22340SOL     OW64714   2.521   9.028   6.002  0.7760  0.1753 -0.6294
22340SOL    HW164715   2.497   9.125   5.994  0.7741  0.5345  2.8086
22340SOL    HW264716   2.621   9.019   6.008  0.7218  0.0973  0.2321
22341SOL     OW64717   6.033   8.035   4.127 -0.3402 -0.3681 -0.3861
22341SOL    HW164718   5.986   7.981   4.058 -1.6710 -0.6744  0.7506
22341SOL    HW264719   5.996   8.015   4.218  1.2041  0.2243  0.4082
22342SOL     OW64720   8.452   0.111   0.291 -0.0636 -0.4177 -0.1708
22342SOL    HW164721   8.363   0.066   0.283 -0.5506  0.3628  0.7952
22342SOL    HW264722   8.516   0.069   0.227 -0.6359 -2.1711  0.3895
22343SOL     OW64723   8.196   2.794   3.337  0.3546 -0.0733  0.1786
22343SOL    HW164724   8.182   2.700   3.306  1.9507  0.4012 -2.0655
22343SOL    HW264725   8.123   2.819   3.401 -0.3867 -2.6435  0.3773
22344SOL     OW64726   3.987   6.724   4.046 -0.1770  0.2739  0.0316
22344SOL    HW164727   3.973   6.682   3.957  0.0318 -0.0933  0.1704
22344SOL    HW264728   4.066   6.786   4.042  1.2095 -1.4214  0.5244
22345SOL     OW64729   4.281   4.914   6.857 -0.5043 -0.1560  0.0431
22345SOL    HW164730   4.310   4.976   6.784 -1.2797  0.9265  0.6611
22345SOL    HW264731   4.190   4.878   6.836  0.3139 -1.8331 -0.7797
22346SOL     OW64732   1.835   7.070   7.488  0.0271  0.2453  0.1634
22346SOL    HW164733   1.778   7.095   7.566  0.7739 -1.2462  1.2121
22346SOL    HW264734   1.788   7.002   7.432 -0.2755  0.9024 -0.3878
22348SOL     OW64735   8.608   8.451   5.081  0.0052 -0.3780 -0.1227
22348SOL    HW164736   8.652   8.491   5.001  0.6272  0.7228  0.7540
22348SOL    HW264737   8.547   8.377   5.052  0.7344 -0.4423 -1.5383
22349SOL     OW64738   6.742   3.077   2.343  0.9701  0.2373  0.1360
22349SOL    HW164739   6.822   3.040   2.296  0.5408  0.2662 -0.6245
22349SOL    HW264740   6.665   3.082   2.279 -0.2750 -1.8738  1.4188
22350SOL     OW64741   6.882   7.362   2.361  0.6982  1.1373 -0.0608
22350SOL    HW164742   6.908   7.266   2.350  0.6946  1.1386 -0.0810
22350SOL    HW264743   6.783   7.370   2.359  0.7303  1.3651 -1.9922
22351SOL     OW64744   3.846   4.317   7.870  0.6601  0.1006 -0.0096
22351SOL    HW164745   3.796   4.341   7.786 -0.1251 -0.6567  0.2409
22351SOL    HW264746   3.944   4.322   7.852  0.4996  0.8040 -0.7340
22353SOL     OW64747   2.101   8.555   6.712  0.3502 -0.2558  0.3053
22353SOL    HW164748   2.104   8.639   6.658 -0.0907 -1.2015 -1.2448
22353SOL    HW264749   2.192   8.515   6.716  0.4851  0.1022  0.6990
22354SOL     OW64750   9.328   2.571   7.165  0.3327 -0.2767  0.5350
22354SOL    HW164751   9.267   2.601   7.238 -0.2346  1.0961 -0.4761
22354SOL    HW264752   9.415   2.620   7.172 -0.1175  0.6573 -0.3446
22355SOL     OW64753   3.815   6.707   3.507  0.0323 -0.4471  0.8178
22355SOL    HW164754   3.733   6.652   3.493  0.1442 -1.2617  3.1494
22355SOL    HW264755   3.808   6.791   3.453 -1.8725 -0.9680  0.1971
22356SOL     OW64756   2.955   1.187   6.905  0.0209  0.2244 -0.0236
22356SOL    HW164757   2.917   1.109   6.855  0.9316 -0.1596 -0.1403
22356SOL    HW264758   2.895   1.211   6.980 -0.7703  0.0464 -0.5931
22358SOL     OW64759   9.083   6.682   2.021  0.2409 -0.0529 -0.0071
22358SOL    HW164760   9.159   6.710   1.963 -1.0781  1.1000 -1.2467
22358SOL    HW264761   9.114   6.671   2.115  1.6106  1.9402 -0.1901
22359SOL     OW64762   7.112   5.202   1.804  0.0198 -0.5316  0.6624
22359SOL    HW164763   7.029   5.154   1.832 -1.8939  1.8546 -0.7275
22359SOL    HW264764   7.127   5.189   1.706  1.1584 -0.7506  0.8601
22360SOL     OW64765   5.315   8.744   3.351 -0.0424  0.2274 -0.4330
22360SOL    HW164766   5.318   8.652   3.389  1.3558  0.0589 -0.9406
22360SOL    HW264767   5.221   8.765   3.323 -0.4343 -0.9001  0.0041
22361SOL     OW64768   2.742   9.835   5.954  0.0429  0.3299 -0.6402
22361SOL    HW164769   2.803   9.879   5.888 -0.1007 -0.3885 -1.2607
22361SOL    HW264770   2.794   9.810   6.036 -0.0534  2.4335  0.0998
22362SOL     OW64771   4.227   6.201   1.645 -0.2806 -0.3357 -0.2746
22362SOL    HW164772   4.243   6.230   1.739  0.8300 -2.3987  0.2188
22362SOL    HW264773   4.208   6.103   1.644  1.2611 -0.6439 -2.3391
22363SOL     OW64774   3.783   1.197   6.567 -0.1347 -0.6103 -0.3083
22363SOL    HW164775   3.855   1.267   6.568 -1.6491  1.0155 -1.0574
22363SOL    HW264776   3.801   1.131   6.494  0.8624 -0.4866 -0.1713
22364SOL     OW64777   2.607   9.440   3.516 -0.4538 -0.1387  0.1734
22364SOL    HW164778   2.624   9.348   3.481  1.5468 -0.1501  1.0722
22364SOL    HW264779   2.549   9.435   3.598  1.7634 -0.8830  1.7666
22366SOL     OW64780   2.236   8.811   5.319 -0.5002  0.1069 -0.4302
22366SOL    HW164781   2.325   8.791   5.277 -0.6781 -0.6672 -0.4424
22366SOL    HW264782   2.168   8.748   5.283 -0.5212 -1.0243  1.5193
22367SOL     OW64783   6.776   5.935   6.796 -0.1406  0.3450  0.2472
22367SOL    HW164784   6.811   5.996   6.725 -1.7614  1.3231  0.2554
22367SOL    HW264785   6.789   5.978   6.886 -0.1433  0.1143  0.3584
22368SOL     OW64786   4.677   9.253   5.866  0.0605 -0.6660  0.3961
22368SOL    HW164787   4.596   9.244   5.923  0.6122 -1.2335  1.1020
22368SOL    HW264788   4.745   9.186   5.894  0.6903 -0.3462 -0.3393
22369SOL     OW64789   1.997   3.769   5.498 -0.1653  0.2719 -0.1410
22369SOL    HW164790   2.045   3.802   5.579  0.6770 -0.2647 -0.4171
22369SOL    HW264791   1.908   3.732   5.525  0.8072 -1.4422  0.7627
22371SOL     OW64792   4.012   7.364   5.366  0.5152  0.3872 -0.0626
22371SOL    HW164793   3.942   7.406   5.424 -0.7493 -0.0269 -1.2762
22371SOL    HW264794   4.083   7.432   5.346  0.8843  0.5934  1.7936
22372SOL     OW64795   4.255   5.687   4.391  0.0853  0.1547 -0.0990
22372SOL    HW164796   4.309   5.613   4.433 -0.9104 -0.5841 -0.0938
22372SOL    HW264797   4.158   5.667   4.403 -0.2162  2.7855  2.2389
22374SOL     OW64798   0.237   5.653   0.535  0.2736 -0.3229  0.2527
22374SOL    HW164799   0.147   5.614   0.556  0.7732 -0.4028  2.3758
22374SOL    HW264800   0.309   5.598   0.577  1.2649  0.2419 -0.6717
22375SOL     OW64801   2.401   9.166   7.613 -0.6057 -0.1011 -0.0580
22375SOL    HW164802   2.492   9.128   7.594 -0.6924 -0.6648  0.6478
22375SOL    HW264803   2.410   9.257   7.653 -0.3665  0.0922 -0.5497
22376SOL     OW64804   3.745   2.232   2.301  0.3519  0.0621 -0.1002
22376SOL    HW164805   3.700   2.287   2.230  0.5723 -0.8500 -0.9625
22376SOL    HW264806   3.761   2.288   2.382 -4.4800 -0.1302  1.1550
22377SOL     OW64807   7.088   4.271   0.460  0.1461 -0.1007  0.7688
22377SOL    HW164808   7.029   4.346   0.489 -0.0852 -0.2571  0.7101
22377SOL    HW264809   7.031   4.193   0.432  0.3681 -0.0119  0.0655
22378SOL     OW64810   8.486   1.507   1.829 -0.3029  0.0763 -0.1693
22378SOL    HW164811   8.468   1.438   1.759 -0.4285 -0.2149  0.1472
22378SOL    HW264812   8.578   1.544   1.817  0.1339 -0.8487  0.2432
22379SOL     OW64813   3.948   6.513   2.437 -0.4682 -0.7082  0.0029
22379SOL    HW164814   4.045   6.535   2.428 -0.6827 -0.5710 -2.3221
22379SOL    HW264815   3.895   6.574   2.378 -1.9414 -0.9652  1.0523
22380SOL     OW64816   8.067   7.249   6.188 -0.3908  0.2342  0.4193
22380SOL    HW164817   8.033   7.276   6.099  3.1356 -0.1731 -1.1355
22380SOL    HW264818   8.099   7.329   6.238  1.1410  0.0488 -0.2500
22382SOL     OW64819   8.034   9.371   7.297  0.7394  0.2519 -0.2443
22382SOL    HW164820   8.123   9.394   7.337  0.2617 -0.3889  1.2315
22382SOL    HW264821   7.963   9.423   7.344  0.1423 -0.6799 -0.1022
22384SOL     OW64822   8.160   2.323   1.467 -0.2562 -0.0453 -0.1357
22384SOL    HW164823   8.068   2.360   1.483 -1.0456 -2.4829  1.2395
22384SOL    HW264824   8.213   2.330   1.552 -0.2700 -1.5912  0.0157
22386SOL     OW64825   2.823   7.070   2.528 -0.0158 -0.1091  0.1897
22386SOL    HW164826   2.820   7.141   2.458  1.1546 -0.7459 -0.5162
22386SOL    HW264827   2.908   7.019   2.521 -0.8185 -1.5574  0.7220
22387SOL     OW64828   9.938   3.968   6.686  0.6192 -0.2950  0.4960
22387SOL    HW164829   9.891   3.929   6.606 -0.7160  0.4269  0.9212
22387SOL    HW264830  10.035   3.978   6.665  0.7694 -2.6243 -0.0863
22388SOL     OW64831   7.239   0.771   7.673 -0.0736  0.6776 -0.3968
22388SOL    HW164832   7.230   0.694   7.609 -0.1236  1.2343 -1.0681
22388SOL    HW264833   7.169   0.840   7.651  1.3842  1.9238 -1.2324
22389SOL     OW64834   4.159   8.067   7.916  0.6210 -0.2927  0.0914
22389SOL    HW164835   4.176   8.151   7.968 -1.9299 -0.3890  1.1284
22389SOL    HW264836   4.228   7.998   7.941  0.2533  0.1252  2.3561
22390SOL     OW64837   8.103   9.925   4.278  0.7222 -0.4724  0.1714
22390SOL    HW164838   8.024   9.949   4.222  0.5011 -3.6027 -0.9662
22390SOL    HW264839   8.168  10.001   4.278 -0.0011  0.2306 -3.0305
22391SOL     OW64840   1.277   2.303   2.969 -0.3069 -0.2236  0.3622
22391SOL    HW164841   1.202   2.337   3.027 -1.1213 -0.4836 -0.5190
22391SOL    HW264842   1.280   2.203   2.975  1.2090 -0.1190  1.8832
22392SOL     OW64843   4.181   3.630   3.156  0.9035 -0.5330  0.0452
22392SOL    HW164844   4.108   3.674   3.104  0.8216  0.7432  1.1993
22392SOL    HW264845   4.143   3.589   3.239  1.1713 -1.7641 -0.4296
22394SOL     OW64846   6.395   7.171   3.972  0.6052  0.0823 -0.7314
22394SOL    HW164847   6.337   7.125   4.040  1.3819 -0.8190 -0.6708
22394SOL    HW264848   6.457   7.105   3.931  2.6319  1.3215  0.2861
22395SOL     OW64849   5.817   0.089   5.341 -0.6916  0.1851  0.4894
22395SOL    HW164850   5.803   0.095   5.242 -0.3865  1.4616  0.5145
22395SOL    HW264851   5.756   0.153   5.387 -1.1145 -0.6956  1.1591
22396SOL     OW64852   4.835   0.685   3.423 -0.4457 -0.1360 -0.1808
22396SOL    HW164853   4.766   0.667   3.494  0.0949 -0.9294  0.1548
22396SOL    HW264854   4.926   0.690   3.465 -0.4632  2.6860 -0.3707
22397SOL     OW64855   8.812   7.917   1.241  0.0079  0.0880  0.2314
22397SOL    HW164856   8.744   7.876   1.180  0.4265  1.1319 -0.9549
22397SOL    HW264857   8.899   7.927   1.192  0.5677  0.2167  1.2500
22398SOL     OW64858   1.700   6.355   2.473 -0.1335  0.4130 -0.2158
22398SOL    HW164859   1.656   6.325   2.388  1.0362  0.1341 -0.7287
22398SOL    HW264860   1.652   6.313   2.551  0.0560 -0.9914 -0.8313
22399SOL     OW64861   9.937   2.480   5.674 -0.2130  0.1075  0.2056
22399SOL    HW164862  10.006   2.437   5.732  1.0090 -0.3345 -1.5561
22399SOL    HW264863   9.882   2.542   5.730  1.2486  0.0626  1.7529
22400SOL     OW64864   3.948   2.568   1.896 -0.2539  0.2342  0.0022
22400SOL    HW164865   3.979   2.544   1.987  0.4686  2.1128  0.2796
22400SOL    HW264866   3.850   2.551   1.888 -0.2324 -0.3604  0.9704
22401SOL     OW64867   9.620   4.982   7.124  0.0045 -0.2054 -0.4096
22401SOL    HW164868   9.542   4.921   7.137  0.6742 -1.0319 -0.2657
22401SOL    HW264869   9.660   5.005   7.212  0.0349  0.0708 -0.4962
22403SOL     OW64870   0.121   6.139   5.509 -0.0314  0.5883 -0.4954
22403SOL    HW164871   0.166   6.080   5.441  0.1793 -0.7022  0.7514
22403SOL    HW264872   0.139   6.104   5.601 -3.2081  0.3341  0.0615
22404SOL     OW64873   9.478   2.616   4.212  0.1767 -0.4999 -0.1975
22404SOL    HW164874   9.466   2.520   4.239 -1.0446 -0.7643 -1.5865
22404SOL    HW264875   9.394   2.666   4.228  0.8767  0.3976  0.7048
22405SOL     OW64876   9.633   1.806   4.702 -0.0760  0.7973  0.2027
22405SOL    HW164877   9.731   1.822   4.691  0.2316  0.3601  2.1195
22405SOL    HW264878   9.582   1.884   4.666  0.9858  1.2361 -0.3816
22406SOL     OW64879   1.025   6.243   3.744 -0.4665 -0.5885 -0.7202
22406SOL    HW164880   0.966   6.238   3.663 -0.7489 -0.3769 -0.5250
22406SOL    HW264881   1.023   6.156   3.792  0.1859 -0.9215 -1.2845
22407SOL     OW64882   8.246   1.855   5.386  0.1771 -0.0555  1.2447
22407SOL    HW164883   8.255   1.769   5.335  0.9903  0.5174  0.4169
22407SOL    HW264884   8.149   1.876   5.399 -0.0479  0.2557 -0.8460
22408SOL     OW64885   7.646   1.327   5.628 -0.6077  0.0424  0.0480
22408SOL    HW164886   7.691   1.290   5.709  0.0006  1.9873  0.6303
22408SOL    HW264887   7.603   1.414   5.651 -1.6087 -0.0622 -1.3920
22409SOL     OW64888   5.004   5.456   1.046 -0.5366 -0.4019  0.0432
22409SOL    HW164889   4.964   5.431   1.134 -1.6012 -0.5351 -0.4566
22409SOL    HW264890   4.932   5.454   0.976  0.3984 -0.8039 -0.9160
22410SOL     OW64891   1.080   1.316   2.654 -0.8318  0.2726 -0.2004
22410SOL    HW164892   1.082   1.403   2.605 -0.9326  0.9518  0.9713
22410SOL    HW264893   1.036   1.329   2.743 -0.1147 -0.8002  0.3248
22411SOL     OW64894   3.243   1.669   3.092 -0.0156  0.5947  0.2040
22411SOL    HW164895   3.199   1.733   3.028  1.7946  1.2744 -0.3938
22411SOL    HW264896   3.262   1.583   3.044  0.5442  0.7942  0.0600
22412SOL     OW64897   1.613   7.241   6.814 -0.0489  0.4604  0.2598
22412SOL    HW164898   1.579   7.251   6.721 -2.7527  1.6678  1.3276
22412SOL    HW264899   1.587   7.151   6.849 -0.1747  0.5078  0.2904
22413SOL     OW64900   1.061   8.190   4.517  0.1938  0.1649 -0.0487
22413SOL    HW164901   0.990   8.120   4.504  0.5049  0.0326 -1.0832
22413SOL    HW264902   1.077   8.204   4.614 -1.8530  0.7921  0.2102
22414SOL     OW64903   8.239   9.223   5.461  0.0426 -0.0494 -0.0578
22414SOL    HW164904   8.277   9.246   5.371  1.3728  0.4495  0.6155
22414SOL    HW264905   8.159   9.164   5.450 -1.1956  1.8788 -1.6679
22415SOL     OW64906   6.874   0.890   7.402  0.4122 -0.3494  0.0822
22415SOL    HW164907   6.780   0.913   7.427  0.9824  0.5861  1.4340
22415SOL    HW264908   6.895   0.930   7.313 -0.4862 -0.6073 -0.2518
22416SOL     OW64909   1.600   8.697   0.078  0.0109 -0.3273  0.2813
22416SOL    HW164910   1.691   8.660   0.097  0.0604 -0.6129 -0.4785
22416SOL    HW264911   1.530   8.633   0.110  0.0906 -0.6571 -0.1947
22417SOL     OW64912   2.763   1.964   7.241  0.5649  0.5075  0.3535
22417SOL    HW164913   2.785   2.002   7.151 -0.2149 -0.2765 -0.1710
22417SOL    HW264914   2.789   1.868   7.244  0.8721  0.6098  1.0777
22418SOL     OW64915   1.270   4.881   3.137  0.4485  0.2689  0.3306
22418SOL    HW164916   1.299   4.946   3.067  0.3341  0.1883  0.2094
22418SOL    HW264917   1.196   4.824   3.102  1.6506 -1.0289 -0.1264
22419SOL     OW64918   2.676   8.850   7.423  0.2366 -0.4257  0.3815
22419SOL    HW164919   2.721   8.802   7.348 -1.9259 -0.8268 -0.6750
22419SOL    HW264920   2.633   8.785   7.484 -2.6233  0.1105 -1.0035
22420SOL     OW64921   8.368   8.375   6.827  0.3776 -1.0320  0.2937
22420SOL    HW164922   8.362   8.279   6.851 -2.5996 -0.6768  1.0885
22420SOL    HW264923   8.381   8.384   6.728 -1.2771 -2.2029 -0.0407
22421SOL     OW64924   7.149   7.002   5.974 -0.1611  0.3756 -0.1274
22421SOL    HW164925   7.115   6.919   5.930 -0.8532  0.0612  0.9974
22421SOL    HW264926   7.221   6.978   6.039 -0.0906  0.6909 -0.0897
22422SOL     OW64927   9.501   0.358   6.522 -0.0061 -0.1485 -0.2480
22422SOL    HW164928   9.443   0.437   6.541  1.1465  0.9407 -1.2600
22422SOL    HW264929   9.510   0.345   6.423  1.8631 -0.0337 -0.1021
22424SOL     OW64930   5.418   2.708   1.423 -0.1879  0.7917  0.1385
22424SOL    HW164931   5.475   2.690   1.503  1.0246  0.2926 -0.8136
22424SOL    HW264932   5.326   2.733   1.452 -0.8620 -3.1135  1.6224
22426SOL     OW64933   8.643   4.352   2.695  0.2711 -0.1283 -0.2887
22426SOL    HW164934   8.547   4.345   2.723  0.2382 -0.2249 -0.4247
22426SOL    HW264935   8.700   4.299   2.757  0.2946  0.3355  0.0834
22427SOL     OW64936   2.049   4.278   6.412 -0.4295  0.4786  0.0931
22427SOL    HW164937   2.015   4.292   6.505  1.8017 -2.3938  1.4057
22427SOL    HW264938   2.121   4.344   6.392 -0.6131  0.8205  0.5571
22428SOL     OW64939   8.360   2.620   2.549  0.4167  0.1933  0.3857
22428SOL    HW164940   8.370   2.704   2.603 -0.7994 -1.0808  2.6225
22428SOL    HW264941   8.447   2.570   2.549  1.5415  2.0339 -2.0311
22429SOL     OW64942   8.060   1.341   2.650  0.2306  0.2573 -0.0850
22429SOL    HW164943   7.987   1.299   2.595  0.1139  0.0871  0.1929
22429SOL    HW264944   8.142   1.351   2.595 -0.4268  1.7596 -0.8223
22430SOL     OW64945   0.660   6.777   7.878  0.0614 -0.0162  0.5761
22430SOL    HW164946   0.685   6.730   7.794 -2.4466  0.1319 -0.3089
22430SOL    HW264947   0.690   6.872   7.873  0.4255 -0.1523  0.1012
22432SOL     OW64948   2.335   8.036   7.261 -0.3562  0.8072  0.5005
22432SOL    HW164949   2.367   7.974   7.333 -0.8300 -0.2524 -0.1771
22432SOL    HW264950   2.235   8.038   7.260 -0.3794 -0.0837 -0.8395
22433SOL     OW64951   8.720   0.255   2.995  0.0429 -0.1326  0.0099
22433SOL    HW164952   8.638   0.308   2.971 -0.6404 -1.8082 -1.4919
22433SOL    HW264953   8.802   0.304   2.964 -0.5343  0.3973 -0.7134
22434SOL     OW64954   5.630   7.782   7.155  0.4851  0.0302  0.2027
22434SOL    HW164955   5.632   7.795   7.254 -1.5838 -0.2258  0.3020
22434SOL    HW264956   5.537   7.799   7.121  1.0183 -0.5418 -1.6029
22435SOL     OW64957   9.729   2.219   1.471 -0.2383  0.5399 -0.4324
22435SOL    HW164958   9.796   2.222   1.545 -0.2567 -0.3574 -0.3779
22435SOL    HW264959   9.654   2.158   1.496  0.7326 -1.3476 -2.0002
22436SOL     OW64960   5.722   1.585   1.642 -0.2797 -0.1973  0.4502
22436SOL    HW164961   5.748   1.599   1.738 -0.6852  1.1435  0.3672
22436SOL    HW264962   5.737   1.489   1.618  1.6361 -0.1302  1.2938
22437SOL     OW64963   6.803   9.785   1.172  0.1671  0.5990  0.3751
22437SOL    HW164964   6.868   9.851   1.210  1.4607  0.3555 -1.3730
22437SOL    HW264965   6.851   9.700   1.151 -0.4629  0.8157 -2.0269
22438SOL     OW64966   1.638   6.996   1.495  0.0959 -0.3864  0.0763
22438SOL    HW164967   1.602   6.982   1.403 -0.6136  0.9739  0.1367
22438SOL    HW264968   1.645   6.908   1.541 -2.8200 -0.7490 -0.0668
22439SOL     OW64969   2.464   3.372   7.021 -1.0449 -0.1845  0.5805
22439SOL    HW164970   2.487   3.429   6.942 -0.4475  0.1740  1.0146
22439SOL    HW264971   2.538   3.306   7.037 -0.8154  0.2489  1.3103
22440SOL     OW64972   9.778   2.216   2.730  0.1327 -0.1225 -0.1229
22440SOL    HW164973   9.775   2.252   2.823 -1.3403  1.2120 -0.6528
22440SOL    HW264974   9.872   2.211   2.699  0.5222  0.9913  0.8424
22441SOL     OW64975   8.826   7.984   3.249 -0.3315 -0.0043  0.4663
22441SOL    HW164976   8.795   8.051   3.182 -0.9728  0.1166  0.8818
22441SOL    HW264977   8.898   7.927   3.209  0.5034  1.1835  0.2325
22443SOL     OW64978   1.218   4.078   6.075 -0.1511 -0.8003  0.0364
22443SOL    HW164979   1.270   4.024   6.140 -1.4596 -1.4709  0.5346
22443SOL    HW264980   1.140   4.025   6.042 -1.4784  0.7888  0.5728
22444SOL     OW64981   9.417   1.381   2.140 -0.2393 -0.0416  0.1451
22444SOL    HW164982   9.447   1.434   2.219  1.4841 -1.6477  0.5860
22444SOL    HW264983   9.384   1.292   2.170  0.1243 -0.5421 -0.9065
22445SOL     OW64984   2.696   6.572   2.997  0.0102 -0.2608  0.3577
22445SOL    HW164985   2.633   6.635   2.952  1.2120  2.0027  1.7549
22445SOL    HW264986   2.658   6.480   2.994 -1.8342  0.5163 -1.6450
22447SOL     OW64987   8.226   5.833   0.275 -0.3976 -0.4760 -0.1282
22447SOL    HW164988   8.239   5.799   0.182  0.1100  1.2028 -0.6940
22447SOL    HW264989   8.266   5.769   0.340 -1.6638 -2.1670 -1.0005
22448SOL     OW64990   1.307   5.097   3.302  0.3628  0.0439  0.0916
22448SOL    HW164991   1.299   5.086   3.401  0.8416 -1.8665 -0.0584
22448SOL    HW264992   1.273   5.015   3.256 -0.1894  1.0517 -1.3526
22449SOL     OW64993   6.798   0.354   3.162  0.5851  0.3902 -0.5947
22449SOL    HW164994   6.780   0.260   3.134 -0.0928  0.0651  0.9001
22449SOL    HW264995   6.722   0.412   3.132 -0.9308 -0.2379  1.9348
22450SOL     OW64996   1.153   8.166   0.702 -0.1709  0.4867  0.1773
22450SOL    HW164997   1.123   8.167   0.797  1.0607  1.1115  0.5720
22450SOL    HW264998   1.186   8.257   0.677 -0.5331  0.3389 -0.8662
22451SOL     OW64999   3.550   1.744   7.929  0.2375 -0.2359 -0.1698
22451SOL    HW165000   3.544   1.655   7.974 -0.5530  0.0821  0.3635
22451SOL    HW265001   3.571   1.815   7.997 -1.0364  0.2565 -0.2716
22452SOL     OW65002   0.020   1.350   5.917 -0.2748 -0.0548 -1.3067
22452SOL    HW165003  -0.046   1.348   5.992 -0.1140  1.7223 -1.1065
22452SOL    HW265004  -0.022   1.390   5.836  0.2015 -0.0000 -1.5282
22453SOL     OW65005   8.605   4.742   3.307 -0.2566 -0.8211  0.0791
22453SOL    HW165006   8.573   4.760   3.213 -0.7767 -0.6433  0.2850
22453SOL    HW265007   8.701   4.767   3.315 -0.4557  0.0482 -0.1669
22454SOL     OW65008   6.663   6.867   4.466  0.0321 -0.0790 -0.6504
22454SOL    HW165009   6.709   6.874   4.378  0.0197 -1.0315 -0.7348
22454SOL    HW265010   6.725   6.824   4.533  0.0348  0.6126 -0.1954
22455SOL     OW65011   9.278   6.890   3.838 -0.3100  0.9312 -0.2254
22455SOL    HW165012   9.251   6.849   3.752  2.9626  1.4652 -1.5933
22455SOL    HW265013   9.301   6.818   3.904 -1.8988  0.5441 -0.0619
22456SOL     OW65014   8.112   0.719   7.384  0.5789  0.7592 -0.3535
22456SOL    HW165015   8.135   0.816   7.396 -0.0831  1.1338 -1.9426
22456SOL    HW265016   8.068   0.706   7.295 -1.3992 -0.6418  0.7765
22457SOL     OW65017   9.809   4.098   7.459 -0.4488  0.3708 -0.3475
22457SOL    HW165018   9.717   4.065   7.440 -0.3036 -0.9677  1.1320
22457SOL    HW265019   9.871   4.020   7.470  0.2299  1.1580  1.6533
22458SOL     OW65020   9.045   7.489   4.431  0.2003  0.6158 -0.1574
22458SOL    HW165021   9.103   7.568   4.412 -2.1361  2.2249 -0.9032
22458SOL    HW265022   8.949   7.516   4.422 -0.6471 -2.2874 -0.2268
22459SOL     OW65023   0.792   2.421   0.093 -0.6075  0.3090  0.0300
22459SOL    HW165024   0.740   2.398   0.175  0.3351  0.6344  0.7364
22459SOL    HW265025   0.849   2.343   0.066 -0.1074  0.5671  0.3253
22461SOL     OW65026   8.198   3.107   3.925  0.1721  0.2829  0.3747
22461SOL    HW165027   8.199   3.133   3.829 -1.3074  0.8582  0.4918
22461SOL    HW265028   8.239   3.017   3.936  0.0603  0.0795 -0.8357
22462SOL     OW65029   1.277   6.220   3.458  0.4371 -0.0114  0.2820
22462SOL    HW165030   1.298   6.285   3.530  1.1756  1.6607 -1.3839
22462SOL    HW265031   1.318   6.131   3.479  0.1068  0.2732  2.1839
22463SOL     OW65032   4.069   7.685   4.301 -0.2107 -0.0835 -0.4246
22463SOL    HW165033   4.009   7.612   4.269 -1.8658  1.1494 -0.1661
22463SOL    HW265034   4.028   7.774   4.281  0.7381  0.7591  1.2451
22465SOL     OW65035   9.583   5.298   5.114  0.4037  0.3613  0.0641
22465SOL    HW165036   9.538   5.339   5.193 -2.0007  2.1753 -2.1503
22465SOL    HW265037   9.651   5.232   5.145 -0.3251  1.1641  3.6219
22466SOL     OW65038   7.855   2.153   3.508  0.3748  0.1768 -0.5075
22466SOL    HW165039   7.927   2.142   3.439  0.6885 -1.0368  0.0014
22466SOL    HW265040   7.897   2.183   3.594  0.2712 -0.4260 -0.2423
22468SOL     OW65041   8.908   5.959   0.814 -0.1959 -0.0555 -0.2866
22468SOL    HW165042   8.995   5.965   0.863 -0.1988  2.5464 -0.5175
22468SOL    HW265043   8.832   5.967   0.878 -0.2335  0.0669 -0.3464
22469SOL     OW65044   9.268   9.448   0.398 -0.3188 -0.3853  0.1374
22469SOL    HW165045   9.298   9.491   0.484 -0.8073 -1.3217  0.7805
22469SOL    HW265046   9.169   9.463   0.387 -0.0142  0.9178 -0.9562
22470SOL     OW65047   6.259   1.756   4.569 -0.1334 -0.4571  0.0559
22470SOL    HW165048   6.185   1.788   4.628  1.1199  0.2056  1.3135
22470SOL    HW265049   6.327   1.829   4.559  1.1726 -1.6306  0.2961
22471SOL     OW65050   2.786   7.458   4.440 -0.1151 -0.0347  0.2756
22471SOL    HW165051   2.884   7.462   4.418  0.0055 -1.5436  0.4640
22471SOL    HW265052   2.745   7.548   4.425  1.6422  1.0725  1.8636
22472SOL     OW65053   4.005   0.114   4.649  0.2484 -0.0436 -0.0202
22472SOL    HW165054   3.950   0.073   4.576 -0.6854  0.6917  0.2686
22472SOL    HW265055   4.065   0.044   4.688 -0.8205 -0.9714 -0.0176
22473SOL     OW65056   9.460   5.334   1.568  0.3471  0.0068 -0.3899
22473SOL    HW165057   9.434   5.288   1.652  0.2624  0.3781 -0.2119
22473SOL    HW265058   9.395   5.408   1.548  3.2036  3.3396  1.9756
22474SOL     OW65059   0.737   4.180   6.813  0.1621  0.0007 -0.0700
22474SOL    HW165060   0.796   4.260   6.800 -0.1997  0.4631  1.0844
22474SOL    HW265061   0.794   4.100   6.833  0.4601  0.2175 -0.0465
22475SOL     OW65062   9.867   7.058   1.117  0.1774 -0.4094 -0.0358
22475SOL    HW165063   9.865   6.979   1.179 -0.4606  0.1630  0.7015
22475SOL    HW265064   9.930   7.041   1.042 -0.2021 -1.7593 -0.0680
22476SOL     OW65065   0.413   4.684   2.992 -0.1454  0.3505 -0.2801
22476SOL    HW165066   0.410   4.684   2.892  1.7451  3.9384 -0.4365
22476SOL    HW265067   0.347   4.752   3.027 -0.7527 -0.8319  0.9178
22477SOL     OW65068   2.342   8.200   1.652 -0.1829  0.3200 -0.1382
22477SOL    HW165069   2.308   8.133   1.717 -0.8282  1.0682  0.3125
22477SOL    HW265070   2.425   8.243   1.687 -0.5707  0.7740  0.2321
22478SOL     OW65071   0.289   5.214   7.791  0.0021 -0.1508  0.0773
22478SOL    HW165072   0.344   5.296   7.775 -0.5203  0.3185  0.6484
22478SOL    HW265073   0.290   5.193   7.889 -0.4036 -0.4486  0.0165
22479SOL     OW65074   3.452   3.864   7.927  0.2970 -0.0091 -0.3146
22479SOL    HW165075   3.489   3.947   7.969 -2.0930  0.3649  1.1864
22479SOL    HW265076   3.353   3.860   7.944  0.6076 -4.0097  1.1305
22480SOL     OW65077   7.174   4.364   7.291 -0.3682 -0.2144  0.2450
22480SOL    HW165078   7.144   4.402   7.378 -2.5002 -0.8269 -0.1937
22480SOL    HW265079   7.102   4.374   7.223  1.5522  0.9567 -1.6938
22481SOL     OW65080   8.560   6.021   3.431  0.0055 -0.1983  0.0040
22481SOL    HW165081   8.490   6.092   3.420 -0.2089 -0.1829  1.3373
22481SOL    HW265082   8.545   5.949   3.362 -0.5452  0.4292 -0.5428
22482SOL     OW65083   4.395   5.888   3.407 -0.8405  0.3737 -0.5403
22482SOL    HW165084   4.416   5.797   3.443  2.9097  1.1475 -0.6232
22482SOL    HW265085   4.366   5.947   3.482  0.1580  0.0780  0.0836
22486SOL     OW65086   8.213   5.723   4.068 -0.6990  0.0338 -0.1959
22486SOL    HW165087   8.302   5.736   4.112 -1.1025  0.3540  0.5329
22486SOL    HW265088   8.225   5.670   3.984 -0.1155 -1.8842  1.0600
22487SOL     OW65089   3.182   2.140   4.547 -0.2780  0.7583 -0.9019
22487SOL    HW165090   3.152   2.200   4.620  0.6725  0.5852 -0.3645
22487SOL    HW265091   3.200   2.049   4.583 -0.4035  0.5096 -1.4602
22490SOL     OW65092   1.376   8.219   0.202  0.5027 -0.1013  0.0152
22490SOL    HW165093   1.295   8.172   0.167  0.1897 -0.1680  0.8142
22490SOL    HW265094   1.382   8.205   0.301  0.3445  1.6483  0.2812
22491SOL     OW65095   6.359   0.033   7.948 -0.1803  0.2518 -0.2372
22491SOL    HW165096   6.337   0.075   8.036 -1.5815 -1.5708  0.3165
22491SOL    HW265097   6.297   0.070   7.878 -1.3538 -0.7942  0.2301
22493SOL     OW65098   2.378   8.542   1.199 -0.4934 -0.8397 -0.0240
22493SOL    HW165099   2.342   8.605   1.268 -0.3467 -0.4560 -0.2939
22493SOL    HW265100   2.478   8.543   1.202 -0.4921 -1.8433  0.6714
22494SOL     OW65101   1.395   2.232   4.068  0.1176  0.5038 -0.5331
22494SOL    HW165102   1.466   2.164   4.052  0.1783  0.5974 -0.6583
22494SOL    HW265103   1.434   2.313   4.111 -0.1232  0.0735  0.5069
22495SOL     OW65104   1.692   3.598   2.044  0.5190 -0.2582  0.2853
22495SOL    HW165105   1.650   3.545   2.117  1.5600 -1.8938 -0.2872
22495SOL    HW265106   1.661   3.566   1.955 -0.4279  1.4609 -0.0249
22496SOL     OW65107   6.139   0.956   0.716 -0.1731  0.2318 -0.0002
22496SOL    HW165108   6.176   0.873   0.759  0.5869  1.0447  0.9202
22496SOL    HW265109   6.214   1.011   0.679 -0.5926  1.0550  0.3636
22498SOL     OW65110   5.013   6.369   1.199 -0.0770  0.1756  0.2813
22498SOL    HW165111   4.919   6.368   1.232  0.4276  3.2539  1.9658
22498SOL    HW265112   5.073   6.327   1.268  0.0960  0.2648  0.1845
22499SOL     OW65113   8.759   2.904   4.152  0.2763  0.2058  0.2385
22499SOL    HW165114   8.679   2.880   4.207 -0.3556 -2.9078 -1.9116
22499SOL    HW265115   8.833   2.839   4.168  0.2928 -0.4025 -2.0461
22500SOL     OW65116   1.279   9.982   1.217  0.3282 -0.3579  0.1373
22500SOL    HW165117   1.359   9.946   1.169 -0.6416 -0.0294 -1.7623
22500SOL    HW265118   1.289  10.081   1.228  0.0663 -0.2832 -0.3075
22501SOL     OW65119   0.995   7.045   6.619  0.4553  0.0605  0.5909
22501SOL    HW165120   0.916   7.008   6.668 -0.3327  1.0923  0.1276
22501SOL    HW265121   1.070   6.979   6.622 -1.1827 -1.9878 -0.9538
22502SOL     OW65122   2.589   7.245   7.764  0.0205  0.3354  0.0828
22502SOL    HW165123   2.610   7.235   7.667  0.0423  0.5556  0.0668
22502SOL    HW265124   2.552   7.158   7.799  1.8770 -0.3842  0.3410
22503SOL     OW65125   5.256   1.488   0.006 -0.5184 -0.1426 -0.5824
22503SOL    HW165126   5.285   1.392   0.001  1.3091  0.4068 -0.8215
22503SOL    HW265127   5.280   1.525   0.096 -2.4758 -0.2828  0.0210
22504SOL     OW65128   5.384   2.372   5.817 -0.4310 -0.1473 -0.3582
22504SOL    HW165129   5.475   2.333   5.805 -0.5432 -0.2511 -0.8831
22504SOL    HW265130   5.386   2.469   5.793 -0.4901 -0.1825 -0.5049
22506SOL     OW65131   5.583   2.815   0.686  0.0306 -0.2546  0.0582
22506SOL    HW165132   5.586   2.731   0.632  0.8429  0.7154 -1.4851
22506SOL    HW265133   5.491   2.830   0.721 -0.9758 -0.0313 -2.5745
22507SOL     OW65134   9.172   5.843   7.016  0.1755  0.1415 -0.3237
22507SOL    HW165135   9.185   5.888   6.928  0.0653  1.2873  0.2359
22507SOL    HW265136   9.075   5.849   7.042  0.0119 -1.1158 -0.6116
22508SOL     OW65137   9.848   5.802   0.337  0.3012  0.4151 -0.0918
22508SOL    HW165138   9.880   5.816   0.243  0.2051  0.1755 -0.1606
22508SOL    HW265139   9.906   5.852   0.400  1.6233 -1.0691 -0.0983
22509SOL     OW65140   1.264   1.293   2.334  0.1785 -0.0676  0.2124
22509SOL    HW165141   1.203   1.236   2.389  2.6873 -2.5749  0.5341
22509SOL    HW265142   1.226   1.304   2.242 -2.2776  1.1416  1.3249
22510SOL     OW65143   0.578   1.877   1.135 -0.2100 -0.0628  0.5560
22510SOL    HW165144   0.676   1.892   1.148 -0.1220 -0.6961  0.6545
22510SOL    HW265145   0.536   1.960   1.098  0.5421 -0.1252 -0.4374
22511SOL     OW65146   6.587   4.764   1.986  0.5158 -0.3323  0.3304
22511SOL    HW165147   6.677   4.787   1.950  0.8015 -1.2411  0.4577
22511SOL    HW265148   6.590   4.763   2.086  1.3353 -3.9724  0.3623
22512SOL     OW65149   0.491   8.134   2.868 -0.5816  0.0221  0.6973
22512SOL    HW165150   0.392   8.121   2.872 -0.7978  1.2482 -0.4013
22512SOL    HW265151   0.521   8.187   2.948 -0.9528  0.4857  0.5306
22513SOL     OW65152   7.694   5.595   3.830 -0.0259  0.1866  0.1155
22513SOL    HW165153   7.713   5.543   3.746 -2.5172 -0.6872  0.0251
22513SOL    HW265154   7.758   5.672   3.837 -0.1004  0.6220 -2.9142
22514SOL     OW65155   5.298   9.015   7.297 -0.3322 -0.7331  0.0024
22514SOL    HW165156   5.199   9.022   7.305 -0.4768 -0.7854 -1.6411
22514SOL    HW265157   5.337   8.991   7.386 -1.7236 -0.0711  0.8082
22515SOL     OW65158   1.721   9.671   2.664  0.1367  0.6087  0.4134
22515SOL    HW165159   1.648   9.724   2.620  0.3418 -0.5365 -1.3299
22515SOL    HW265160   1.682   9.614   2.736 -0.5645  0.6930  0.1007
22516SOL     OW65161   7.424   8.535   7.167 -0.0329 -0.8216  0.4665
22516SOL    HW165162   7.338   8.586   7.162  0.2080 -0.4126  0.4879
22516SOL    HW265163   7.414   8.447   7.120  0.6798  0.8204 -2.9070
22518SOL     OW65164   2.708   2.652   1.358 -0.1014 -0.0721  0.0809
22518SOL    HW165165   2.709   2.677   1.455  1.9032 -0.6371  0.2277
22518SOL    HW265166   2.623   2.604   1.337 -0.6591  0.2582  1.5086
22519SOL     OW65167   8.248   3.822   3.511 -0.3698 -0.3340  0.5479
22519SOL    HW165168   8.221   3.918   3.507  0.1122 -0.2501 -1.2154
22519SOL    HW265169   8.308   3.801   3.434 -0.2505 -1.9935  1.0625
22520SOL     OW65170   6.629   9.268   7.688 -0.1768 -0.4567  0.5503
22520SOL    HW165171   6.565   9.303   7.619  0.0429  0.9098  1.0209
22520SOL    HW265172   6.586   9.193   7.738 -0.2165 -1.6958 -1.2798
22521SOL     OW65173   0.008   4.655   6.687  0.2639  0.7911  0.4778
22521SOL    HW165174  -0.089   4.640   6.704  0.4914  1.1213  2.0870
22521SOL    HW265175   0.022   4.676   6.590 -1.3105  1.1462  0.3259
22522SOL     OW65176   6.340   5.951   0.448  0.3118  0.1054 -0.4993
22522SOL    HW165177   6.353   5.977   0.353  0.0543 -1.1107 -0.8681
22522SOL    HW265178   6.418   5.982   0.502  0.5756  0.5674 -1.1451
22524SOL     OW65179   0.811   7.125   5.700  0.1326  0.4581  0.0853
22524SOL    HW165180   0.868   7.057   5.746  0.3838 -0.5628 -1.6682
22524SOL    HW265181   0.738   7.155   5.762 -0.4563 -2.0084  0.6609
22525SOL     OW65182   4.661   7.558   4.922  0.3941  0.6763 -0.1526
22525SOL    HW165183   4.743   7.611   4.904  0.7016  0.4776  0.6385
22525SOL    HW265184   4.627   7.579   5.013  0.3454 -0.2468  0.0475
22527SOL     OW65185   9.873   4.293   0.610  0.3521  0.0405 -0.1362
22527SOL    HW165186   9.916   4.383   0.598 -0.8845  0.6557  0.0343
22527SOL    HW265187   9.938   4.222   0.582  1.3515  0.9798 -0.2446
22529SOL     OW65188   1.163   7.311   0.444  0.0961 -0.2863  0.2510
22529SOL    HW165189   1.257   7.342   0.451  0.2149  0.0208 -2.2297
22529SOL    HW265190   1.160   7.222   0.399 -0.7067 -1.0238  1.7150
22530SOL     OW65191   9.085   5.458   2.666  0.5787  0.7526 -0.5710
22530SOL    HW165192   9.139   5.380   2.634 -1.1155 -0.7578  0.1810
22530SOL    HW265193   9.111   5.480   2.760  3.2569  3.1200 -1.8075
22533SOL     OW65194   5.171   7.329   1.734 -0.0135 -0.0948 -0.0970
22533SOL    HW165195   5.076   7.312   1.709  0.0229  0.6951 -0.7512
22533SOL    HW265196   5.229   7.324   1.653  0.4354 -0.0481  0.2171
22534SOL     OW65197   3.706   1.826   1.217  0.3213  0.2513  0.4194
22534SOL    HW165198   3.702   1.899   1.148  1.1988  1.0939  1.2628
22534SOL    HW265199   3.758   1.749   1.180  1.5530  1.0524  0.4496
22535SOL     OW65200   3.088   7.146   5.948 -0.4719 -1.0091 -0.2238
22535SOL    HW165201   3.040   7.185   5.870  2.6835 -0.2473 -1.8604
22535SOL    HW265202   3.110   7.218   6.014  1.6136 -0.6888 -1.2331
22536SOL     OW65203   0.415   2.934   1.457  0.3056  0.8271  0.3802
22536SOL    HW165204   0.453   2.967   1.543  1.4319  2.9127 -0.8577
22536SOL    HW265205   0.483   2.876   1.411 -0.0653  0.1961  0.6314
22537SOL     OW65206   9.481   0.560   7.352  0.5190  0.3042 -0.2275
22537SOL    HW165207   9.559   0.499   7.366  0.9245  0.3713 -2.0681
22537SOL    HW265208   9.397   0.516   7.383  0.6736 -1.5676 -2.3720
22538SOL     OW65209   1.504   7.092   5.513  0.2294  0.0655  0.0126
22538SOL    HW165210   1.499   7.073   5.610 -0.2531  0.3618  0.0464
22538SOL    HW265211   1.438   7.163   5.489  0.3058 -0.0454 -0.5406
22539SOL     OW65212   9.950   4.689   7.284 -0.2972  0.1979  0.1018
22539SOL    HW165213   9.868   4.687   7.226 -0.2235  1.2125 -0.0473
22539SOL    HW265214   9.929   4.648   7.373 -1.1529  0.9793  0.2743
22540SOL     OW65215   0.867   8.936   0.434  0.5253  0.0797  0.1033
22540SOL    HW165216   0.782   8.934   0.487  0.3253 -3.0569 -0.2569
22540SOL    HW265217   0.849   8.901   0.342  2.1851 -0.4623 -0.0217
22541SOL     OW65218   7.258   1.917   2.606 -0.1022  0.4058  0.2447
22541SOL    HW165219   7.170   1.964   2.597 -0.6044 -0.3986  0.8050
22541SOL    HW265220   7.273   1.858   2.527 -0.1094  0.4886  0.1825
22542SOL     OW65221   0.310   7.958   6.086 -0.3274 -1.1821 -0.0773
22542SOL    HW165222   0.401   7.980   6.050 -1.1969  1.3692 -0.8414
22542SOL    HW265223   0.285   7.865   6.059  0.8421 -0.8756 -2.3707
22544SOL     OW65224   1.244   5.594   1.551 -0.0712 -0.0596  0.9468
22544SOL    HW165225   1.229   5.635   1.641 -2.4829 -0.2845  0.6836
22544SOL    HW265226   1.159   5.555   1.518  0.9531 -0.5843 -1.1539
22547SOL     OW65227   2.755   4.974   3.451 -0.5109  0.1263 -0.2607
22547SOL    HW165228   2.823   4.905   3.476 -0.1550 -0.2745 -2.2296
22547SOL    HW265229   2.670   4.929   3.425  0.2859  0.2417 -3.3316
22548SOL     OW65230   7.597   6.372   0.105  0.0908 -0.1251 -0.2693
22548SOL    HW165231   7.669   6.411   0.163 -0.1563 -1.6833  1.1228
22548SOL    HW265232   7.509   6.379   0.152 -0.4653  0.5473 -1.3924
22549SOL     OW65233   6.343   2.745   0.326  0.2528 -0.4554 -0.1703
22549SOL    HW165234   6.407   2.681   0.284  0.4781  0.3390 -1.0458
22549SOL    HW265235   6.390   2.832   0.345  0.4924 -1.2065  2.8768
22550SOL     OW65236   2.079   1.368   6.530 -0.1881 -0.5736  0.3645
22550SOL    HW165237   2.051   1.303   6.459  1.1098  0.0614 -0.7568
22550SOL    HW265238   2.069   1.461   6.496  0.1644 -0.2548  1.1302
22551SOL     OW65239   0.665   4.963   6.616  0.2207  0.1207  0.1244
22551SOL    HW165240   0.689   5.060   6.626  0.0632  0.2603 -0.7848
22551SOL    HW265241   0.743   4.906   6.641 -0.1390  0.4369  2.0433
22552SOL     OW65242   7.992   6.994   3.526 -0.2651 -0.4466 -0.2934
22552SOL    HW165243   8.046   6.990   3.442 -0.2271 -1.1623 -0.2349
22552SOL    HW265244   8.045   6.957   3.602 -0.2002  0.4597  0.0988
22556SOL     OW65245   9.385   5.277   2.037 -0.1135  0.5354 -0.3908
22556SOL    HW165246   9.376   5.244   1.943 -0.2532 -1.4957  0.3226
22556SOL    HW265247   9.480   5.300   2.056  0.0987 -0.0999 -0.6846
22557SOL     OW65248   8.951   9.010   6.808  0.2635 -0.0586 -0.3571
22557SOL    HW165249   8.871   8.951   6.796  0.0221  0.3309 -0.7071
22557SOL    HW265250   8.922   9.096   6.851  0.7621 -0.5567  1.0035
22558SOL     OW65251   4.781   0.209   1.803  0.2169 -0.0615  0.0707
22558SOL    HW165252   4.834   0.234   1.722 -0.7995  1.4129 -0.1679
22558SOL    HW265253   4.722   0.132   1.781 -1.5774  1.6240 -1.2549
22559SOL     OW65254   9.724   6.342   1.778  0.8488  0.1437 -0.0623
22559SOL    HW165255   9.766   6.340   1.869  0.9757  1.7042 -0.0775
22559SOL    HW265256   9.685   6.252   1.757  2.4897 -0.7790  0.7496
22561SOL     OW65257   0.345   4.991   0.694 -0.6655 -0.3069  0.9435
22561SOL    HW165258   0.297   4.984   0.607  0.9899 -1.3461  0.0743
22561SOL    HW265259   0.419   4.923   0.696 -0.4140  0.0070  2.9789
22562SOL     OW65260   2.675   0.345   2.356  0.5350 -0.2197  0.5325
22562SOL    HW165261   2.650   0.279   2.286  0.4588  0.9128 -0.5208
22562SOL    HW265262   2.616   0.426   2.349  0.4016 -0.1585  2.0112
22563SOL     OW65263   5.285   2.271   4.887  0.0778  0.0528 -0.0201
22563SOL    HW165264   5.372   2.241   4.848  1.3464  0.0428  2.7075
22563SOL    HW265265   5.302   2.329   4.966 -2.4163 -1.8317  1.9952
22564SOL     OW65266   3.501   5.154   3.757 -0.1585 -0.1762  0.2144
22564SOL    HW165267   3.424   5.216   3.747  1.4245  2.0570  1.4681
22564SOL    HW265268   3.526   5.116   3.668 -1.0019  1.1836 -0.6030
22565SOL     OW65269   6.234   8.047   6.796 -0.1383  0.1131 -0.0969
22565SOL    HW165270   6.200   7.972   6.852  2.5945 -1.0326  0.0985
22565SOL    HW265271   6.233   8.132   6.848  1.1083 -0.6867  1.2608
22567SOL     OW65272   3.850   5.611   3.112  0.1638  0.4795  1.0395
22567SOL    HW165273   3.935   5.568   3.141 -0.4342 -0.4910  1.3815
22567SOL    HW265274   3.775   5.545   3.119 -0.7851  1.6006  1.6465
22568SOL     OW65275   4.617   0.634   6.636 -0.5437  0.3043  0.5571
22568SOL    HW165276   4.608   0.731   6.612  1.3047  0.9194  2.2095
22568SOL    HW265277   4.700   0.597   6.593 -1.1571 -0.5087  0.0670
22569SOL     OW65278   9.182   9.056   0.983 -0.1846  0.1554  0.4082
22569SOL    HW165279   9.115   9.129   0.972  0.4871  0.9950  1.6456
22569SOL    HW265280   9.170   9.013   1.072  0.8106  0.2171  0.5777
22571SOL     OW65281   4.861   2.333   0.310 -0.5546  0.0343  0.6478
22571SOL    HW165282   4.778   2.382   0.337 -1.7477 -2.1898  1.0609
22571SOL    HW265283   4.911   2.306   0.392 -0.0116  0.3382  0.4187
22572SOL     OW65284   9.197   5.120   4.293 -0.3818 -0.5389 -0.7565
22572SOL    HW165285   9.234   5.030   4.315 -1.3647 -1.0591 -1.1836
22572SOL    HW265286   9.155   5.118   4.203 -4.3776 -0.9003  0.9940
22573SOL     OW65287   0.819   7.587   0.249 -0.1169  0.4574  0.0112
22573SOL    HW165288   0.735   7.549   0.211  0.6722  0.1925 -1.4973
22573SOL    HW265289   0.798   7.670   0.300 -0.9451  2.0069 -2.7740
22574SOL     OW65290   8.926   0.315   3.689 -0.2547  0.0184  0.0920
22574SOL    HW165291   8.974   0.239   3.645 -0.1537 -0.2992  0.7541
22574SOL    HW265292   8.988   0.393   3.697 -0.1488 -0.0609  0.0436
22575SOL     OW65293   0.282   3.624   3.438  0.5732  0.1403 -0.4072
22575SOL    HW165294   0.219   3.547   3.428  1.1612 -0.3965 -0.0233
22575SOL    HW265295   0.238   3.708   3.406 -0.7014 -0.0468  0.8425
22577SOL     OW65296   9.194   1.280   6.970  0.0409  0.1537 -0.4386
22577SOL    HW165297   9.175   1.369   7.011 -1.9679  0.1093 -1.1939
22577SOL    HW265298   9.107   1.237   6.943  0.8046 -2.7631  1.4517
22578SOL     OW65299   5.445   7.693   6.561  0.4857  0.4702  0.7863
22578SOL    HW165300   5.538   7.725   6.576  0.5245  1.0542 -0.6279
22578SOL    HW265301   5.447   7.600   6.526  0.6061  0.9522 -0.5210
22579SOL     OW65302   7.034   8.500   5.461 -0.2969  0.1040  0.6539
22579SOL    HW165303   6.969   8.484   5.535 -0.3839 -0.2732  0.4948
22579SOL    HW265304   7.038   8.420   5.402 -2.0251  1.2945 -1.1176
22580SOL     OW65305   6.869   9.644   5.665 -0.1577  0.5620  0.6765
22580SOL    HW165306   6.910   9.567   5.714 -0.8653  0.9551  1.9016
22580SOL    HW265307   6.879   9.630   5.566 -0.7120 -1.3410  0.8763
22581SOL     OW65308   6.363   8.641   6.315 -0.2409  0.0728  0.2355
22581SOL    HW165309   6.269   8.667   6.292  0.8465  0.9079 -3.4439
22581SOL    HW265310   6.372   8.541   6.312 -0.7404  0.0517 -0.3975
22582SOL     OW65311   3.350   1.142   7.162 -0.1160  0.7100 -0.5425
22582SOL    HW165312   3.428   1.191   7.201 -1.0049  3.1117 -1.7180
22582SOL    HW265313   3.282   1.125   7.233  0.3500  0.8540 -0.0582
22583SOL     OW65314   8.652   6.157   1.277  0.7255 -0.1842 -0.8232
22583SOL    HW165315   8.594   6.173   1.198 -0.7555  2.4776  0.7444
22583SOL    HW265316   8.602   6.102   1.344  2.6909 -4.1985 -2.4903
22585SOL     OW65317   7.636   0.086   5.290  0.7029 -0.7556 -0.1007
22585SOL    HW165318   7.721   0.081   5.341  0.7289 -1.0494 -0.1729
22585SOL    HW265319   7.652   0.061   5.194  0.8014  0.5416 -0.4333
22587SOL     OW65320   5.621   0.271   4.738  0.1505  0.9417 -0.1598
22587SOL    HW165321   5.716   0.285   4.710  1.2578 -0.2276  2.7642
22587SOL    HW265322   5.607   0.174   4.759 -1.0732  1.4597  1.5072
22589SOL     OW65323   4.483   1.199   4.072  0.2649 -0.4187 -0.5038
22589SOL    HW165324   4.529   1.110   4.077 -2.1626 -1.6754  0.4243
22589SOL    HW265325   4.392   1.191   4.113  0.4086  2.7622  0.5364
22590SOL     OW65326   2.464   0.190   3.688  0.3072  0.6446  0.2451
22590SOL    HW165327   2.391   0.251   3.718 -1.0704 -0.2438 -1.2262
22590SOL    HW265328   2.462   0.106   3.743 -0.9160 -0.1190 -0.9374
22591SOL     OW65329   2.893   5.595   4.722 -0.2691 -0.0793  0.4433
22591SOL    HW165330   2.873   5.560   4.631 -1.0085 -0.5766  0.7908
22591SOL    HW265331   2.938   5.684   4.715  0.4700 -0.5097 -0.4221
22593SOL     OW65332   0.483   1.710   5.520 -0.4340 -0.3102  0.4130
22593SOL    HW165333   0.563   1.760   5.486 -0.6298  0.2175  0.7293
22593SOL    HW265334   0.415   1.775   5.553 -0.7386 -0.7859  0.7168
22594SOL     OW65335   1.679   1.241   7.639  0.0920  0.4285  0.3022
22594SOL    HW165336   1.770   1.230   7.599  0.6267  0.1445  1.5718
22594SOL    HW265337   1.648   1.153   7.676 -0.2569  0.7587  0.8011
22595SOL     OW65338   2.127   3.798   5.722  0.4600  0.5655  0.2261
22595SOL    HW165339   2.205   3.778   5.664  0.8881 -0.2351  1.0685
22595SOL    HW265340   2.150   3.872   5.785  0.5521  0.3120  0.4924
22596SOL     OW65341   3.126   8.192   3.304  0.0279 -0.2882  0.0805
22596SOL    HW165342   3.097   8.285   3.280 -0.5738 -1.4361 -4.0290
22596SOL    HW265343   3.045   8.137   3.326  0.2720 -0.2034  1.2262
22597SOL     OW65344   8.987   3.606   6.030  0.2150 -0.0800  0.6635
22597SOL    HW165345   8.928   3.631   5.953 -0.3893 -1.1666  0.7713
22597SOL    HW265346   8.943   3.632   6.116  0.0288 -0.6225  0.7315
22598SOL     OW65347   7.998   8.674   3.132  0.2516 -0.0897  0.3053
22598SOL    HW165348   8.001   8.596   3.194 -2.4678  0.6248  1.3840
22598SOL    HW265349   8.051   8.750   3.171  1.4757 -0.7887  0.0482
22599SOL     OW65350   1.549   2.286   5.683  0.3769  0.5357 -0.1245
22599SOL    HW165351   1.518   2.205   5.634  1.4534  1.3202 -2.1997
22599SOL    HW265352   1.624   2.261   5.744  2.0670  0.2461 -2.2312
22600SOL     OW65353   9.033   4.764   2.839  0.3169 -0.0004 -0.0708
22600SOL    HW165354   9.104   4.825   2.806  0.3807 -0.1407 -0.1927
22600SOL    HW265355   9.047   4.672   2.801  0.0179 -0.0062 -0.1669
22601SOL     OW65356   3.663   5.234   7.748  0.5440  0.3603 -0.1208
22601SOL    HW165357   3.694   5.172   7.677 -0.9957  1.9421 -2.2564
22601SOL    HW265358   3.687   5.328   7.723  0.0736  0.9370  1.5119
22602SOL     OW65359   1.308   6.828   0.885 -0.1622  0.2916  0.5811
22602SOL    HW165360   1.287   6.888   0.962 -0.3360  1.6674 -0.5329
22602SOL    HW265361   1.273   6.868   0.800  2.5060  0.1881 -0.6208
22603SOL     OW65362   4.423   4.835   5.661  0.1775  0.1902 -0.3664
22603SOL    HW165363   4.337   4.853   5.709  1.0024  0.2765  1.1177
22603SOL    HW265364   4.421   4.879   5.572 -1.4685 -0.1208 -0.5078
22604SOL     OW65365   8.145   6.726   1.749  0.1134 -0.5631  0.4782
22604SOL    HW165366   8.197   6.744   1.666 -0.8917 -0.2294 -0.0959
22604SOL    HW265367   8.082   6.802   1.765  1.0487 -0.1157  2.1378
22606SOL     OW65368   7.205   5.290   0.150  0.5199 -0.3116 -0.0916
22606SOL    HW165369   7.173   5.377   0.114  1.8644  0.0551 -0.4482
22606SOL    HW265370   7.134   5.221   0.141 -0.5866  0.7723  0.2814
22607SOL     OW65371   2.695   9.495   1.712  0.2198 -0.3873 -0.7491
22607SOL    HW165372   2.760   9.449   1.771  1.0802  0.0470 -1.3486
22607SOL    HW265373   2.605   9.452   1.722  0.0589  0.4802  1.7842
22608SOL     OW65374   6.074   9.727   1.342 -0.5503  0.4940 -0.4262
22608SOL    HW165375   6.011   9.656   1.310  1.4722 -1.4654 -0.1121
22608SOL    HW265376   6.061   9.741   1.441  0.4438 -0.8667 -0.1021
22610SOL     OW65377   2.167   2.359   1.113 -0.2751  0.4429  0.4292
22610SOL    HW165378   2.186   2.267   1.146 -0.1231  0.9311  1.7345
22610SOL    HW265379   2.217   2.374   1.027 -1.6437 -1.2487 -0.6889
22611SOL     OW65380   5.820   5.147   7.938 -0.4581 -0.5850  0.1640
22611SOL    HW165381   5.774   5.234   7.920  0.5580  0.0520  0.6079
22611SOL    HW265382   5.917   5.163   7.957 -0.4636 -1.7093  1.2417
22612SOL     OW65383   8.380   4.547   0.876 -0.6404 -0.2971  0.3806
22612SOL    HW165384   8.447   4.600   0.824  1.9992 -2.6247  1.2345
22612SOL    HW265385   8.371   4.586   0.968 -0.6502  0.1950  0.1699
22613SOL     OW65386   9.357   1.134   0.413  0.0826  0.8368 -0.2068
22613SOL    HW165387   9.346   1.071   0.491 -2.1161  1.5545  0.0910
22613SOL    HW265388   9.453   1.158   0.403  1.0150 -2.7462 -0.4532
22614SOL     OW65389   1.718   8.430   6.987  0.0521 -0.2381 -0.8846
22614SOL    HW165390   1.683   8.338   7.003 -0.0184  0.1029  1.0313
22614SOL    HW265391   1.647   8.497   7.008  0.9850  0.3435  0.5076
22615SOL     OW65392   0.725   4.697   5.735 -1.0124  0.5538  0.1868
22615SOL    HW165393   0.714   4.682   5.637 -3.0730  2.9933 -0.0276
22615SOL    HW265394   0.635   4.696   5.779 -0.1173 -0.3720  2.0270
22616SOL     OW65395   2.152   6.627   0.083 -0.2719  1.0160  0.3966
22616SOL    HW165396   2.129   6.698   0.016 -1.6304  0.1821 -0.0321
22616SOL    HW265397   2.206   6.556   0.039 -0.7970  0.6852  0.2784
22618SOL     OW65398   1.198   9.368   5.832  0.3952 -0.4788  0.1821
22618SOL    HW165399   1.124   9.405   5.888 -1.3763 -1.2126 -1.6308
22618SOL    HW265400   1.216   9.273   5.859  0.2836 -0.4887  0.2207
22620SOL     OW65401   3.257   2.615   7.490  0.5246  0.0391  0.2043
22620SOL    HW165402   3.163   2.603   7.457  0.3099  0.8747  0.4986
22620SOL    HW265403   3.256   2.632   7.588  1.1090 -1.6057  0.5139
22623SOL     OW65404   9.630   9.524   2.753  0.0507 -0.6735  0.2770
22623SOL    HW165405   9.577   9.444   2.725 -1.7423  0.6106 -0.0659
22623SOL    HW265406   9.606   9.547   2.848  2.5480 -2.1151  1.3200
22624SOL     OW65407   6.780   9.556   3.136 -0.1514  0.1113 -0.0080
22624SOL    HW165408   6.833   9.483   3.178 -0.8920 -1.3938 -1.6180
22624SOL    HW265409   6.697   9.572   3.190 -1.5910 -2.4905 -1.3766
22625SOL     OW65410   8.432   2.815   3.222 -0.2978  0.3795 -0.0580
22625SOL    HW165411   8.412   2.767   3.136 -0.1024  1.9926 -1.0126
22625SOL    HW265412   8.346   2.833   3.271 -0.6354  1.6850 -1.1222
22626SOL     OW65413   2.272   1.041   5.510 -0.1644 -0.1455 -0.0402
22626SOL    HW165414   2.258   1.025   5.607  1.6161  0.5578  0.3429
22626SOL    HW265415   2.197   1.097   5.474 -0.0962  0.7544  1.2190
22628SOL     OW65416   1.721   8.642   2.453 -0.4506  0.1020 -0.3923
22628SOL    HW165417   1.771   8.648   2.366 -0.0806  1.3976 -0.1075
22628SOL    HW265418   1.623   8.644   2.434 -0.5083 -4.9743 -1.1270
22629SOL     OW65419   3.494   3.740   3.464 -0.1833  0.1564  0.7281
22629SOL    HW165420   3.552   3.673   3.510 -1.3208  0.4827  2.7299
22629SOL    HW265421   3.422   3.693   3.413  0.0568 -0.1929  0.7159
22631SOL     OW65422   1.157   8.511   0.323  0.0316 -0.1229 -0.3031
22631SOL    HW165423   1.178   8.478   0.415  1.0006 -0.1357 -0.5307
22631SOL    HW265424   1.062   8.542   0.320  0.3597  1.0487  1.0491
22632SOL     OW65425   0.691   9.398   1.906  0.4493 -0.0158 -0.4137
22632SOL    HW165426   0.655   9.320   1.855  3.0326  0.8533 -3.7579
22632SOL    HW265427   0.634   9.478   1.888 -0.4134 -0.4015  0.5536
22633SOL     OW65428   6.766   0.726   3.011  0.1500 -0.4290 -0.0000
22633SOL    HW165429   6.700   0.659   3.048 -1.4660  0.9757 -0.2653
22633SOL    HW265430   6.764   0.723   2.911 -0.7852  0.8076 -0.0303
22634SOL     OW65431   6.586   3.874   1.437 -0.0092  0.1201 -0.0467
22634SOL    HW165432   6.537   3.823   1.367 -1.9842  0.2323  1.2363
22634SOL    HW265433   6.532   3.877   1.521  1.4645  1.6495  0.8834
22635SOL     OW65434   3.809   0.300   2.532 -0.1682 -0.3654  0.6356
22635SOL    HW165435   3.806   0.263   2.625 -2.3692 -0.0561  0.7147
22635SOL    HW265436   3.767   0.234   2.470 -1.9801  0.9696  0.4177
22636SOL     OW65437   6.086   1.596   6.681  0.0016  0.2777 -0.8361
22636SOL    HW165438   6.148   1.637   6.614 -1.7063  0.0756 -2.5905
22636SOL    HW265439   6.018   1.540   6.634  0.3690 -2.0456  1.2967
22638SOL     OW65440   4.481   5.034   1.538  0.1269  0.2401  0.1055
22638SOL    HW165441   4.522   5.109   1.486  0.7392 -0.0304  0.1974
22638SOL    HW265442   4.533   4.950   1.524 -1.0894 -0.4004 -0.7200
22639SOL     OW65443   3.087   2.557   5.253  0.3752 -0.4843 -0.1439
22639SOL    HW165444   3.057   2.528   5.162 -2.5244 -0.3118  0.7154
22639SOL    HW265445   3.017   2.615   5.294  2.3165  0.6662  1.6177
22640SOL     OW65446   2.250   2.744   0.249  0.0889  0.1352 -0.0910
22640SOL    HW165447   2.236   2.677   0.321  1.3145  0.3030  0.3161
22640SOL    HW265448   2.268   2.834   0.290  2.5272 -0.1107 -0.5587
22642SOL     OW65449   7.652   0.023   2.645  0.3208 -0.2565 -0.2736
22642SOL    HW165450   7.557  -0.006   2.644  0.0384  0.6561 -0.7860
22642SOL    HW265451   7.657   0.121   2.628  1.1190  0.4139  3.3648
22643SOL     OW65452   6.950   7.256   3.784  0.6240 -0.4689 -0.1787
22643SOL    HW165453   6.858   7.273   3.747  0.7601  0.2586 -0.1842
22643SOL    HW265454   7.013   7.238   3.709  0.8601  0.8207 -0.3040
22644SOL     OW65455   9.478   3.704   7.368  0.3480  0.5045  0.0550
22644SOL    HW165456   9.506   3.610   7.351  0.3423  0.5851 -0.3958
22644SOL    HW265457   9.441   3.712   7.461 -0.6638 -0.1582 -0.2878
22645SOL     OW65458   2.531   3.089   0.980  0.3897 -0.3926  0.4735
22645SOL    HW165459   2.496   3.092   0.886 -1.7651  3.1672  1.2777
22645SOL    HW265460   2.629   3.074   0.978  0.3172 -0.8781 -2.3180
22646SOL     OW65461   2.794   6.387   1.835  0.1137 -0.0650  0.3427
22646SOL    HW165462   2.798   6.368   1.737 -1.3554 -1.3237  0.5014
22646SOL    HW265463   2.712   6.344   1.873  1.2122 -0.4615  2.3020
22647SOL     OW65464   9.750   0.938   0.432 -0.0419  0.0419 -0.0855
22647SOL    HW165465   9.722   0.857   0.381 -1.1423  0.4007 -0.0561
22647SOL    HW265466   9.843   0.924   0.467  0.1081 -0.8518 -0.8092
22648SOL     OW65467   2.163   7.685   0.841  0.7238  0.5084 -0.9355
22648SOL    HW165468   2.242   7.681   0.780 -0.4994 -1.8755 -2.4517
22648SOL    HW265469   2.079   7.693   0.786 -0.3886 -1.5259  0.3964
22649SOL     OW65470   7.948   7.996   1.754  0.3192  0.1931 -0.1430
22649SOL    HW165471   7.893   7.921   1.717 -1.1923  1.1785  0.0821
22649SOL    HW265472   7.982   7.972   1.845 -0.4482 -0.0789  0.0723
22650SOL     OW65473   3.232   1.007   0.168 -0.2425 -1.1153  0.0462
22650SOL    HW165474   3.258   0.915   0.199  3.7343 -0.4663 -1.1414
22650SOL    HW265475   3.254   1.074   0.238 -1.6905 -0.8514  0.2713
22653SOL     OW65476   4.628   9.838   0.129  0.5584  0.6859 -0.1887
22653SOL    HW165477   4.661   9.779   0.055  1.3516 -0.0402  0.7258
22653SOL    HW265478   4.657   9.801   0.217 -0.2875  1.5942  0.4937
22654SOL     OW65479   4.290   9.246   0.862  0.1970  0.1262 -0.1829
22654SOL    HW165480   4.199   9.277   0.835  0.1032 -0.0721 -0.0997
22654SOL    HW265481   4.285   9.150   0.890  0.6173 -0.1775 -1.1309
22655SOL     OW65482   6.933   1.731   1.043  0.1107  0.7032 -0.2357
22655SOL    HW165483   6.982   1.688   0.967 -0.2255 -0.1888  0.0473
22655SOL    HW265484   6.974   1.702   1.129 -0.2003  0.8593 -0.0343
22656SOL     OW65485   0.375   6.280   2.060  0.8447 -0.1935  0.0366
22656SOL    HW165486   0.341   6.225   2.136  0.4755  1.1237  0.8329
22656SOL    HW265487   0.332   6.250   1.975  0.7742 -1.2378  0.4326
22660SOL     OW65488   9.548   3.441   7.489  0.2362 -0.3382  0.3809
22660SOL    HW165489   9.489   3.370   7.528 -0.1639  0.6976  1.7119
22660SOL    HW265490   9.626   3.398   7.444 -0.5851 -1.6593  0.1923
22661SOL     OW65491   7.504   0.260   4.910  0.5453  0.4591 -0.1060
22661SOL    HW165492   7.455   0.241   4.995  0.2231  0.0163 -0.3902
22661SOL    HW265493   7.464   0.340   4.865  0.5557  0.5405  0.0270
22662SOL     OW65494   6.171   0.280   7.532 -0.3914 -0.1436  0.1893
22662SOL    HW165495   6.214   0.319   7.451 -0.3183  2.1938  1.3277
22662SOL    HW265496   6.072   0.276   7.518 -0.2781 -0.8221 -0.4535
22663SOL     OW65497   9.558   1.311   7.288 -0.7163 -0.1481  0.2568
22663SOL    HW165498   9.484   1.262   7.333 -0.6259 -1.4549 -1.0033
22663SOL    HW265499   9.532   1.331   7.193 -0.9869  2.7501  0.8815
22664SOL     OW65500   4.909   3.608   5.845  0.4399  0.1255  0.2462
22664SOL    HW165501   4.823   3.634   5.799  0.0536  0.0028  0.8928
22664SOL    HW265502   4.952   3.690   5.882  0.8353  0.2469 -0.4702
22665SOL     OW65503   0.423   1.338   4.024 -0.8183 -0.6699 -0.1636
22665SOL    HW165504   0.434   1.302   4.116 -0.5583 -1.1059 -0.3610
22665SOL    HW265505   0.464   1.274   3.958  1.2711  0.8543 -0.3875
22666SOL     OW65506   2.165   6.693   3.462 -0.6177 -0.9780 -0.5805
22666SOL    HW165507   2.169   6.793   3.471 -0.9963 -0.8520 -1.6780
22666SOL    HW265508   2.110   6.655   3.536 -1.5055 -0.2448 -0.8477
22667SOL     OW65509   9.844   8.853   0.836  0.1643  0.1299 -0.2161
22667SOL    HW165510   9.909   8.903   0.779  0.9536  2.0514  2.2733
22667SOL    HW265511   9.758   8.903   0.841  0.3965  0.4285  0.9585
22668SOL     OW65512   4.366   0.164   0.215  0.0399  0.2102  0.0352
22668SOL    HW165513   4.440   0.180   0.150 -0.2823  0.3476 -0.3003
22668SOL    HW265514   4.375   0.072   0.254  1.5792  1.0136  1.5629
22669SOL     OW65515   0.527   7.950   4.248  0.0721  0.2827 -0.0588
22669SOL    HW165516   0.477   7.894   4.182  0.3571 -0.4909  0.3705
22669SOL    HW265517   0.508   8.047   4.231  0.6676  0.1292 -1.6987
22670SOL     OW65518   6.832   9.197   3.815  0.3795  0.0886 -0.5445
22670SOL    HW165519   6.841   9.124   3.883  1.1383  2.1729  1.6696
22670SOL    HW265520   6.736   9.204   3.787 -0.2314  0.2270  1.4986
22671SOL     OW65521   5.099   0.245   6.032  0.1910 -0.1211  0.3855
22671SOL    HW165522   5.133   0.204   5.948 -3.3840 -0.7764 -0.8125
22671SOL    HW265523   5.052   0.176   6.086 -1.9559  1.3873  0.4999
22673SOL     OW65524   5.357   9.971   6.241 -0.0240  0.1231 -0.0933
22673SOL    HW165525   5.434   9.973   6.304 -0.9513 -0.1438  1.0621
22673SOL    HW265526   5.310  10.059   6.242 -0.8586 -0.3177  0.6386
22674SOL     OW65527   6.489   9.788   2.890 -0.0293 -0.2458 -0.1863
22674SOL    HW165528   6.437   9.847   2.952 -0.0263  0.2628 -0.6646
22674SOL    HW265529   6.509   9.838   2.806 -1.3633 -1.4526 -1.2264
22675SOL     OW65530   9.991   3.203   4.849 -0.3270 -0.1057 -0.0258
22675SOL    HW165531   9.926   3.127   4.854  0.3457 -0.7617 -1.0789
22675SOL    HW265532   9.966   3.264   4.774  0.8002 -0.8836 -1.0629
22677SOL     OW65533   3.470   5.112   0.216 -0.0847 -0.0366 -0.2879
22677SOL    HW165534   3.371   5.108   0.224  0.0014 -3.1464 -0.0300
22677SOL    HW265535   3.510   5.110   0.308  0.2053  2.9030 -0.3272
22678SOL     OW65536   2.987   9.783   6.607  0.0230 -0.1757 -0.4433
22678SOL    HW165537   2.964   9.857   6.543 -0.5586  0.1252  0.1086
22678SOL    HW265538   2.905   9.728   6.625  0.3328 -0.6425 -0.4403
22679SOL     OW65539   5.711   3.540   1.015  0.2654 -0.0506  0.2278
22679SOL    HW165540   5.755   3.550   1.105  0.9331  1.9346 -0.2795
22679SOL    HW265541   5.625   3.590   1.015 -0.6976 -1.6795  0.3550
22682SOL     OW65542   8.195   8.824   2.272  0.0259  0.0824  0.0242
22682SOL    HW165543   8.283   8.794   2.309 -0.4083 -1.0289  0.1825
22682SOL    HW265544   8.178   8.777   2.185 -0.5521  0.0434  0.1564
22683SOL     OW65545   7.990   5.917   2.557  0.2585  0.0247  0.3240
22683SOL    HW165546   8.056   5.893   2.629  0.0786  2.0793  1.2113
22683SOL    HW265547   8.039   5.931   2.471  0.4974 -2.2991  0.0447
22684SOL     OW65548   4.128   3.984   2.170  0.2851  0.2547  0.6727
22684SOL    HW165549   4.066   3.930   2.113  0.6633 -0.5048  0.9812
22684SOL    HW265550   4.087   3.996   2.261 -0.8078  2.3667 -0.0567
22685SOL     OW65551   9.288   3.542   0.363  0.0357  0.3155  0.5447
22685SOL    HW165552   9.279   3.468   0.296  0.8122 -0.3772  1.1901
22685SOL    HW265553   9.310   3.627   0.315 -0.8275  0.1238 -0.2003
22686SOL     OW65554   2.471   0.425   0.213  0.4504 -0.1573 -0.1531
22686SOL    HW165555   2.546   0.491   0.216  0.9973 -0.7300 -0.9847
22686SOL    HW265556   2.499   0.341   0.259  0.4500 -0.4918 -0.7518
22687SOL     OW65557   6.319   2.484   0.928  0.6555  0.9214  0.3967
22687SOL    HW165558   6.230   2.518   0.897  1.3767  1.2609 -1.3699
22687SOL    HW265559   6.377   2.560   0.956  1.5323  1.0092 -1.5797
22688SOL     OW65560   2.038   7.341   1.747 -0.3888  0.4776 -0.0713
22688SOL    HW165561   2.002   7.295   1.665  0.0526  1.6519 -0.9419
22688SOL    HW265562   1.989   7.427   1.760  0.6697  1.0848 -0.0607
22689SOL     OW65563   0.086   2.543   0.460 -0.0729 -0.2584  0.1791
22689SOL    HW165564   0.016   2.485   0.502 -1.3268  1.1598  0.0965
22689SOL    HW265565   0.084   2.531   0.361  0.9352 -1.4592  0.2995
22690SOL     OW65566   5.982   7.967   4.391  0.2567 -0.3301  0.2026
22690SOL    HW165567   5.972   7.892   4.325 -0.8603 -0.8614  0.9618
22690SOL    HW265568   6.026   7.932   4.474 -2.8683 -0.8824  1.7219
22691SOL     OW65569   4.784   9.153   2.456 -0.3730  0.4078 -0.1642
22691SOL    HW165570   4.841   9.219   2.406 -0.9762  1.0128 -0.0510
22691SOL    HW265571   4.708   9.201   2.499 -0.1197 -0.1883  0.9494
22692SOL     OW65572   4.639   2.428   4.849 -0.0312 -0.1293 -0.7759
22692SOL    HW165573   4.548   2.414   4.888  0.3566 -0.4170  0.0393
22692SOL    HW265574   4.647   2.380   4.762 -0.1679 -1.3285 -0.1252
22693SOL     OW65575   4.994   3.132   0.320 -0.1401  0.4259 -0.2024
22693SOL    HW165576   5.066   3.064   0.304  0.4268  0.9951 -0.0836
22693SOL    HW265577   4.904   3.089   0.306  0.2469  0.0509 -1.6608
22694SOL     OW65578   5.712   8.737   4.879  0.1373  0.0966 -0.3635
22694SOL    HW165579   5.743   8.779   4.794 -2.7128  1.4736 -0.7819
22694SOL    HW265580   5.788   8.687   4.921  2.7698  2.9635 -1.4918
22696SOL     OW65581   1.853   2.836   2.039 -0.3035  0.0853 -0.0686
22696SOL    HW165582   1.952   2.844   2.035 -0.1211 -1.8228  0.1769
22696SOL    HW265583   1.821   2.868   2.129  0.3378 -1.4014  0.7126
22697SOL     OW65584   9.481   8.778   1.160 -0.1055  0.3055  1.1878
22697SOL    HW165585   9.467   8.791   1.258  3.3026 -0.4278  1.8451
22697SOL    HW265586   9.515   8.686   1.143  0.1474  0.7083 -0.5947
22698SOL     OW65587   6.007   2.759   2.284  0.6821 -0.4806  0.4131
22698SOL    HW165588   5.914   2.789   2.306  0.3805 -1.6426  0.7362
22698SOL    HW265589   6.010   2.726   2.190  0.8310 -0.2085  0.3210
22700SOL     OW65590   1.317   5.735   6.234 -0.3694 -0.0243 -1.2051
22700SOL    HW165591   1.284   5.826   6.208 -0.2193  0.8122  1.3443
22700SOL    HW265592   1.390   5.706   6.172  0.6210  2.2581 -1.1271
22701SOL     OW65593   6.136   2.978   1.139  0.2396  0.2974 -0.1142
22701SOL    HW165594   6.064   2.918   1.174 -0.2288  1.5605  1.1396
22701SOL    HW265595   6.108   3.013   1.049  0.3642 -1.0560 -0.6987
22703SOL     OW65596   8.409   7.970   5.972  0.3455 -0.0558  0.2069
22703SOL    HW165597   8.437   7.875   5.960  0.7601  0.0476  0.3223
22703SOL    HW265598   8.368   8.005   5.888 -0.7411 -0.6439  0.4834
22704SOL     OW65599   4.163   9.730   2.483 -0.0956  0.1216 -0.2401
22704SOL    HW165600   4.176   9.829   2.477  1.5285 -0.1262 -1.1823
22704SOL    HW265601   4.187   9.699   2.575  1.8614  0.2860 -0.6632
22705SOL     OW65602   9.588   7.392   3.581 -0.1779 -0.2935 -0.0879
22705SOL    HW165603   9.643   7.475   3.570  0.8259 -0.9351 -0.0329
22705SOL    HW265604   9.507   7.412   3.636  0.4833  0.4647  0.6242
22706SOL     OW65605   6.116   2.799   0.066  0.1510 -0.4324  0.0446
22706SOL    HW165606   6.021   2.798   0.035 -0.0019  0.6558  0.4710
22706SOL    HW265607   6.164   2.719   0.028 -0.9087 -0.9591 -0.2147
22707SOL     OW65608   0.897   7.679   7.059  0.0250  0.5271 -0.1407
22707SOL    HW165609   0.941   7.678   6.970  0.3228 -1.3220  0.0175
22707SOL    HW265610   0.815   7.622   7.057  0.9484 -0.8629  1.2202
22708SOL     OW65611   2.060   3.608   7.373 -0.1278  0.3596  0.4902
22708SOL    HW165612   2.039   3.680   7.307 -0.2014 -0.3505 -0.2750
22708SOL    HW265613   1.975   3.562   7.400  0.3588 -2.8683 -3.0174
22709SOL     OW65614   9.314   7.267   2.581  0.2968  0.2204 -0.1729
22709SOL    HW165615   9.364   7.245   2.665 -1.0399  0.6108  0.7248
22709SOL    HW265616   9.274   7.358   2.589 -1.7850 -0.6673 -0.3051
22711SOL     OW65617   6.939   9.331   3.234 -0.0722  0.1338 -0.2848
22711SOL    HW165618   6.999   9.299   3.161  2.4725 -1.0912  2.2661
22711SOL    HW265619   6.884   9.255   3.268  0.1745  0.2489  0.3866
22713SOL     OW65620   8.146   6.475   6.877  0.2090 -0.0658 -0.0133
22713SOL    HW165621   8.102   6.414   6.943  0.7931 -0.4401  0.0263
22713SOL    HW265622   8.083   6.550   6.856 -1.1701 -1.5349 -1.2979
22715SOL     OW65623   8.994   2.223   1.253 -0.5462 -0.3089  0.5106
22715SOL    HW165624   9.039   2.288   1.191 -0.5053 -1.0514 -0.2484
22715SOL    HW265625   8.900   2.207   1.223 -0.5770 -0.5493  0.7327
22716SOL     OW65626   1.727   4.298   4.337  0.1080 -0.0163 -0.2528
22716SOL    HW165627   1.716   4.198   4.329  0.1962  0.1068 -2.1804
22716SOL    HW265628   1.824   4.320   4.346  0.2542  0.0181 -1.8956
22717SOL     OW65629   5.822   9.942   7.433 -0.4975 -0.5536 -0.3552
22717SOL    HW165630   5.794  10.038   7.430  1.0308 -0.1029 -0.9133
22717SOL    HW265631   5.773   9.895   7.507  0.3053  1.1831  1.3423
22720SOL     OW65632   4.347   6.793   2.494  0.2456 -0.0301 -0.1276
22720SOL    HW165633   4.335   6.765   2.589  0.0073 -0.7781 -0.3702
22720SOL    HW265634   4.444   6.804   2.474  0.2205  1.3679  0.5480
22721SOL     OW65635   0.488   2.398   4.130 -0.4522 -0.0558 -0.1978
22721SOL    HW165636   0.407   2.350   4.097 -1.0573  0.0493  1.0937
22721SOL    HW265637   0.568   2.340   4.118 -0.9237 -0.7144 -0.2408
22722SOL     OW65638   4.412   9.607   6.717 -0.0631 -0.1171  0.1566
22722SOL    HW165639   4.501   9.612   6.762  0.0785 -1.3712  0.0443
22722SOL    HW265640   4.344   9.571   6.780 -0.0131 -1.2158 -0.3957
22723SOL     OW65641   0.029   0.428   4.224  0.6773  0.6125 -0.0650
22723SOL    HW165642   0.126   0.440   4.243  0.2969  1.9698  1.0353
22723SOL    HW265643   0.003   0.484   4.145  1.0145 -0.6124 -1.0627
22724SOL     OW65644   3.531   5.433   7.301 -0.2509 -0.0607 -0.0111
22724SOL    HW165645   3.487   5.345   7.283  0.2803 -0.5012  0.8663
22724SOL    HW265646   3.502   5.467   7.390  1.0393 -0.2633  0.4906
22725SOL     OW65647   4.584  10.003   1.747  0.0563 -0.1648  0.0410
22725SOL    HW165648   4.497   9.979   1.789  1.1117 -0.9523  1.8290
22725SOL    HW265649   4.597   9.948   1.664 -0.8466 -0.5035  0.1188
22726SOL     OW65650   5.529   5.458   0.716  0.6228  0.0501  0.1876
22726SOL    HW165651   5.563   5.525   0.650 -0.4396  0.0649 -0.3547
22726SOL    HW265652   5.539   5.366   0.678 -0.9939  0.1286 -0.4636
22728SOL     OW65653   3.767   1.486   7.799  0.9463  0.0792  0.1657
22728SOL    HW165654   3.786   1.485   7.701  1.3455 -0.1510  0.2409
22728SOL    HW265655   3.672   1.461   7.815  1.2702 -1.3998 -0.0838
22729SOL     OW65656   7.791   7.063   6.341  0.0002 -0.9301 -0.0086
22729SOL    HW165657   7.708   7.028   6.383  0.1870 -0.2412  0.9530
22729SOL    HW265658   7.862   7.073   6.410  0.1928  0.5693 -0.4007
22730SOL     OW65659   9.177   8.881   5.793 -0.0622  0.3975 -0.4209
22730SOL    HW165660   9.209   8.971   5.823 -0.4794  0.0823  1.0038
22730SOL    HW265661   9.242   8.811   5.824  0.1955  0.2004 -1.4161
22733SOL     OW65662   6.207   4.770   7.897  0.0534 -0.7967 -0.1436
22733SOL    HW165663   6.120   4.730   7.927 -1.2251  0.2090 -2.3946
22733SOL    HW265664   6.276   4.699   7.891 -1.8578 -2.5158 -2.8741
22737SOL     OW65665   2.182   6.061   1.103  0.3980 -0.0779 -0.3537
22737SOL    HW165666   2.269   6.016   1.123 -0.2893 -1.1092  0.3155
22737SOL    HW265667   2.168   6.062   1.004  0.4988 -1.2050 -0.3908
22739SOL     OW65668   6.577   9.162   4.642  0.3590 -0.1720 -0.2919
22739SOL    HW165669   6.562   9.068   4.611 -1.2658  0.3995 -1.3128
22739SOL    HW265670   6.490   9.211   4.642  1.6020  2.1106 -2.3793
22740SOL     OW65671   8.316   3.052   4.281  0.3172 -0.0668 -0.1382
22740SOL    HW165672   8.362   3.137   4.256  0.0459 -0.3872 -1.7325
22740SOL    HW265673   8.293   3.000   4.199 -1.8387 -0.4803  0.7060
22741SOL     OW65674   8.212   6.928   0.420  0.3171 -0.1973  0.0970
22741SOL    HW165675   8.258   6.871   0.352 -0.6322 -1.3670  0.4103
22741SOL    HW265676   8.259   7.016   0.428  0.6213 -0.1664 -1.8510
22742SOL     OW65677   2.818   4.050   2.821 -0.6143  0.1828 -0.0491
22742SOL    HW165678   2.852   4.079   2.731 -0.3020 -1.2492 -0.3997
22742SOL    HW265679   2.727   4.089   2.836  0.0429  1.8504 -0.2414
22743SOL     OW65680   3.973   5.232   3.294 -0.0229  0.3140 -0.4185
22743SOL    HW165681   3.934   5.188   3.213  0.0539 -0.0596 -0.2545
22743SOL    HW265682   3.904   5.235   3.366 -0.2902  1.2120 -0.7042
22744SOL     OW65683   8.325   3.620   2.873 -0.2414  0.3197  0.3828
22744SOL    HW165684   8.332   3.601   2.970  1.5342 -0.2195  0.1670
22744SOL    HW265685   8.408   3.588   2.826 -0.1440  2.4478 -0.9945
22749SOL     OW65686   9.710   6.715   4.419  0.3463  0.5674  0.5698
22749SOL    HW165687   9.662   6.642   4.371  0.5746  0.2460  0.8303
22749SOL    HW265688   9.779   6.755   4.358 -0.5306  1.3202  0.0456
22751SOL     OW65689   7.895   2.306   3.748 -0.0802  0.3654 -0.2184
22751SOL    HW165690   7.880   2.249   3.828  1.0469  0.3472 -0.0036
22751SOL    HW265691   7.817   2.367   3.734  0.1866  1.1278  1.5314
22753SOL     OW65692   9.543   6.088   0.906 -0.0569  0.7181 -0.9028
22753SOL    HW165693   9.577   6.107   0.997  1.4201  1.7962 -1.6640
22753SOL    HW265694   9.549   5.990   0.888  2.2691  0.8258 -0.8554
22755SOL     OW65695   1.780   4.853   4.847 -0.3442 -0.0252  0.2733
22755SOL    HW165696   1.842   4.799   4.905 -0.8338 -0.5261  0.3360
22755SOL    HW265697   1.832   4.897   4.775 -0.3131 -2.9597 -1.5675
22758SOL     OW65698   2.933   1.548   0.154 -0.2045  0.2146 -0.4776
22758SOL    HW165699   2.877   1.629   0.166 -0.8032 -0.2263 -0.2601
22758SOL    HW265700   2.931   1.493   0.238 -1.1000 -0.8271 -1.1585
22759SOL     OW65701   4.158   0.751   3.726 -0.6691 -0.0265  0.0049
22759SOL    HW165702   4.226   0.762   3.655  0.8986  0.1420  1.4974
22759SOL    HW265703   4.141   0.654   3.742 -0.3718 -0.0778  0.0093
22760SOL     OW65704   0.159   0.494   3.617 -0.0169  0.2655  0.1837
22760SOL    HW165705   0.251   0.534   3.611  0.2957 -0.5069 -0.2244
22760SOL    HW265706   0.153   0.415   3.556 -0.8955  0.1956  0.3547
22761SOL     OW65707   3.224   4.719   1.930  0.1678  0.4252  0.5446
22761SOL    HW165708   3.253   4.796   1.986  0.2483  1.4986 -0.9413
22761SOL    HW265709   3.291   4.645   1.937  0.3527  0.6844  1.5672
22762SOL     OW65710   4.321   4.709   0.268 -0.5181  0.2354 -0.1776
22762SOL    HW165711   4.327   4.796   0.317 -0.3884 -0.3525  0.8713
22762SOL    HW265712   4.411   4.666   0.266 -0.9027 -0.6535  0.7815
22763SOL     OW65713   7.349   0.241   3.222  0.3886 -0.2356  0.3201
22763SOL    HW165714   7.317   0.332   3.196  2.1904  0.0247 -1.0829
22763SOL    HW265715   7.415   0.209   3.154  2.7495 -0.9175  2.8610
22764SOL     OW65716   7.392   0.523   4.814  0.8327 -0.4557 -0.2725
22764SOL    HW165717   7.293   0.517   4.831  0.6746  1.1181 -0.5957
22764SOL    HW265718   7.410   0.597   4.750  2.5081  1.2673  2.1261
22765SOL     OW65719   3.051   0.140   6.755 -0.5715 -0.3437 -0.3258
22765SOL    HW165720   3.116   0.089   6.698 -0.6787 -1.6328  0.7011
22765SOL    HW265721   2.958   0.115   6.730 -0.6023 -1.9124  1.3132
22766SOL     OW65722   7.657   8.264   3.953  0.0959  0.2599 -0.6515
22766SOL    HW165723   7.586   8.327   3.983 -0.1854 -0.0535 -0.6480
22766SOL    HW265724   7.661   8.263   3.853 -1.6843 -1.6337 -0.7582
22768SOL     OW65725   3.809   8.241   7.382  0.0389  0.3094 -0.6429
22768SOL    HW165726   3.790   8.166   7.318  0.1180  0.0468 -0.3618
22768SOL    HW265727   3.726   8.261   7.435  0.4247 -0.6075  0.3440
22769SOL     OW65728   2.346   6.435  10.083  0.0900  0.0964  0.4477
22769SOL    HW165729   2.446   6.430  10.088 -0.0094 -2.7891  0.5067
22769SOL    HW265730   2.318   6.459   9.990  0.7997 -2.6531 -0.5175
22771SOL     OW65731   1.408   7.244   0.304  0.5348 -0.7548 -0.0232
22771SOL    HW165732   1.362   7.192   0.232  1.1674  0.8481 -1.6291
22771SOL    HW265733   1.482   7.299   0.264 -0.9592  2.4202  1.3907
22773SOL     OW65734   5.765   9.276   5.559  0.2814 -0.0585 -0.1419
22773SOL    HW165735   5.694   9.338   5.592  1.9591  1.6190  0.4011
22773SOL    HW265736   5.785   9.296   5.463  2.3304  1.7279  0.6283
22774SOL     OW65737   8.004   0.978   0.593  0.1254 -0.2897 -0.0769
22774SOL    HW165738   7.908   0.973   0.566  0.3281  0.1062 -0.9049
22774SOL    HW265739   8.035   0.889   0.624 -0.8744 -0.1274  1.4998
22775SOL     OW65740   2.124   2.645   0.913  0.1911 -0.0184  0.8097
22775SOL    HW165741   2.072   2.639   0.828  0.2377  1.6735  0.6362
22775SOL    HW265742   2.085   2.582   0.980 -1.6435  0.6730  0.4471
22776SOL     OW65743   8.279   6.642   4.486 -0.1486  0.1674  0.0996
22776SOL    HW165744   8.345   6.696   4.434  1.3640 -1.0942  0.6674
22776SOL    HW265745   8.260   6.557   4.438 -0.1145 -0.1944  0.7198
22777SOL     OW65746   2.171   1.850   0.058 -0.4419  0.0258 -0.0670
22777SOL    HW165747   2.267   1.869   0.080 -0.2149  0.8406 -1.6809
22777SOL    HW265748   2.126   1.809   0.138  0.6093  1.9037  1.5276
22778SOL     OW65749   9.282   8.034   5.285 -0.0104 -0.1045  0.1852
22778SOL    HW165750   9.265   8.032   5.187  1.0746  0.5770 -0.0295
22778SOL    HW265751   9.266   7.943   5.324 -3.4695  0.3431 -0.0730
22779SOL     OW65752   8.094   9.079   2.177  0.0546 -0.2557 -0.4599
22779SOL    HW165753   8.137   9.011   2.236  0.3039  0.9607  0.7858
22779SOL    HW265754   8.053   9.033   2.098  1.7268 -1.6616 -0.5472
22780SOL     OW65755   3.597   6.625   1.167  0.4591 -0.8144 -0.0321
22780SOL    HW165756   3.560   6.717   1.160  1.4186 -0.4825 -0.8106
22780SOL    HW265757   3.658   6.619   1.247 -1.0683 -1.2949  1.1104
22781SOL     OW65758   8.213   9.604   5.142  0.4966 -0.3174  0.1785
22781SOL    HW165759   8.172   9.586   5.231 -1.5812 -1.4557 -0.9660
22781SOL    HW265760   8.191   9.698   5.114 -1.1943 -0.8295 -0.3066
22782SOL     OW65761   2.744   2.212   2.114 -1.1057 -0.2337 -0.5419
22782SOL    HW165762   2.758   2.262   2.028 -2.0092 -2.1499 -1.8524
22782SOL    HW265763   2.689   2.267   2.176  1.3408  2.0799 -0.2982
22783SOL     OW65764   5.705   3.624   2.227  0.1358 -1.1565  0.3099
22783SOL    HW165765   5.799   3.592   2.215 -0.2819 -2.2052 -0.2526
22783SOL    HW265766   5.647   3.586   2.154 -0.5994 -0.0077  0.2793
22784SOL     OW65767   7.858   6.796   7.041 -0.3175  0.6107 -0.3207
22784SOL    HW165768   7.922   6.813   7.116  0.4434 -0.3024 -0.7614
22784SOL    HW265769   7.824   6.884   7.006 -0.8002  1.0320  1.1889
22785SOL     OW65770   5.619   8.642   6.817  0.2136 -0.0282 -0.3135
22785SOL    HW165771   5.597   8.545   6.833  0.6403 -0.3412 -1.5969
22785SOL    HW265772   5.715   8.658   6.839 -0.2553  0.4704  1.4520
22786SOL     OW65773   3.116   8.458   1.796  0.1585 -0.4894 -0.7485
22786SOL    HW165774   3.115   8.390   1.722  1.3950 -2.2745  0.8344
22786SOL    HW265775   3.071   8.420   1.877 -0.3771  1.1171 -0.2708
22787SOL     OW65776   4.264   2.588   5.714  0.0080 -0.3772 -0.4215
22787SOL    HW165777   4.279   2.563   5.618  1.4411 -2.2817  0.2647
22787SOL    HW265778   4.300   2.516   5.773 -2.5293 -0.1089  1.5317
22788SOL     OW65779   2.886   3.176   0.623  0.1672  0.2948  0.1083
22788SOL    HW165780   2.921   3.268   0.640  1.1268  0.0964 -0.7629
22788SOL    HW265781   2.943   3.110   0.671 -0.7135  0.1685  0.9984
22789SOL     OW65782   1.022   8.267   0.197 -0.6467 -0.0312  0.2143
22789SOL    HW165783   1.091   8.325   0.241 -1.5621  0.3364  1.1907
22789SOL    HW265784   1.067   8.193   0.148  0.4742  0.5932  0.2891
22790SOL     OW65785   8.548   3.051   6.314  0.0561  0.6263 -0.4549
22790SOL    HW165786   8.468   2.997   6.290  0.1381  0.2518  0.1264
22790SOL    HW265787   8.539   3.143   6.275  0.6503 -0.2734 -2.7903
22793SOL     OW65788   3.546   5.841   2.965  0.0827  0.0624  0.8291
22793SOL    HW165789   3.645   5.835   2.959  0.1014 -0.7353  1.8611
22793SOL    HW265790   3.521   5.901   3.041 -0.2348 -1.1970  1.7227
22794SOL     OW65791   4.910   9.288   0.921  0.1014 -0.1368  0.0955
22794SOL    HW165792   4.883   9.258   0.829 -1.2704  1.6392 -0.1009
22794SOL    HW265793   4.834   9.337   0.964  1.5823  1.2023  1.2304
22795SOL     OW65794   7.915   7.949   5.540 -0.3938  0.2770  0.1268
22795SOL    HW165795   7.847   8.021   5.555  0.0068  0.5442  0.6363
22795SOL    HW265796   8.005   7.990   5.526 -0.2609 -0.0994 -0.1311
22798SOL     OW65797   2.143   1.910   4.080  0.0140  0.1927 -0.3388
22798SOL    HW165798   2.139   1.874   4.173  0.3440  0.5705 -0.1743
22798SOL    HW265799   2.217   1.977   4.074 -1.1447  1.4916 -0.4125
22799SOL     OW65800   3.675   2.485   4.702  0.5336  0.3165 -0.2164
22799SOL    HW165801   3.743   2.424   4.742  1.4212  0.5323 -1.4067
22799SOL    HW265802   3.653   2.557   4.768  1.8578  0.5651 -0.0412
22801SOL     OW65803   4.192   6.804   5.134 -0.6292 -0.2985 -0.0839
22801SOL    HW165804   4.147   6.802   5.223  0.3967 -1.6695  0.4252
22801SOL    HW265805   4.285   6.768   5.143 -0.0946  0.6775 -1.4800
22802SOL     OW65806   5.765   8.937   1.691 -0.1523  0.5656 -0.4006
22802SOL    HW165807   5.685   8.915   1.746  0.5974 -0.9362  0.1281
22802SOL    HW265808   5.745   9.014   1.630 -1.9090  0.3226 -0.1321
22803SOL     OW65809   3.732   9.387   7.179  0.0506 -0.8399  0.1514
22803SOL    HW165810   3.792   9.459   7.212  0.2233 -0.3573 -1.2109
22803SOL    HW265811   3.750   9.303   7.230  0.0880 -0.0223  1.5053
22804SOL     OW65812   3.904   3.414   0.073 -0.7113 -0.1132  0.1261
22804SOL    HW165813   3.962   3.495   0.069 -0.2759 -0.4368 -0.2215
22804SOL    HW265814   3.895   3.383   0.168  0.0950 -0.3533  0.1273
22805SOL     OW65815   6.918   7.487   4.947 -0.3662 -0.2004  0.5640
22805SOL    HW165816   6.851   7.558   4.929 -0.4835 -0.3837  0.2729
22805SOL    HW265817   6.917   7.420   4.873 -0.2088 -0.4701  0.8015
22806SOL     OW65818   3.381   1.829   2.398  0.5775  0.0218 -0.1097
22806SOL    HW165819   3.446   1.855   2.470 -0.9589  0.1021  1.2839
22806SOL    HW265820   3.346   1.737   2.416 -1.4849  0.9095  0.4795
22807SOL     OW65821   8.825   5.352   2.704 -0.3537  0.4459 -0.0470
22807SOL    HW165822   8.770   5.378   2.783  0.1515  2.1941 -0.2612
22807SOL    HW265823   8.921   5.341   2.732 -0.3639 -0.0535 -0.1989
22808SOL     OW65824   7.098   6.801   6.627 -0.0875 -0.0101 -1.0165
22808SOL    HW165825   7.059   6.749   6.703  1.7036 -0.3703 -0.3242
22808SOL    HW265826   7.067   6.896   6.632 -0.3807 -0.1509 -0.1183
22809SOL     OW65827   5.677   5.175   7.624 -0.7009  0.1137  0.3623
22809SOL    HW165828   5.584   5.145   7.644 -1.0465  1.8259  1.3444
22809SOL    HW265829   5.735   5.159   7.705 -0.4587  0.3887  0.2418
22810SOL     OW65830   7.280   5.111   0.970 -0.3131  0.4924  0.0443
22810SOL    HW165831   7.212   5.046   0.936 -0.0795 -0.7999  1.9735
22810SOL    HW265832   7.353   5.121   0.903 -1.2089  0.1002 -1.0101
22811SOL     OW65833   1.668   6.663   3.671 -0.0615 -0.5175  0.1045
22811SOL    HW165834   1.672   6.615   3.759 -0.2831 -1.8701 -0.6165
22811SOL    HW265835   1.642   6.759   3.687  1.2842 -0.3797  1.6365
22814SOL     OW65836   5.381   7.440   4.698  0.2416 -0.0878  0.5709
22814SOL    HW165837   5.448   7.436   4.772  0.6396 -2.3278  0.1174
22814SOL    HW265838   5.299   7.390   4.725  0.7814 -1.8044 -0.8710
22815SOL     OW65839   8.969   5.616   4.074 -0.6490 -0.2100  0.0580
22815SOL    HW165840   8.884   5.572   4.046  0.1866 -1.3445 -0.7396
22815SOL    HW265841   8.957   5.715   4.071 -1.5822 -0.3440 -1.1774
22816SOL     OW65842   7.543   7.339   1.856 -0.5194 -0.7466 -0.2081
22816SOL    HW165843   7.470   7.332   1.788 -0.9075  1.8954 -0.0904
22816SOL    HW265844   7.507   7.313   1.946 -1.5563  1.3494 -0.0007
22817SOL     OW65845   4.212   6.578   2.396  0.3325 -0.5861  0.0118
22817SOL    HW165846   4.263   6.655   2.436 -0.9738 -0.0176  0.6180
22817SOL    HW265847   4.217   6.583   2.296  2.1222 -1.0003  0.0536
22818SOL     OW65848   7.900   7.755   5.737 -0.1751 -0.5141 -0.2467
22818SOL    HW165849   7.898   7.824   5.665 -0.2276 -1.5615 -1.2679
22818SOL    HW265850   7.930   7.797   5.823 -0.4793  0.8245 -0.7831
22819SOL     OW65851   1.096   8.630   6.286  0.2080  0.4523  0.2889
22819SOL    HW165852   1.098   8.567   6.363 -1.5383 -0.4542 -0.3947
22819SOL    HW265853   1.167   8.604   6.220 -0.2981 -0.6013  0.1586
22820SOL     OW65854   7.526   0.560   2.987  0.1351  0.2850 -0.2091
22820SOL    HW165855   7.440   0.603   2.960 -0.6743 -1.0709  0.1693
22820SOL    HW265856   7.510   0.463   3.008  1.2880  0.5796  2.1985
22821SOL     OW65857   2.649   4.308   6.342 -0.0551 -0.1134 -0.3433
22821SOL    HW165858   2.627   4.383   6.279 -2.0870  0.6481  1.2198
22821SOL    HW265859   2.680   4.345   6.429  1.5674 -1.1560 -0.4460
22822SOL     OW65860   3.294   4.323   1.557 -0.2032 -0.1196  0.8560
22822SOL    HW165861   3.341   4.238   1.582  1.8943  0.8928  0.4435
22822SOL    HW265862   3.195   4.308   1.559  0.1262 -2.4055  1.3615
22823SOL     OW65863   9.966   5.088   7.534  0.2098  0.1610 -0.3396
22823SOL    HW165864  10.031   5.156   7.567  0.2265 -0.3555  0.6939
22823SOL    HW265865   9.926   5.039   7.611 -1.4717  0.5162 -0.9528
22824SOL     OW65866   9.642   6.897   7.278 -0.0859 -0.2851  0.0941
22824SOL    HW165867   9.693   6.897   7.364  1.1536 -0.0606 -0.6242
22824SOL    HW265868   9.546   6.917   7.296  0.2237  0.0860  1.3895
22826SOL     OW65869   3.099   2.415   5.576 -0.0185 -0.0771 -0.1877
22826SOL    HW165870   3.141   2.399   5.665 -1.0423 -0.9556  0.1447
22826SOL    HW265871   3.125   2.506   5.543 -1.9388  1.4550  2.3461
22827SOL     OW65872   6.871   5.051   6.762  0.0440  0.2433 -0.0398
22827SOL    HW165873   6.799   5.006   6.816  0.1850  0.4769  0.3391
22827SOL    HW265874   6.853   5.035   6.664  1.4570 -2.7856  0.1319
22828SOL     OW65875   3.407   7.489   1.977 -0.8932  0.3373  0.0229
22828SOL    HW165876   3.450   7.409   2.018 -0.4693  0.1720 -0.7299
22828SOL    HW265877   3.388   7.471   1.881 -1.1620  0.9979 -0.0538
22829SOL     OW65878   0.872   3.703   3.457 -0.1649 -0.6718 -0.4357
22829SOL    HW165879   0.896   3.647   3.537  1.8144 -0.4270 -0.8398
22829SOL    HW265880   0.808   3.775   3.485  2.0506  0.6626  1.3628
22830SOL     OW65881   1.941   9.961   2.289 -0.1038 -0.1869  0.4441
22830SOL    HW165882   1.949   9.932   2.194 -0.8849  0.0562  0.3038
22830SOL    HW265883   1.915   9.882   2.346  0.5883 -0.3797  0.4910
22831SOL     OW65884   5.853   3.551   1.273  0.5895  0.8448 -0.8317
22831SOL    HW165885   5.853   3.467   1.328  0.0520 -0.6443 -3.0458
22831SOL    HW265886   5.930   3.609   1.301 -0.6513  0.9574  2.6421
22832SOL     OW65887   3.767   3.813   2.852  0.0193  0.0082  0.0304
22832SOL    HW165888   3.731   3.904   2.871 -0.3411 -0.3453  1.0740
22832SOL    HW265889   3.699   3.744   2.878  1.1911 -0.6399  1.4498
22833SOL     OW65890   4.084   0.881   6.495  0.1116  0.1237 -0.1725
22833SOL    HW165891   4.091   0.981   6.504 -1.4805  0.3836 -1.7474
22833SOL    HW265892   3.996   0.851   6.531  0.6591 -0.7642  0.4553
22834SOL     OW65893   9.870   5.198   1.125  0.3453  0.5605  0.0390
22834SOL    HW165894   9.901   5.106   1.150  0.7354  0.9020  0.8376
22834SOL    HW265895   9.848   5.200   1.027 -1.7230 -0.9285  0.4458
22835SOL     OW65896   1.450   9.594   2.659 -0.5874  0.4393  0.0509
22835SOL    HW165897   1.476   9.617   2.752 -0.6476 -0.1339  0.2065
22835SOL    HW265898   1.503   9.515   2.627 -0.3602  0.8083 -0.4958
22836SOL     OW65899   5.472   2.827   1.114  0.0978 -0.1996 -0.5952
22836SOL    HW165900   5.564   2.791   1.102  0.6479  1.0865 -0.3829
22836SOL    HW265901   5.441   2.808   1.207  0.9961  1.1942  0.0088
22837SOL     OW65902   8.291   2.021   7.030  0.3929 -0.1985 -0.4406
22837SOL    HW165903   8.314   1.993   6.936  0.6097 -0.3286 -0.3495
22837SOL    HW265904   8.291   2.121   7.035  1.6368 -0.1939 -0.2778
22838SOL     OW65905   2.290   1.966   3.352 -0.1311 -0.3640 -0.1674
22838SOL    HW165906   2.299   1.969   3.452  1.1734  0.3961 -0.2952
22838SOL    HW265907   2.340   1.887   3.316  1.1606  0.5378 -0.3843
22839SOL     OW65908   1.485   6.395   0.462 -0.7243 -0.2203  0.4893
22839SOL    HW165909   1.551   6.334   0.419  0.2696  1.6326 -0.6630
22839SOL    HW265910   1.394   6.352   0.461 -0.3149 -1.1010 -1.5382
22840SOL     OW65911   8.129   2.153   0.879 -0.8202  0.0354  1.0852
22840SOL    HW165912   8.049   2.178   0.934 -0.7185  0.8357  0.8674
22840SOL    HW265913   8.153   2.228   0.818 -0.0248 -0.2829  0.9973
22841SOL     OW65914   2.101   1.628   1.886  0.5260  0.1873  0.4784
22841SOL    HW165915   2.033   1.574   1.936  0.0955  1.0029  0.7854
22841SOL    HW265916   2.063   1.655   1.798  1.9864 -2.8707 -1.1298
22842SOL     OW65917   0.927   3.531   2.837  0.0656 -0.3822  0.3501
22842SOL    HW165918   0.904   3.626   2.817  0.8141 -0.2413  0.1350
22842SOL    HW265919   0.888   3.505   2.925  0.1699  0.2429  0.5872
22843SOL     OW65920   3.412   0.140   5.432 -0.0993  0.8136 -0.8103
22843SOL    HW165921   3.451   0.053   5.463  1.0089  1.9389  1.0686
22843SOL    HW265922   3.316   0.145   5.457  0.6656  1.5105  2.1815
22844SOL     OW65923   8.570   6.275   3.132 -0.4566  0.4880 -0.4229
22844SOL    HW165924   8.640   6.208   3.109 -1.4172 -0.1662 -1.5048
22844SOL    HW265925   8.516   6.242   3.209 -0.6752  0.2076 -0.6980
22845SOL     OW65926   8.484   5.930   6.247 -0.4668  0.3435 -0.3179
22845SOL    HW165927   8.515   6.020   6.278  2.2608 -0.3902 -0.7982
22845SOL    HW265928   8.451   5.936   6.153 -0.1563  0.8195 -0.3963
22846SOL     OW65929   2.665   3.620   1.280  0.3931 -0.0899 -0.1402
22846SOL    HW165930   2.675   3.703   1.336  0.0591  0.2751 -0.6147
22846SOL    HW265931   2.570   3.591   1.280  0.6764 -1.0486  0.8260
22847SOL     OW65932   2.195   6.804   4.967 -0.0960 -0.3516  0.3574
22847SOL    HW165933   2.238   6.890   4.995 -0.4958 -0.4168  1.1857
22847SOL    HW265934   2.154   6.815   4.877 -1.7679  0.9045  1.2336
22848SOL     OW65935   3.829   9.803   4.002  0.6571 -0.1551  0.6303
22848SOL    HW165936   3.748   9.768   3.957  1.2902 -0.8460  0.0101
22848SOL    HW265937   3.853   9.744   4.080  0.1496  0.4600  1.2578
22849SOL     OW65938   9.483   0.019   4.456 -0.4791  0.7055  0.6083
22849SOL    HW165939   9.580   0.044   4.455 -0.5369  0.9142 -0.2328
22849SOL    HW265940   9.468  -0.053   4.524  0.7913 -1.4148 -1.3102
22850SOL     OW65941   8.566   1.051   6.683 -0.1033 -0.1890  0.1476
22850SOL    HW165942   8.474   1.052   6.644 -0.5165 -1.9901  1.0261
22850SOL    HW265943   8.633   1.057   6.610 -0.8992  2.5521 -0.4228
22851SOL     OW65944   4.277   9.003   5.561  0.1945 -0.7473 -0.4522
22851SOL    HW165945   4.277   8.933   5.490  0.0372 -1.6009  0.3819
22851SOL    HW265946   4.202   8.986   5.625 -0.1551  0.4730 -0.5196
22852SOL     OW65947   0.618   3.326   7.312  0.4710  0.1598  0.2722
22852SOL    HW165948   0.542   3.379   7.275  0.1882 -0.4075  0.0230
22852SOL    HW265949   0.687   3.312   7.241 -0.1634 -1.0979 -0.1086
22853SOL     OW65950   7.963   2.257   0.353  0.2633 -0.3919 -0.3891
22853SOL    HW165951   7.880   2.218   0.313  0.4456 -2.4469  1.1700
22853SOL    HW265952   7.964   2.239   0.451  1.6077  1.3745 -0.0524
22854SOL     OW65953   7.814   7.319   6.861  0.1568 -0.2299 -0.5096
22854SOL    HW165954   7.866   7.381   6.801  0.8939  1.0276  1.3776
22854SOL    HW265955   7.789   7.367   6.945 -0.9544 -1.9333  0.1605
22855SOL     OW65956   6.432   8.147   3.520  0.1951  0.2538 -0.8150
22855SOL    HW165957   6.518   8.158   3.571  0.3314  0.4104 -1.0774
22855SOL    HW265958   6.355   8.173   3.578  0.3564  0.5260 -0.7216
22856SOL     OW65959   5.463   8.247   7.273  0.1572 -0.1547 -0.0284
22856SOL    HW165960   5.426   8.189   7.200 -0.6855  1.6800 -1.0827
22856SOL    HW265961   5.390   8.268   7.338  0.8046 -1.4323  1.1198
22857SOL     OW65962   9.300   6.674   4.515 -0.2467 -0.3335 -0.0496
22857SOL    HW165963   9.225   6.740   4.509 -0.3211 -0.3647  0.4679
22857SOL    HW265964   9.360   6.700   4.592 -0.0110 -0.5978 -0.1457
22858SOL     OW65965   3.516   4.814   0.386 -0.3673  0.5388 -0.3526
22858SOL    HW165966   3.492   4.878   0.459  0.5997 -0.3234  0.7379
22858SOL    HW265967   3.596   4.849   0.336  0.3070  0.0808  0.3945
22859SOL     OW65968   0.794   3.658   4.473 -0.2485 -0.5764 -0.1460
22859SOL    HW165969   0.871   3.659   4.408 -0.9057 -0.0631 -0.9229
22859SOL    HW265970   0.824   3.618   4.559  0.8452 -0.5620 -0.5123
22860SOL     OW65971   6.472   3.873   2.836  0.2733 -0.0155  0.3483
22860SOL    HW165972   6.380   3.835   2.823  0.7823 -0.9045 -0.8047
22860SOL    HW265973   6.537   3.798   2.847  0.8493  0.6121  1.2881
22863SOL     OW65974   0.012   3.459   6.768  0.1741  0.7458  0.6492
22863SOL    HW165975   0.080   3.532   6.760  0.3647  0.8407  2.7950
22863SOL    HW265976  -0.062   3.475   6.703  0.8399  2.1671  0.2283
22864SOL     OW65977   0.333   6.454   2.617 -0.1619  0.1857 -0.2490
22864SOL    HW165978   0.392   6.395   2.562  0.4727 -0.1450  0.7723
22864SOL    HW265979   0.270   6.503   2.557 -0.2219 -0.9983 -1.1649
22865SOL     OW65980   4.707   2.784   2.044  0.0743  0.5611  0.3779
22865SOL    HW165981   4.647   2.751   1.970  0.1622 -0.7609  0.8801
22865SOL    HW265982   4.717   2.713   2.113  0.4438  1.5926  1.4030
22867SOL     OW65983   0.647   5.905   3.951  0.1362 -0.2086  0.4272
22867SOL    HW165984   0.652   5.865   3.860 -2.6346  1.1122 -0.3451
22867SOL    HW265985   0.678   5.839   4.019  0.3510 -1.8719 -1.2659
22868SOL     OW65986   4.863   5.018   7.413 -0.0222 -0.1733  0.1447
22868SOL    HW165987   4.839   5.037   7.318  0.7223 -0.1053 -0.0317
22868SOL    HW265988   4.875   5.104   7.463  1.9466 -0.1855 -0.2993
22869SOL     OW65989   4.595   8.648   2.709  0.0355  0.1412  0.0436
22869SOL    HW165990   4.686   8.652   2.750  0.9804 -0.4621 -1.9348
22869SOL    HW265991   4.548   8.736   2.722  1.7424  1.1969 -0.8030
22871SOL     OW65992   1.504   1.440   3.624 -0.2663  0.2140 -0.4701
22871SOL    HW165993   1.487   1.427   3.526  0.3566  2.1517 -0.8625
22871SOL    HW265994   1.520   1.352   3.667  1.0026 -0.5481 -2.4401
22872SOL     OW65995   3.259   6.031   5.774 -0.3196  0.0780  0.0150
22872SOL    HW165996   3.203   6.099   5.821 -1.5903 -0.0906 -1.2219
22872SOL    HW265997   3.306   6.074   5.697 -1.9157 -0.6294 -1.3834
22873SOL     OW65998   0.571   2.318   6.622  0.1679  0.1436  0.5228
22873SOL    HW165999   0.561   2.306   6.721  3.4137 -0.0394  0.9096
22873SOL    HW266000   0.664   2.292   6.596 -0.4580  0.8336 -2.4918
22876SOL     OW66001   2.731   0.961   2.065  0.7232  0.2057  0.6124
22876SOL    HW166002   2.802   0.976   1.996  1.7828  1.4238  1.9351
22876SOL    HW266003   2.662   1.032   2.057  0.3563 -0.1966  0.2011
22877SOL     OW66004   4.278   8.226   0.129 -0.4085 -0.5747  0.9811
22877SOL    HW166005   4.256   8.131   0.152 -0.7859 -0.6654  0.2610
22877SOL    HW266006   4.207   8.286   0.164 -2.0568 -0.8969 -1.6324
22879SOL     OW66007   5.313   0.002   6.561 -0.1592  0.7574  0.0684
22879SOL    HW166008   5.394   0.043   6.518  0.7589 -1.4486 -0.3919
22879SOL    HW266009   5.342  -0.056   6.637 -1.2431 -0.5074 -0.4523
22880SOL     OW66010   3.580   3.843   7.172  0.1157  0.5584  0.2756
22880SOL    HW166011   3.570   3.767   7.235 -0.5778  1.3765  1.1545
22880SOL    HW266012   3.528   3.825   7.089  0.3409 -0.1348  0.2848
22881SOL     OW66013   3.990   1.676   7.710  0.4812  0.0412  0.2352
22881SOL    HW166014   4.067   1.650   7.768  2.3335 -0.0572 -2.2244
22881SOL    HW266015   3.976   1.606   7.640 -1.3587  0.4569  0.1557
22882SOL     OW66016   8.022   7.702   6.076  0.0849 -0.0812 -0.2563
22882SOL    HW166017   8.000   7.761   6.153  0.8640  1.1469 -0.9627
22882SOL    HW266018   8.115   7.666   6.086  0.1673  0.0384 -0.6047
22883SOL     OW66019   3.715   8.838   6.036 -0.0299 -0.5512 -0.2304
22883SOL    HW166020   3.627   8.790   6.043 -0.1922 -0.1831  0.3186
22883SOL    HW266021   3.698   8.936   6.025  0.3116 -0.4717 -0.0652
22884SOL     OW66022   9.611   0.342   1.467  0.4556  0.4395  1.1189
22884SOL    HW166023   9.512   0.335   1.453  0.6291  1.0391 -0.5945
22884SOL    HW266024   9.630   0.395   1.549 -0.6427  1.7896  0.5093
22885SOL     OW66025   9.629   2.470   0.559 -0.3060 -0.3840 -0.1300
22885SOL    HW166026   9.569   2.433   0.630  0.2174 -1.3323 -0.1741
22885SOL    HW266027   9.573   2.510   0.486 -0.8472  0.5501  0.7762
22886SOL     OW66028   4.513   1.077   3.739  0.4831 -0.0128  0.1700
22886SOL    HW166029   4.471   1.128   3.814 -1.3709 -0.5984 -0.4491
22886SOL    HW266030   4.532   0.983   3.769  0.0516 -0.1490  0.0264
22887SOL     OW66031   7.260   9.871   7.587  0.1101  0.1420  0.5614
22887SOL    HW166032   7.263   9.784   7.537  1.2888  0.0479  0.7883
22887SOL    HW266033   7.196   9.863   7.663  0.0933 -0.4680  0.4843
22888SOL     OW66034   9.945   3.920   4.780  0.4058 -0.0638  0.2790
22888SOL    HW166035   9.986   4.008   4.756  1.9151 -0.7156  0.4010
22888SOL    HW266036  10.015   3.848   4.773 -0.6742 -1.1649  0.7033
22889SOL     OW66037   8.627   4.571   1.148 -0.7720 -0.0059  0.4120
22889SOL    HW166038   8.671   4.557   1.059 -2.9145  0.5476 -0.7594
22889SOL    HW266039   8.616   4.669   1.164 -0.3878 -0.1083  1.2884
22890SOL     OW66040   6.789   5.237   2.677 -0.1813  0.1053 -0.2642
22890SOL    HW166041   6.790   5.312   2.611 -0.4334  0.8450  0.5521
22890SOL    HW266042   6.702   5.189   2.672 -0.0025 -0.1575 -0.8197
22891SOL     OW66043   9.658   7.136   3.520  0.4924  0.1661  0.2109
22891SOL    HW166044   9.684   7.096   3.608 -2.3036  1.5399  1.6904
22891SOL    HW266045   9.613   7.224   3.535 -0.3623  0.2386 -2.5799
22892SOL     OW66046   1.589   9.935   2.574 -0.0705  0.4006  0.1918
22892SOL    HW166047   1.529   9.942   2.653  1.0941 -0.6362  1.1922
22892SOL    HW266048   1.625  10.026   2.551 -0.3605  0.6959  0.8914
22893SOL     OW66049   2.125   0.647   3.792 -0.9690  0.2792 -0.1007
22893SOL    HW166050   2.037   0.607   3.767 -0.8260  1.1451 -2.1349
22893SOL    HW266051   2.131   0.740   3.757  1.5779 -0.5024 -1.9801
22894SOL     OW66052   1.228   2.130   1.164  0.4602  0.6291  0.1422
22894SOL    HW166053   1.266   2.073   1.237  1.0165  0.1661 -0.4987
22894SOL    HW266054   1.145   2.175   1.196  0.3359 -0.0971  0.8469
22895SOL     OW66055   7.528   4.496   5.433 -0.5299  0.0008  0.0616
22895SOL    HW166056   7.584   4.543   5.364 -0.2477  0.2676  0.4727
22895SOL    HW266057   7.554   4.399   5.436 -0.0145  0.1431  0.3194
22896SOL     OW66058   5.264   7.755   5.073 -0.8409  0.8599 -0.3595
22896SOL    HW166059   5.258   7.855   5.078 -0.8746  0.7648  2.0229
22896SOL    HW266060   5.172   7.716   5.071 -0.8763  0.9223 -3.8937
22897SOL     OW66061   7.078   2.554   3.565  0.3212  0.0030  0.5294
22897SOL    HW166062   7.076   2.654   3.574  0.1216  0.0995 -0.5001
22897SOL    HW266063   7.000   2.524   3.511 -0.2162 -0.8216  1.7663
22898SOL     OW66064   9.212   3.200   3.146 -0.1642  0.0012  0.2348
22898SOL    HW166065   9.310   3.203   3.126 -0.6599 -0.3035 -2.4042
22898SOL    HW266066   9.198   3.167   3.240  2.2092 -1.5840  0.0655
22901SOL     OW66067   1.204   9.581   1.453 -0.2220  0.7038 -0.2983
22901SOL    HW166068   1.126   9.520   1.439 -1.1472  1.7994 -0.0567
22901SOL    HW266069   1.204   9.613   1.548  0.0004  1.4125 -0.5344
22902SOL     OW66070   7.441   4.032   2.683  0.0055 -0.0328  0.0968
22902SOL    HW166071   7.403   3.959   2.740 -2.6201  0.6747 -0.6865
22902SOL    HW266072   7.434   4.119   2.732  0.0326  0.2069 -0.3219
22903SOL     OW66073   7.593   7.556   6.815  0.4103 -0.6840 -0.1242
22903SOL    HW166074   7.505   7.509   6.810  0.6800 -1.1897 -0.0842
22903SOL    HW266075   7.646   7.520   6.892  1.0128 -0.9934 -0.6764
22904SOL     OW66076   3.730   7.018   4.560  0.2428  0.2489 -0.0176
22904SOL    HW166077   3.633   7.039   4.572  0.2668 -0.5128  1.7700
22904SOL    HW266078   3.747   6.993   4.465 -0.8716  2.5409 -0.8546
22906SOL     OW66079   7.589   6.454   7.829 -0.1434 -0.6432 -0.5238
22906SOL    HW166080   7.668   6.501   7.867 -0.0407 -1.7205  0.6247
22906SOL    HW266081   7.602   6.440   7.730 -0.9619  3.2967 -1.3036
22907SOL     OW66082   7.833   2.246   5.378  0.5767  0.1660  0.0056
22907SOL    HW166083   7.897   2.268   5.452  0.5546  1.0397 -0.2303
22907SOL    HW266084   7.867   2.285   5.292  0.8591 -1.2768 -0.5452
22908SOL     OW66085   8.885   2.876   3.737  0.4486 -0.0810  0.0042
22908SOL    HW166086   8.804   2.870   3.679  1.2539 -0.7013 -1.0861
22908SOL    HW266087   8.928   2.965   3.724  0.5299 -0.1535 -0.2381
22909SOL     OW66088   0.551   6.058   4.487  0.1123  0.5318  0.2190
22909SOL    HW166089   0.487   5.996   4.533  0.1894 -0.2496 -0.7295
22909SOL    HW266090   0.547   6.043   4.388  1.5547  0.6962  0.1326
22910SOL     OW66091   9.327   4.865   1.309  0.2754  0.2233 -0.0854
22910SOL    HW166092   9.290   4.952   1.278  0.5662 -0.2344 -1.7268
22910SOL    HW266093   9.304   4.793   1.244  2.5530 -0.3908 -0.2601
22911SOL     OW66094   0.875   8.732   6.661  0.3264  0.6448 -0.2122
22911SOL    HW166095   0.899   8.704   6.754 -0.6829  0.3072 -0.0404
22911SOL    HW266096   0.841   8.826   6.662  0.7229  0.7888 -0.3032
22912SOL     OW66097   2.373   4.066   4.881 -0.0425 -0.5706  0.6634
22912SOL    HW166098   2.426   4.120   4.947  0.3398 -0.6415  0.4172
22912SOL    HW266099   2.310   4.006   4.930 -0.1394 -0.2355  0.9506
22913SOL     OW66100   8.914   7.453   7.525  0.2816  0.2233  0.2251
22913SOL    HW166101   8.854   7.473   7.447  0.4871 -0.7817 -0.1957
22913SOL    HW266102   9.004   7.427   7.492  0.6600  0.7265  0.8351
22914SOL     OW66103   6.694   5.695   7.636  0.4416 -0.2818  0.3127
22914SOL    HW166104   6.604   5.710   7.596 -0.0919  1.5135  2.1603
22914SOL    HW266105   6.762   5.690   7.562 -0.8376  0.6298 -0.9535
22915SOL     OW66106   7.560   5.288   3.660 -0.2240 -0.2253 -0.0020
22915SOL    HW166107   7.647   5.338   3.663 -0.6240  0.5828 -1.4961
22915SOL    HW266108   7.484   5.351   3.674 -0.5763 -0.9490  1.4162
22916SOL     OW66109   8.264   7.782   6.628  0.0646  0.1088  0.1016
22916SOL    HW166110   8.237   7.858   6.568  0.1015 -1.7531 -2.3424
22916SOL    HW266111   8.213   7.700   6.603 -0.6279 -0.5079  3.3086
22917SOL     OW66112   8.343   8.858   7.068 -0.1976 -0.1903 -0.1225
22917SOL    HW166113   8.247   8.851   7.041 -0.7025  1.9183  0.9897
22917SOL    HW266114   8.392   8.775   7.041 -2.0553 -0.7748 -1.8086
22918SOL     OW66115   3.468   9.898   5.823  0.1325 -0.2370  0.1839
22918SOL    HW166116   3.465   9.835   5.901 -0.3419 -0.3579  0.0638
22918SOL    HW266117   3.541   9.965   5.838 -0.3540  0.1140  1.0195
22919SOL     OW66118   4.398   5.229   2.682  0.6601 -0.2691 -0.2842
22919SOL    HW166119   4.373   5.314   2.635 -0.0693 -0.2141  0.1948
22919SOL    HW266120   4.325   5.203   2.745  1.6294 -0.3391  0.8225
22920SOL     OW66121   7.643   8.549   3.361  0.1953 -0.3266 -0.5068
22920SOL    HW166122   7.581   8.586   3.430  1.4621  1.1964 -0.1431
22920SOL    HW266123   7.716   8.498   3.407  0.9381  0.5346 -0.7061
22921SOL     OW66124   9.428   4.802   3.216 -0.9593  0.0356 -0.5744
22921SOL    HW166125   9.419   4.722   3.276 -0.0722  1.0535  0.9583
22921SOL    HW266126   9.386   4.881   3.260 -0.6875  0.6988 -1.4952
22922SOL     OW66127   3.465   4.657   1.362  0.4101  0.3953  0.9996
22922SOL    HW166128   3.516   4.638   1.278 -1.0480  1.2093 -0.1134
22922SOL    HW266129   3.423   4.748   1.355 -0.6684 -0.0027  2.1230
22923SOL     OW66130   5.341   8.089   1.708  0.1447  0.0570  0.0220
22923SOL    HW166131   5.319   8.164   1.770  0.0859 -0.0588  0.1425
22923SOL    HW266132   5.270   8.081   1.638  1.5390  1.8926 -1.6737
22924SOL     OW66133   4.786   0.502   3.881  0.1450  0.6508 -0.0574
22924SOL    HW166134   4.775   0.413   3.925 -0.2453  0.3200 -0.8100
22924SOL    HW266135   4.811   0.570   3.949 -0.6900  0.1909  0.7234
22925SOL     OW66136   0.081   6.965   7.361 -0.4929 -0.4006  0.0114
22925SOL    HW166137   0.012   6.965   7.289 -0.2998 -0.6076 -0.1735
22925SOL    HW266138   0.049   7.021   7.438  0.6105  2.3912 -1.5065
22927SOL     OW66139   6.647   1.565   6.043 -0.1725 -0.1357  0.6341
22927SOL    HW166140   6.741   1.600   6.032  0.0410 -0.4633  1.3766
22927SOL    HW266141   6.586   1.614   5.981  0.2766  0.9631  1.0372
22928SOL     OW66142   9.694   7.148   7.953 -0.1392  0.6777  0.5828
22928SOL    HW166143   9.596   7.164   7.966 -0.3727 -0.5880  0.4852
22928SOL    HW266144   9.712   7.134   7.856 -0.1917 -1.0814  0.8090
22929SOL     OW66145   8.358   2.700   4.248 -0.0898 -0.2997  0.0039
22929SOL    HW166146   8.320   2.714   4.340  1.0134 -2.2686  0.7682
22929SOL    HW266147   8.358   2.603   4.226 -0.4436  0.1642 -2.1481
22930SOL     OW66148   5.900   9.105   5.721  0.6984 -0.0344 -0.6528
22930SOL    HW166149   5.925   9.019   5.676 -2.3674 -2.0190  1.1725
22930SOL    HW266150   5.855   9.166   5.656 -0.6127 -1.4595 -1.1099
22931SOL     OW66151   7.959   5.738   0.885  0.0355 -0.5356  0.2570
22931SOL    HW166152   7.881   5.696   0.931 -1.4809 -0.0739 -1.8493
22931SOL    HW266153   7.976   5.691   0.798  0.0187  1.4550 -0.8504
22932SOL     OW66154   1.773   3.204   4.080 -0.0744  0.2371 -0.3739
22932SOL    HW166155   1.761   3.195   4.179 -1.6508  1.2063 -0.4595
22932SOL    HW266156   1.869   3.223   4.060  0.1496  0.6474  1.0209
22933SOL     OW66157   2.935   3.778   6.227  0.5967 -0.0835 -0.5439
22933SOL    HW166158   2.869   3.800   6.156  0.2848 -1.0224 -0.5518
22933SOL    HW266159   2.987   3.860   6.251 -0.2142  0.5453 -0.9018
22934SOL     OW66160   5.145   7.330   4.721 -0.5257  0.5599  0.3293
22934SOL    HW166161   5.086   7.280   4.658 -2.3113  0.3482  2.0985
22934SOL    HW266162   5.095   7.350   4.805  2.0502  0.0200  2.0779
22935SOL     OW66163   7.785   6.351   6.866 -0.2273 -0.0838  1.5358
22935SOL    HW166164   7.718   6.317   6.931 -0.8005  1.7055  1.9236
22935SOL    HW266165   7.744   6.423   6.810 -0.7481 -3.7346 -3.0881
22936SOL     OW66166   7.938   6.830   6.504  0.6369 -0.2361 -0.4950
22936SOL    HW166167   8.007   6.901   6.515  0.5738 -0.3010  0.3284
22936SOL    HW266168   7.952   6.783   6.417  0.3663  1.1174 -1.2899
22937SOL     OW66169   3.990   0.482   2.519 -0.0751  0.4082 -0.4568
22937SOL    HW166170   3.912   0.419   2.522  0.0379  0.3038  0.3309
22937SOL    HW266171   3.964   0.564   2.468 -0.3222 -0.1408 -1.2133
22938SOL     OW66172   3.962   9.328   0.100  0.1080  0.3381  0.2643
22938SOL    HW166173   4.004   9.380   0.174  0.2562  0.1735  0.2965
22938SOL    HW266174   3.886   9.274   0.137 -0.2410  0.7647  0.1756
22939SOL     OW66175   7.109   6.221   7.485  0.1192 -0.1520  0.0929
22939SOL    HW166176   7.177   6.167   7.436 -0.4585 -0.0282 -0.8569
22939SOL    HW266177   7.151   6.305   7.519  0.4806 -0.1482 -0.3633
22940SOL     OW66178   7.299   7.581   4.941  0.3037 -0.0210 -0.2721
22940SOL    HW166179   7.333   7.652   5.003  0.5999 -0.4287  0.0340
22940SOL    HW266180   7.302   7.492   4.987 -1.4438 -0.0273 -0.1354
22941SOL     OW66181   4.693   8.146   6.237  0.1271  0.1794  0.0687
22941SOL    HW166182   4.650   8.094   6.311 -0.6434 -0.4937 -0.8325
22941SOL    HW266183   4.780   8.104   6.214 -0.4871 -0.7253 -0.6487
22942SOL     OW66184   6.989   3.292   4.264  0.0408  0.0446  0.1838
22942SOL    HW166185   7.031   3.235   4.334 -1.4795 -0.6386  0.5654
22942SOL    HW266186   6.897   3.318   4.293 -0.7398 -0.5379 -1.6995
22944SOL     OW66187   6.363   3.695   1.283 -0.2024  0.2666  0.0601
22944SOL    HW166188   6.430   3.646   1.340 -0.4946 -0.2577 -0.0491
22944SOL    HW266189   6.282   3.638   1.270 -0.4735  0.7138 -0.2090
22945SOL     OW66190   8.234   9.417   4.681 -0.0425 -0.4068 -0.4982
22945SOL    HW166191   8.136   9.405   4.695 -0.0975  0.0771 -0.4340
22945SOL    HW266192   8.260   9.383   4.591  0.0565 -2.2284  0.2102
22946SOL     OW66193   7.132   9.880   4.490  0.1241  0.6358  0.1714
22946SOL    HW166194   7.202   9.808   4.493  1.1528  1.4623 -2.6529
22946SOL    HW266195   7.041   9.837   4.486  0.5403 -0.4597  1.9639
22947SOL     OW66196   4.215   4.752   3.159 -1.0582 -0.1202 -0.0047
22947SOL    HW166197   4.177   4.825   3.216  0.2709  0.2187  0.4571
22947SOL    HW266198   4.235   4.788   3.067 -0.0752  0.1935  0.3286
22948SOL     OW66199   5.668   0.287   5.499 -0.0775  0.7913  0.0099
22948SOL    HW166200   5.702   0.363   5.444 -0.1968  0.0239 -1.1471
22948SOL    HW266201   5.573   0.304   5.524 -0.8500 -0.0167 -2.2172
22949SOL     OW66202   0.412   6.460   0.564 -0.8523  0.2570 -0.4323
22949SOL    HW166203   0.316   6.442   0.543 -1.1721  1.1580  0.2291
22949SOL    HW266204   0.436   6.414   0.650 -1.0037  0.9612 -0.0098
22953SOL     OW66205   6.425   8.419   4.369 -0.2331 -0.2058  0.0187
22953SOL    HW166206   6.447   8.362   4.290  1.7950  0.5859 -0.0243
22953SOL    HW266207   6.335   8.460   4.357 -0.8909 -1.8612 -0.8387
22955SOL     OW66208   9.027   5.373   5.529 -0.1702  0.1048  0.1795
22955SOL    HW166209   8.978   5.323   5.457  0.6453 -1.0287  0.4023
22955SOL    HW266210   8.965   5.388   5.607 -0.5469 -0.1822 -0.0620
22956SOL     OW66211   3.022   3.288   3.250 -0.0463 -0.2285  0.3435
22956SOL    HW166212   3.109   3.273   3.202 -0.0099 -0.6303  0.5391
22956SOL    HW266213   3.006   3.387   3.259 -1.0462 -0.1047 -2.3113
22958SOL     OW66214   7.046   7.727   1.985 -0.0389  0.0658  0.0052
22958SOL    HW166215   7.115   7.724   2.058 -0.2255  1.9949  0.2691
22958SOL    HW266216   6.955   7.737   2.025 -0.3811 -1.2859 -0.4033
22959SOL     OW66217   2.874   0.843   3.806  0.1834 -0.5539 -0.7871
22959SOL    HW166218   2.814   0.776   3.848 -3.1609  0.2003 -4.1119
22959SOL    HW266219   2.917   0.899   3.877 -0.7360 -3.0069  1.7938
22960SOL     OW66220   2.665   2.999   2.616  0.4676 -0.4284  0.2721
22960SOL    HW166221   2.705   3.081   2.658  1.7004 -2.0567  2.3554
22960SOL    HW266222   2.572   2.987   2.651 -0.3334  0.9795 -1.3091
22962SOL     OW66223   0.529   6.139   0.238 -0.1978 -0.1301 -0.3846
22962SOL    HW166224   0.517   6.156   0.336  0.4047 -1.7322 -0.0120
22962SOL    HW266225   0.550   6.225   0.192 -1.5117  0.8133  0.7298
22964SOL     OW66226   9.994   7.533   3.870 -0.3661 -0.4269  0.1074
22964SOL    HW166227  10.014   7.467   3.797 -1.2865  0.0629 -0.6052
22964SOL    HW266228   9.975   7.623   3.829  0.0671  0.0870  1.0146
22965SOL     OW66229   3.482   1.146   6.431 -0.0335 -0.2657  0.1045
22965SOL    HW166230   3.564   1.203   6.426 -1.1459  1.4505  1.0369
22965SOL    HW266231   3.466   1.102   6.342  0.9590  0.7046 -0.5526
22966SOL     OW66232   2.693   3.357   6.324 -0.7866 -0.2407  0.7365
22966SOL    HW166233   2.668   3.434   6.384 -0.3154  0.3777  0.1479
22966SOL    HW266234   2.686   3.386   6.229  0.3629 -0.6247  0.5309
22967SOL     OW66235   1.512   3.704   3.777 -0.1688 -0.3622 -0.5573
22967SOL    HW166236   1.606   3.705   3.811 -0.2567  0.6058 -0.3168
22967SOL    HW266237   1.511   3.667   3.684  0.6847  1.1869 -1.2031
22968SOL     OW66238   4.043   1.396   6.190  0.6139  0.2453  0.5195
22968SOL    HW166239   3.993   1.349   6.263 -1.0445  0.1471 -0.6443
22968SOL    HW266240   4.018   1.356   6.102  1.1823  1.5869 -0.2597
22969SOL     OW66241   2.335   5.357   3.776 -0.2410 -0.0018 -0.1328
22969SOL    HW166242   2.399   5.281   3.783  0.0254  0.2322 -0.0231
22969SOL    HW266243   2.302   5.365   3.682  2.8446  2.2792 -1.1009
22970SOL     OW66244   8.011   0.853   2.022  0.2782  0.6598  0.0623
22970SOL    HW166245   8.093   0.851   2.080  0.4058  1.6567 -0.0690
22970SOL    HW266246   7.929   0.848   2.078  0.4212  0.4590  0.2516
22971SOL     OW66247   7.102   3.706   2.802  0.0083  0.2303 -0.1250
22971SOL    HW166248   7.105   3.695   2.703 -1.4268 -1.7509  0.0311
22971SOL    HW266249   7.046   3.634   2.842  1.0919  0.6355  2.1946
22972SOL     OW66250   4.136   0.421   5.730  0.8867 -0.1582 -0.1469
22972SOL    HW166251   4.088   0.496   5.685 -0.4187 -0.1993  1.1257
22972SOL    HW266252   4.161   0.448   5.823  3.2970 -0.1781 -0.7614
22973SOL     OW66253   3.635   2.926   5.714  0.8595  0.0965  0.8589
22973SOL    HW166254   3.672   3.006   5.668  0.8910 -0.1791  0.4033
22973SOL    HW266255   3.703   2.889   5.777  1.7675 -1.0195 -0.7274
22974SOL     OW66256   7.841   9.698   3.591  0.1214  0.1101  0.2626
22974SOL    HW166257   7.790   9.715   3.507  1.8344 -1.2588 -1.0712
22974SOL    HW266258   7.777   9.695   3.668 -1.3572  2.3446 -0.8133
22978SOL     OW66259   2.750   6.084   1.347  0.4700 -0.7396 -0.1997
22978SOL    HW166260   2.836   6.117   1.386  0.8607 -1.6403 -0.3072
22978SOL    HW266261   2.768   6.011   1.281 -0.3684 -0.9149 -0.2416
22979SOL     OW66262   8.166   8.158   1.460 -0.2680  0.0080  0.1193
22979SOL    HW166263   8.084   8.148   1.516 -0.0584  0.3141  0.4859
22979SOL    HW266264   8.246   8.167   1.519  0.2353 -1.8647 -0.2438
22980SOL     OW66265   4.287   6.843   3.563 -0.0897 -0.2564  0.4784
22980SOL    HW166266   4.248   6.771   3.622 -1.4296  0.1718  0.1306
22980SOL    HW266267   4.271   6.820   3.467 -0.7957  0.6598  0.3749
22981SOL     OW66268   0.363   1.482   3.684  0.1128  0.2057 -0.1442
22981SOL    HW166269   0.281   1.443   3.725 -0.0643 -0.4364 -1.0784
22981SOL    HW266270   0.348   1.495   3.586  0.9497  0.5601 -0.2317
22982SOL     OW66271   9.596   4.182   1.061  0.4851  0.2699 -0.0577
22982SOL    HW166272   9.571   4.270   1.103  1.3033 -0.2967  1.6646
22982SOL    HW266273   9.659   4.133   1.122  0.6632 -1.1589 -1.3756
22983SOL     OW66274   5.356   0.734   7.822 -0.8652  0.1197 -0.1349
22983SOL    HW166275   5.412   0.722   7.904 -0.6301 -1.6669 -0.5249
22983SOL    HW266276   5.309   0.648   7.801 -2.8677  1.2615 -0.4676
22984SOL     OW66277   3.935   0.560   4.016  0.1558 -0.1829  0.4643
22984SOL    HW166278   4.013   0.536   3.958 -0.8114 -0.4291 -0.7662
22984SOL    HW266279   3.946   0.653   4.051  0.3550  0.2685 -0.7831
22985SOL     OW66280   7.715   0.916   0.569  0.2218 -0.0162 -0.4522
22985SOL    HW166281   7.633   0.886   0.619  0.0056  0.8681 -0.2726
22985SOL    HW266282   7.690   0.940   0.476  0.0732  1.3239 -0.0759
22987SOL     OW66283   7.442   5.168   0.747 -0.3248  0.0798 -0.5202
22987SOL    HW166284   7.408   5.089   0.697  0.7620 -1.3763  0.9641
22987SOL    HW266285   7.535   5.188   0.719  0.1700 -0.5352  0.6215
22990SOL     OW66286   9.352   2.696   6.143 -0.3094 -0.1569  0.0171
22990SOL    HW166287   9.252   2.690   6.136 -0.2812 -0.0472 -0.4786
22990SOL    HW266288   9.382   2.647   6.225 -0.7512 -0.3895  0.0431
22991SOL     OW66289   2.369   8.330   2.852 -0.2362 -0.6779  0.2005
22991SOL    HW166290   2.370   8.428   2.831  0.7658 -0.6811  0.1948
22991SOL    HW266291   2.307   8.283   2.789 -0.5111 -0.0839  0.0244
22992SOL     OW66292   8.086   9.419   2.918  0.0264  0.1261 -0.1896
22992SOL    HW166293   8.004   9.363   2.929 -1.4066  1.5989 -2.8888
22992SOL    HW266294   8.150   9.372   2.857  0.4627 -0.2486  0.5499
22993SOL     OW66295   0.506   6.684   4.632 -0.1455  0.3553  0.8635
22993SOL    HW166296   0.536   6.594   4.603 -0.1008 -0.1364  2.3684
22993SOL    HW266297   0.570   6.720   4.700 -2.0608 -0.0337  2.9224
22994SOL     OW66298   8.072   6.961   7.364  0.6215  0.2356 -0.8319
22994SOL    HW166299   8.117   6.978   7.276  0.7586  1.3013 -0.5540
22994SOL    HW266300   7.995   6.899   7.350  0.7869  0.2153 -1.6721
22995SOL     OW66301   4.786   4.669   0.048 -0.2622 -0.1247  0.2123
22995SOL    HW166302   4.854   4.596   0.038 -0.6289 -0.6285  1.2867
22995SOL    HW266303   4.809   4.725   0.128 -0.3616  0.5224 -0.2114
22996SOL     OW66304   2.501   1.099   4.789  0.1747  0.0662  0.2894
22996SOL    HW166305   2.458   1.097   4.879  0.4213 -1.0189  0.3941
22996SOL    HW266306   2.581   1.159   4.792  0.3591 -0.2051  0.8739
22998SOL     OW66307   4.381   1.642   0.176  0.4874  0.3429  0.6159
22998SOL    HW166308   4.309   1.710   0.188  0.8803  0.8923 -0.1363
22998SOL    HW266309   4.450   1.677   0.114 -0.2248 -1.4500 -1.2472
22999SOL     OW66310   7.579   4.248   2.293 -0.3959  0.3738 -0.1367
22999SOL    HW166311   7.534   4.175   2.345 -1.3045  0.6262 -0.5694
22999SOL    HW266312   7.573   4.334   2.344 -0.3678  0.4034 -0.1829
23002SOL     OW66313   9.019   9.314   2.639  0.6575 -0.3607 -0.6740
23002SOL    HW166314   9.026   9.318   2.739  0.5348  2.1264 -0.7191
23002SOL    HW266315   8.929   9.279   2.613  1.3013 -2.6442  0.0582
23005SOL     OW66316   6.272   8.531   7.318  0.3953 -0.0038  0.1492
23005SOL    HW166317   6.186   8.516   7.269 -0.4132  0.2334  1.4865
23005SOL    HW266318   6.348   8.492   7.264 -0.4947  0.0754 -1.1860
23006SOL     OW66319   0.954   6.376   3.125  0.3970 -0.2907  0.7928
23006SOL    HW166320   0.879   6.346   3.065 -0.6495 -0.5225  2.1761
23006SOL    HW266321   0.996   6.296   3.167  0.3941 -0.0651  1.2226
23009SOL     OW66322   1.250   4.035   7.543  0.0916 -0.1097  0.2918
23009SOL    HW166323   1.188   3.961   7.566  2.4836 -1.9825  0.9469
23009SOL    HW266324   1.310   4.006   7.468 -0.4136  1.9987 -0.9713
23010SOL     OW66325   3.963   1.580   1.603 -0.1032 -0.2003  0.1549
23010SOL    HW166326   4.038   1.570   1.539  0.6612 -1.9216  1.2719
23010SOL    HW266327   3.998   1.612   1.691 -0.4330 -2.2708  1.0811
23012SOL     OW66328   9.010   1.969   1.533  0.0075  0.2751 -0.2401
23012SOL    HW166329   8.926   1.991   1.484  0.3844 -1.5127 -1.7355
23012SOL    HW266330   9.089   2.001   1.481  0.3432  0.3581  0.3056
23013SOL     OW66331   2.730   6.910   3.383 -0.0695 -0.4049  0.2144
23013SOL    HW166332   2.649   6.888   3.329 -0.6079  0.9234  0.4639
23013SOL    HW266333   2.704   6.968   3.460  1.2260  0.6890 -0.1533
23015SOL     OW66334   1.983   5.435   1.842 -0.0080  0.0436  0.6159
23015SOL    HW166335   2.030   5.399   1.761  0.3729 -0.0518  0.8768
23015SOL    HW266336   1.907   5.493   1.813  0.9691  1.1314  0.1727
23016SOL     OW66337   8.430   0.124   7.585  0.0284 -0.5644  0.0246
23016SOL    HW166338   8.497   0.197   7.593 -0.5270 -0.0635  0.1281
23016SOL    HW266339   8.429   0.089   7.491  0.9662 -1.0934  0.2018
23017SOL     OW66340   1.374   6.774   5.456  0.6164  0.2119 -0.4811
23017SOL    HW166341   1.416   6.787   5.366  1.0987 -0.8746 -0.4201
23017SOL    HW266342   1.387   6.856   5.511 -1.1925  1.5611 -2.0033
23021SOL     OW66343   3.053   0.852   6.005  0.3448 -0.8877 -0.3527
23021SOL    HW166344   3.088   0.759   6.002  0.6161 -0.9003  1.9940
23021SOL    HW266345   3.116   0.909   6.058 -0.4977  0.3150 -0.6301
23022SOL     OW66346   4.971   5.302   2.036 -0.5756  0.4062 -0.0509
23022SOL    HW166347   4.926   5.320   2.124 -2.2036 -0.2047 -0.7410
23022SOL    HW266348   4.970   5.204   2.017  0.8171  0.4149 -0.2127
23023SOL     OW66349   0.321   3.831   4.482 -0.2725 -0.2576 -0.0029
23023SOL    HW166350   0.394   3.764   4.465 -1.1739 -1.5230  0.9779
23023SOL    HW266351   0.251   3.823   4.411  0.1603  0.4196 -0.5089
23025SOL     OW66352   0.725   2.226   1.285  0.2113  0.5427  0.0496
23025SOL    HW166353   0.678   2.183   1.362 -0.2398 -0.5569 -0.8333
23025SOL    HW266354   0.810   2.267   1.318  0.7755 -1.2294  0.8715
23026SOL     OW66355   2.083   3.108   2.146  0.3179  0.8461 -0.0270
23026SOL    HW166356   2.170   3.124   2.193  0.5323 -0.1269 -0.0799
23026SOL    HW266357   2.088   3.022   2.095 -0.5148  1.0242 -0.4207
23027SOL     OW66358   6.606   0.497   3.047  0.2008 -0.2386 -0.7500
23027SOL    HW166359   6.626   0.472   2.952 -0.5549 -2.1339 -0.4458
23027SOL    HW266360   6.551   0.424   3.090  0.5189  0.5873  1.1294
23028SOL     OW66361   9.853   8.076   6.226  0.4189  0.5364 -0.7645
23028SOL    HW166362   9.788   8.149   6.246 -0.7729 -0.3011 -1.5265
23028SOL    HW266363   9.914   8.105   6.152  0.9497  1.3305 -0.0278
23030SOL     OW66364   6.884   8.370   6.160  0.0332 -0.3229  0.9179
23030SOL    HW166365   6.918   8.375   6.067  1.4712  3.6546  1.5565
23030SOL    HW266366   6.802   8.428   6.169 -0.8679 -1.6937  1.8482
23031SOL     OW66367   7.838   2.099   1.660  0.2272  0.5098  0.1097
23031SOL    HW166368   7.874   2.049   1.581  1.4103  0.0577  0.9076
23031SOL    HW266369   7.758   2.152   1.633 -0.1172 -0.6068 -1.1025
23033SOL     OW66370   9.304   4.322   6.717  0.3926  0.3177 -0.2601
23033SOL    HW166371   9.328   4.240   6.770 -1.7915  0.0566  0.3588
23033SOL    HW266372   9.378   4.342   6.653  0.7177 -2.4886 -0.8370
23034SOL     OW66373   4.942   1.811   7.056  0.5618  0.3972 -0.0972
23034SOL    HW166374   4.901   1.901   7.072 -1.3924 -0.2474 -1.2625
23034SOL    HW266375   4.958   1.766   7.143 -0.8455  0.8424  0.4033
23037SOL     OW66376   8.192   9.831   6.094 -0.2884 -0.0721 -0.0210
23037SOL    HW166377   8.188   9.804   5.998  0.8097 -2.5093  0.5874
23037SOL    HW266378   8.217   9.928   6.100  1.7706 -0.4225 -2.1427
23038SOL     OW66379   1.426   6.624   5.952 -0.7351 -0.3065  0.0029
23038SOL    HW166380   1.524   6.630   5.931 -0.9003  0.7811 -0.5032
23038SOL    HW266381   1.411   6.641   6.049 -0.3761 -0.9916  0.1814
23039SOL     OW66382   7.940   4.330   7.945 -0.0614  0.0800  0.3191
23039SOL    HW166383   7.869   4.396   7.920 -0.3187 -0.5643 -0.7212
23039SOL    HW266384   7.897   4.251   7.989  0.0157 -0.2220 -0.1341
23040SOL     OW66385   1.127   6.718   1.780  0.6105 -0.3160 -0.1832
23040SOL    HW166386   1.125   6.636   1.837  0.4971  0.4117  0.8676
23040SOL    HW266387   1.046   6.720   1.722 -0.5492  0.2049  1.4233
23041SOL     OW66388   7.056   7.039   2.591 -0.3583 -0.8753  0.6289
23041SOL    HW166389   7.042   6.984   2.510  2.2053 -1.1965  0.3364
23041SOL    HW266390   7.038   6.984   2.673  0.1438 -1.5358  0.3042
23042SOL     OW66391   2.270   0.458   1.020  0.1152 -0.2256 -0.1013
23042SOL    HW166392   2.254   0.383   0.955 -1.2705  0.4142 -0.5319
23042SOL    HW266393   2.326   0.425   1.096 -0.7718 -1.8070 -0.1055
23043SOL     OW66394   3.333   1.653   4.407  0.5850  0.4919  0.4685
23043SOL    HW166395   3.295   1.735   4.449 -2.7487 -1.1537  0.8107
23043SOL    HW266396   3.352   1.584   4.477  2.9755  0.7764  0.1433
23044SOL     OW66397   4.000   6.024   7.375 -0.6525  0.4604  0.5186
23044SOL    HW166398   3.953   6.077   7.304  1.8764  2.1079 -0.0020
23044SOL    HW266399   4.091   6.061   7.388 -0.0389 -1.6953  2.5942
23045SOL     OW66400   1.604   8.207   0.763  0.1520 -0.8502 -0.1013
23045SOL    HW166401   1.507   8.228   0.751  0.5553  1.0268 -0.1490
23045SOL    HW266402   1.616   8.150   0.844 -1.0768 -1.8882 -0.6253
23047SOL     OW66403   0.975   0.715   3.261 -0.0813 -0.1231  0.3998
23047SOL    HW166404   1.050   0.649   3.254  0.3937  0.4424  0.0999
23047SOL    HW266405   1.008   0.806   3.236 -1.0948 -0.0343 -0.6742
23048SOL     OW66406   1.585   3.358   2.530 -0.5418 -0.8557 -0.4808
23048SOL    HW166407   1.662   3.420   2.516  0.3936 -0.9496  3.5795
23048SOL    HW266408   1.601   3.273   2.481  0.5257  0.2023 -2.0169
23050SOL     OW66409   1.868   9.389   5.212  0.1541  0.9764  0.2694
23050SOL    HW166410   1.820   9.453   5.273 -0.5544  0.5244  0.1983
23050SOL    HW266411   1.931   9.333   5.266 -1.7013 -0.5988  0.9049
23051SOL     OW66412   8.749   5.272   0.564 -0.1136 -0.0626 -0.1491
23051SOL    HW166413   8.665   5.304   0.520 -0.2565  0.1369  0.2704
23051SOL    HW266414   8.826   5.283   0.501  0.2433  3.2393  0.7853
23052SOL     OW66415   6.366   5.214   0.586  0.1840  0.4132 -0.5618
23052SOL    HW166416   6.325   5.304   0.570  0.9156  0.4354 -2.5495
23052SOL    HW266417   6.295   5.150   0.614 -0.5706  1.3063 -0.3889
23053SOL     OW66418   1.624   3.886   5.522  0.2173 -0.1994  0.0509
23053SOL    HW166419   1.555   3.892   5.595 -3.7796  0.1905 -3.5741
23053SOL    HW266420   1.649   3.790   5.508 -1.2048 -0.5741 -0.0001
23054SOL     OW66421   2.881   5.182   7.073 -0.6362 -0.4342  0.2231
23054SOL    HW166422   2.910   5.092   7.042 -0.9734 -0.2677 -0.5748
23054SOL    HW266423   2.911   5.252   7.008  0.9254  0.1967  1.5874
23055SOL     OW66424   3.573   8.896   0.156  0.0055  0.2556 -0.0164
23055SOL    HW166425   3.519   8.914   0.239  0.1464  0.0606  0.1196
23055SOL    HW266426   3.516   8.846   0.090 -0.8633  2.4871 -1.0036
23056SOL     OW66427   4.208   9.869   4.512  0.0722  0.2898 -0.0304
23056SOL    HW166428   4.224   9.890   4.608  1.5783  0.2537 -0.2698
23056SOL    HW266429   4.282   9.811   4.477  0.9139  2.4124 -1.8908
23057SOL     OW66430   0.197   5.755   5.169  0.2132  0.3090 -0.0357
23057SOL    HW166431   0.149   5.787   5.250  2.4445 -0.0185  1.4855
23057SOL    HW266432   0.241   5.832   5.123  0.7234  0.2348  0.3127
23058SOL     OW66433   3.414   2.398   4.684  0.5941  0.2519 -0.0591
23058SOL    HW166434   3.514   2.399   4.684  0.6015 -0.2190 -0.7422
23058SOL    HW266435   3.380   2.394   4.590 -0.0686  0.1075  0.1804
23059SOL     OW66436   9.135   3.403   3.946 -0.4761 -0.5692 -0.0251
23059SOL    HW166437   9.194   3.437   4.019  0.7594 -1.0571 -0.7787
23059SOL    HW266438   9.041   3.433   3.962  0.0909  0.7937  0.8282
23060SOL     OW66439   2.519   1.125   1.742  0.2082  0.1315 -0.5291
23060SOL    HW166440   2.583   1.106   1.817 -0.3321 -0.8279 -0.3005
23060SOL    HW266441   2.433   1.158   1.780 -0.1091 -0.4754 -0.7224
23061SOL     OW66442   2.030   1.605   6.413 -0.2234  0.0532  0.6594
23061SOL    HW166443   2.006   1.629   6.319 -0.6141 -1.3915  0.3823
23061SOL    HW266444   1.946   1.600   6.468  0.1316  2.6091  1.5230
23063SOL     OW66445   6.103   1.189   0.465  0.4975  0.1533  0.0941
23063SOL    HW166446   6.201   1.185   0.443  0.1726 -0.6529 -1.2907
23063SOL    HW266447   6.089   1.244   0.547  2.0442  0.9067 -0.1289
23064SOL     OW66448   0.594   6.934   6.345  0.2387 -0.0593  0.3067
23064SOL    HW166449   0.612   6.837   6.362 -0.3521 -0.3310 -0.6089
23064SOL    HW266450   0.664   6.970   6.284 -1.1190 -0.6163 -1.6224
23065SOL     OW66451   9.490   4.809   3.989 -0.0508 -0.3778 -0.3896
23065SOL    HW166452   9.413   4.834   3.931  1.3000 -0.0472 -2.0712
23065SOL    HW266453   9.520   4.889   4.041 -1.4224 -0.7366  0.9879
23066SOL     OW66454   3.120   5.078   0.499  0.2929  0.1705  0.4733
23066SOL    HW166455   3.091   5.095   0.594 -1.3774  0.1345 -0.0078
23066SOL    HW266456   3.088   4.987   0.471  1.1204  0.0276 -0.0028
23067SOL     OW66457   2.096   3.780   2.013  0.3204 -0.7520 -0.6730
23067SOL    HW166458   2.190   3.753   2.033  0.2934 -1.9988 -2.1738
23067SOL    HW266459   2.033   3.712   2.049  0.0209 -0.2908 -0.3182
23068SOL     OW66460   1.356   9.773   5.699  0.2305 -0.5799  0.1143
23068SOL    HW166461   1.382   9.676   5.700 -0.0969 -0.6666  0.4673
23068SOL    HW266462   1.365   9.810   5.792 -1.1128 -0.6645  0.2857
23069SOL     OW66463   4.079   9.612   2.876  0.3858 -0.1899 -0.2388
23069SOL    HW166464   4.140   9.540   2.844 -0.4690 -0.9323 -0.2208
23069SOL    HW266465   4.004   9.624   2.812  0.5045  0.6822 -0.2340
23070SOL     OW66466   7.487   4.071   1.702 -0.4056 -0.1082  0.2218
23070SOL    HW166467   7.459   4.002   1.768  1.6220 -1.0839  0.0816
23070SOL    HW266468   7.574   4.111   1.729 -0.5389  0.9131 -0.7996
23072SOL     OW66469   9.340   3.678   0.006  0.3309  0.1871  0.2145
23072SOL    HW166470   9.330   3.758   0.066  1.5222  0.4158  0.1260
23072SOL    HW266471   9.434   3.673  -0.027 -0.1526 -0.3006 -1.1291
23073SOL     OW66472   1.191   5.975   6.168  0.0137  0.5079 -0.3038
23073SOL    HW166473   1.186   6.040   6.244 -0.0292  1.4362 -1.0918
23073SOL    HW266474   1.106   5.977   6.116  0.2418  0.2611 -0.6887
23074SOL     OW66475   2.526   3.942   3.028 -0.6747  0.0700  0.3671
23074SOL    HW166476   2.598   3.947   3.096  0.2094  1.7287 -0.6523
23074SOL    HW266477   2.489   3.850   3.025  0.2562 -0.3768  2.0686
23075SOL     OW66478   4.306   8.584   3.511 -0.0395  0.1388 -0.2118
23075SOL    HW166479   4.368   8.506   3.507  0.8900  0.9444 -1.8943
23075SOL    HW266480   4.319   8.632   3.598 -0.0782 -1.1287  0.5016
23076SOL     OW66481   9.493   1.921   7.839  0.6929  0.0163  0.7377
23076SOL    HW166482   9.535   1.953   7.755  0.8902 -0.1016  0.7923
23076SOL    HW266483   9.539   1.838   7.870 -0.0259 -0.5173  0.4166
23077SOL     OW66484   5.217   9.754   6.359  0.7144 -0.1748 -0.3388
23077SOL    HW166485   5.265   9.693   6.421  1.7088  1.1440  0.2112
23077SOL    HW266486   5.275   9.833   6.338 -0.4820  0.5029 -1.1500
23078SOL     OW66487   2.107   8.773   4.769 -0.4660  0.2680 -0.2061
23078SOL    HW166488   2.136   8.696   4.712 -1.1756 -1.2882  1.5050
23078SOL    HW266489   2.008   8.785   4.760 -0.6437 -0.2654  1.0509
23079SOL     OW66490   7.981   8.000   5.192  0.0573 -0.0392 -0.6122
23079SOL    HW166491   8.029   8.022   5.276 -3.4723 -3.4029  2.4890
23079SOL    HW266492   8.021   7.918   5.151  1.1221  1.0126 -1.7305
23080SOL     OW66493   8.855   6.007   6.788 -0.4779  0.3017  0.2372
23080SOL    HW166494   8.920   5.930   6.782 -1.9904 -0.7732 -4.1706
23080SOL    HW266495   8.906   6.093   6.790  1.1865 -0.5982 -1.3932
23082SOL     OW66496   8.908   5.256   6.593  0.5890  0.2688 -0.4666
23082SOL    HW166497   9.001   5.222   6.606  0.0056 -0.7668  1.0997
23082SOL    HW266498   8.860   5.194   6.530  0.8469  0.6347 -1.0341
23084SOL     OW66499   1.501   4.614   3.999  0.1581  0.0190  0.1196
23084SOL    HW166500   1.461   4.608   4.090 -0.2852 -0.4251 -0.1027
23084SOL    HW266501   1.560   4.534   3.982  0.8322  0.4712  0.2967
23085SOL     OW66502   9.978   7.741   4.490 -0.1332 -0.0869 -0.2682
23085SOL    HW166503   9.955   7.722   4.395  1.9743 -0.3815 -0.7432
23085SOL    HW266504  10.049   7.678   4.521 -0.5068  0.2601  1.3942
23087SOL     OW66505   7.206   8.205   4.064 -0.0649  0.8168  0.0392
23087SOL    HW166506   7.142   8.160   4.002 -0.4116  0.3356  0.7385
23087SOL    HW266507   7.299   8.183   4.037 -0.2019  0.9642 -0.5699
23088SOL     OW66508   1.388   7.748   5.257 -0.4978  0.1163  0.3020
23088SOL    HW166509   1.345   7.721   5.171 -0.6142 -0.0606  0.4161
23088SOL    HW266510   1.385   7.848   5.267 -0.3124  0.1518  0.0109
23089SOL     OW66511   7.673   2.862   3.533  0.8562  0.6146 -0.0528
23089SOL    HW166512   7.647   2.767   3.519  0.2756  0.7935 -0.2070
23089SOL    HW266513   7.671   2.884   3.631  0.2670  0.6685 -0.0735
23090SOL     OW66514   3.452   3.745   4.867 -0.0919 -0.1200  0.3612
23090SOL    HW166515   3.408   3.708   4.949 -2.2949 -1.1056 -1.2188
23090SOL    HW266516   3.412   3.834   4.846  1.0275  0.4930  0.7832
23091SOL     OW66517   0.467   9.821   3.127  0.4608 -0.0029 -0.1615
23091SOL    HW166518   0.499   9.813   3.033  0.3990  1.9046 -0.3695
23091SOL    HW266519   0.509   9.901   3.170 -1.9993  1.0683  0.3749
23093SOL     OW66520   4.724   9.495   2.842 -0.1409 -0.7840 -0.2249
23093SOL    HW166521   4.635   9.527   2.811  0.5170  0.0543 -1.2476
23093SOL    HW266522   4.715   9.457   2.935 -1.6736 -1.3048 -0.5704
23097SOL     OW66523   3.092   1.699   7.788  0.0327  0.2914 -0.1231
23097SOL    HW166524   3.174   1.691   7.732  0.9428 -0.4471  1.2959
23097SOL    HW266525   3.020   1.639   7.751  0.2710  0.6176 -1.1130
23098SOL     OW66526   6.543   0.532   2.408 -0.1684 -0.2264  0.6405
23098SOL    HW166527   6.483   0.587   2.351  0.8544 -1.3854 -1.5935
23098SOL    HW266528   6.491   0.496   2.486 -1.7606  0.7473  0.0487
23100SOL     OW66529   0.597   1.315   6.325  0.0623 -0.2941 -0.0095
23100SOL    HW166530   0.576   1.230   6.373  3.8566 -2.4012 -1.8739
23100SOL    HW266531   0.577   1.305   6.228  0.9897  0.7699 -0.3298
23101SOL     OW66532   7.849   8.842   1.575  0.7674  0.3239  0.1313
23101SOL    HW166533   7.822   8.746   1.585  2.0161  0.0258  0.7821
23101SOL    HW266534   7.783   8.901   1.621  1.2023 -0.3922  1.6946
23102SOL     OW66535   1.583   2.089   2.514  0.3331  0.1797  0.2195
23102SOL    HW166536   1.517   2.027   2.558 -2.1158  3.5997  1.5932
23102SOL    HW266537   1.670   2.084   2.563 -0.7877  0.1112  2.2890
23104SOL     OW66538   1.979   6.854   4.424 -0.1491  0.0530  0.0151
23104SOL    HW166539   1.892   6.809   4.446  0.0128 -0.0068  0.5267
23104SOL    HW266540   2.022   6.807   4.346 -1.2648  0.9585 -1.1771
23105SOL     OW66541   4.957   1.588   0.177  0.5994 -0.5399 -0.0347
23105SOL    HW166542   5.047   1.618   0.209 -0.0037  1.1349  0.1375
23105SOL    HW266543   4.966   1.500   0.130  2.2091 -0.7404  0.6054
23106SOL     OW66544   9.127   9.588   6.644 -0.2880 -0.1497 -0.4438
23106SOL    HW166545   9.089   9.652   6.577 -0.1328  0.0128 -0.3756
23106SOL    HW266546   9.098   9.495   6.621  1.3952 -0.3399 -1.8980
23107SOL     OW66547   6.547   2.462   1.176  0.3977 -0.0557  0.7422
23107SOL    HW166548   6.619   2.489   1.240 -0.1150  1.3093  0.7529
23107SOL    HW266549   6.503   2.543   1.138  0.2709 -0.8468 -0.8808
23109SOL     OW66550   8.090   3.617   4.030 -0.1360  0.1925 -0.3020
23109SOL    HW166551   8.125   3.525   4.047 -2.5529 -0.7000  0.0283
23109SOL    HW266552   8.153   3.665   3.968 -0.1028 -2.5549 -2.5520
23110SOL     OW66553   9.817   0.523   2.462 -0.0902  0.9820 -0.3339
23110SOL    HW166554   9.827   0.511   2.363 -1.5940 -0.6552 -0.3342
23110SOL    HW266555   9.905   0.509   2.506 -0.1609 -2.4750 -1.1261
23111SOL     OW66556   9.800   0.769   3.949 -0.1371  0.0513 -0.7986
23111SOL    HW166557   9.869   0.699   3.966 -1.1794 -1.3252 -2.0035
23111SOL    HW266558   9.738   0.737   3.877 -1.6942  1.4706 -0.1238
23112SOL     OW66559   7.674   4.235   2.585 -0.1328  0.1536  0.0416
23112SOL    HW166560   7.667   4.250   2.684 -1.9252 -0.1282 -0.0345
23112SOL    HW266561   7.685   4.138   2.566  0.1679  0.2034 -0.0385
23114SOL     OW66562   1.972   8.902   4.333  0.5477  0.3674 -0.4818
23114SOL    HW166563   2.069   8.893   4.353  0.5823  0.2520 -0.6995
23114SOL    HW266564   1.960   8.954   4.248  0.5082 -1.7162 -1.8014
23115SOL     OW66565   2.656   3.670   5.549 -0.2713  0.3386 -0.1726
23115SOL    HW166566   2.708   3.616   5.482  0.9671 -0.4817  1.4276
23115SOL    HW266567   2.688   3.764   5.549  0.8508 -0.0381  0.4146
23116SOL     OW66568   9.358   6.697   4.009  0.2151  0.4414 -0.3519
23116SOL    HW166569   9.340   6.754   4.089 -1.4911  0.2752 -0.5852
23116SOL    HW266570   9.455   6.676   4.003  0.3919  0.6787  1.5278
23117SOL     OW66571   4.958   8.180   2.767  0.0340  0.6965  0.0992
23117SOL    HW166572   4.863   8.189   2.797  0.0130 -0.2204  0.3436
23117SOL    HW266573   4.961   8.180   2.667 -0.3545 -0.3526  0.0743
23118SOL     OW66574   7.789   1.495   3.042 -0.1372 -0.0746 -0.2872
23118SOL    HW166575   7.765   1.409   3.087 -1.5498  1.2155  1.5306
23118SOL    HW266576   7.870   1.534   3.085  0.5803 -0.5575 -1.1975
23119SOL     OW66577   8.919   7.032   5.296 -0.2299 -0.0499 -0.2726
23119SOL    HW166578   8.846   7.033   5.227  0.6015 -1.3011 -1.2045
23119SOL    HW266579   8.967   6.945   5.291  0.3047  0.1316  1.4351
23120SOL     OW66580   1.052   1.811   1.115 -0.1061 -0.4293  0.1155
23120SOL    HW166581   0.961   1.847   1.136  0.3451  0.5044  0.4931
23120SOL    HW266582   1.098   1.872   1.050  0.6018 -0.3884  0.6393
23122SOL     OW66583   7.817   5.885   1.408  0.0407  0.0554 -0.0508
23122SOL    HW166584   7.791   5.841   1.321  0.8420 -0.6188  0.0447
23122SOL    HW266585   7.734   5.914   1.456 -0.5000 -1.0882 -0.2641
23123SOL     OW66586   0.625   2.766   3.608 -0.2822 -0.2197 -0.2254
23123SOL    HW166587   0.682   2.698   3.653 -0.8595 -0.5482  0.0164
23123SOL    HW266588   0.535   2.769   3.653 -0.6260 -0.0630 -0.9165
23124SOL     OW66589   0.260   6.996   2.512 -0.2036 -0.0215 -0.6427
23124SOL    HW166590   0.322   6.928   2.472 -0.5573 -0.4535 -0.4625
23124SOL    HW266591   0.307   7.084   2.521  0.1160 -0.1223 -1.3006
23126SOL     OW66592   8.806   3.835   5.851 -0.0757 -0.7169 -0.3145
23126SOL    HW166593   8.862   3.763   5.808  0.2274 -0.0227 -1.0924
23126SOL    HW266594   8.857   3.874   5.927 -0.4198 -1.6265  0.3867
23127SOL     OW66595   8.023   9.423   6.092 -0.0330  0.2453 -0.6508
23127SOL    HW166596   7.976   9.511   6.103 -0.8593 -0.2247 -0.3913
23127SOL    HW266597   8.111   9.438   6.046 -0.8079  1.0310 -1.9196
23128SOL     OW66598   4.005   7.864   2.268 -0.1032 -0.4053  0.2106
23128SOL    HW166599   4.085   7.809   2.243 -0.6203 -0.9231 -0.3074
23128SOL    HW266600   3.970   7.834   2.356 -0.2650 -0.7707  0.0201
23129SOL     OW66601   9.957   8.494   0.022 -0.3230 -0.8346 -0.5845
23129SOL    HW166602   9.964   8.594   0.025  0.0091 -0.8853  0.5327
23129SOL    HW266603  10.021   8.459  -0.046 -0.4591 -0.2970 -1.0057
23130SOL     OW66604   5.701   8.304   4.640 -0.0150 -0.0836 -0.2075
23130SOL    HW166605   5.664   8.240   4.707  0.3591 -1.3353 -1.1672
23130SOL    HW266606   5.798   8.282   4.623 -0.4376 -0.5965 -2.0739
23131SOL     OW66607   7.558   7.368   7.542 -0.3158  0.1344  0.0980
23131SOL    HW166608   7.609   7.401   7.622  1.9659 -0.5365 -1.0242
23131SOL    HW266609   7.514   7.446   7.497  0.0574  0.8036  0.8715
23133SOL     OW66610   0.170   9.126   2.462 -0.0222 -0.0357  0.3226
23133SOL    HW166611   0.125   9.192   2.401 -0.0673 -1.2549 -0.9921
23133SOL    HW266612   0.255   9.095   2.419  1.1078  0.7940  1.9251
23134SOL     OW66613   5.752   1.721   5.137  0.0257  0.0367 -0.1672
23134SOL    HW166614   5.816   1.718   5.213 -0.5357  2.2910  0.4101
23134SOL    HW266615   5.658   1.719   5.172 -0.2544 -2.0565 -0.9526
23136SOL     OW66616   1.937   5.148   0.245  0.0055  0.1570 -0.3595
23136SOL    HW166617   1.993   5.139   0.163  1.3085  2.0118  0.2907
23136SOL    HW266618   1.877   5.228   0.236  1.8669  1.8341  1.4159
23137SOL     OW66619   2.226   9.875   0.108  0.2735  0.0269 -0.6300
23137SOL    HW166620   2.277   9.813   0.048 -0.5606 -2.4492  1.1463
23137SOL    HW266621   2.131   9.880   0.079 -0.1771 -1.3318  0.5846
23140SOL     OW66622   9.086   1.270   0.065  0.3320  0.1013 -0.2477
23140SOL    HW166623   9.101   1.179   0.102 -0.4858 -0.2677 -0.8149
23140SOL    HW266624   9.168   1.302   0.020  0.2678 -0.8053 -1.0128
23141SOL     OW66625   3.423   7.600   5.729  0.5746  0.9314  0.3857
23141SOL    HW166626   3.501   7.644   5.774  0.9943  1.9861 -1.3255
23141SOL    HW266627   3.453   7.512   5.690  0.7414  0.9910  0.3762
23142SOL     OW66628   8.583   9.482   5.376  0.2437  0.0634  0.3524
23142SOL    HW166629   8.550   9.499   5.283  1.4127 -0.3470 -0.1417
23142SOL    HW266630   8.677   9.448   5.373 -0.0154 -0.8061  1.6365
23143SOL     OW66631   5.738   9.315   7.615 -0.6535  0.3535  0.0932
23143SOL    HW166632   5.687   9.401   7.626  0.0763  1.0315 -1.7009
23143SOL    HW266633   5.804   9.325   7.541 -0.8680 -1.9127 -0.4213
23144SOL     OW66634   6.926   2.171   2.294  0.4094  0.3126 -0.5493
23144SOL    HW166635   6.999   2.175   2.363  0.6847 -1.8228 -0.6795
23144SOL    HW266636   6.966   2.179   2.203  0.4425 -0.2698 -0.5922
23145SOL     OW66637   7.920   6.449   1.717 -0.6048  0.1660 -0.7734
23145SOL    HW166638   7.901   6.522   1.651 -0.0988  1.5085  0.5476
23145SOL    HW266639   8.018   6.429   1.718 -0.6003  0.2130 -0.3473
23148SOL     OW66640   7.802   5.933   0.550  0.2769 -0.3952  0.9060
23148SOL    HW166641   7.852   5.869   0.608  1.3763 -1.4197 -1.1006
23148SOL    HW266642   7.866   5.983   0.492 -0.8894 -0.7831 -0.7865
23149SOL     OW66643   8.355   4.572   0.137  0.1847 -0.3259 -0.0088
23149SOL    HW166644   8.257   4.574   0.160  0.6985  1.3507  2.2027
23149SOL    HW266645   8.405   4.523   0.208  1.1400  0.0835 -0.3891
23150SOL     OW66646   1.540   2.326   2.381  0.7573  0.2421 -0.0396
23150SOL    HW166647   1.555   2.232   2.412  0.6184  0.7492  1.6518
23150SOL    HW266648   1.582   2.339   2.292  0.7915 -1.4214 -0.2878
23151SOL     OW66649   8.166   4.070   7.909 -0.1741 -0.2850  0.0311
23151SOL    HW166650   8.140   4.117   7.824 -1.0643 -1.0135 -0.1044
23151SOL    HW266651   8.240   4.120   7.953  0.6821 -0.1931 -1.4675
23152SOL     OW66652   4.279   7.253   3.771 -0.1075 -0.2926 -0.3894
23152SOL    HW166653   4.336   7.233   3.691 -0.8099  0.4128 -1.0707
23152SOL    HW266654   4.188   7.282   3.741 -0.6638 -0.9042  0.6853
23154SOL     OW66655   9.862   1.677   3.906 -0.7317  0.4397 -0.4598
23154SOL    HW166656   9.849   1.582   3.876 -1.5117  0.1293  0.8057
23154SOL    HW266657   9.945   1.714   3.864 -0.1887 -0.9299 -0.6467
23156SOL     OW66658   9.434   0.546   6.130  0.1047  0.4015  0.1726
23156SOL    HW166659   9.377   0.614   6.176  0.3827  0.1919  0.8276
23156SOL    HW266660   9.516   0.591   6.095 -0.8858  0.8868 -1.5890
23158SOL     OW66661   6.416   9.047   3.377  0.3490 -0.1480 -0.2429
23158SOL    HW166662   6.501   9.062   3.327  0.5593  0.9210  0.4199
23158SOL    HW266663   6.414   9.105   3.458 -0.5677 -0.9117  0.2905
23159SOL     OW66664   4.555   4.790   7.696 -0.2438 -0.3965 -0.7860
23159SOL    HW166665   4.654   4.793   7.709 -0.4716  0.7892  0.7753
23159SOL    HW266666   4.534   4.802   7.598  1.1595 -1.3407 -1.2242
23160SOL     OW66667   9.554   1.057   1.625 -0.8646  0.2732  0.5162
23160SOL    HW166668   9.547   0.971   1.677  0.9426  0.1140  0.5377
23160SOL    HW266669   9.599   1.126   1.681 -0.5870  0.6592 -0.1797
23162SOL     OW66670   0.697   4.036   0.359  0.4357  0.1988  0.4024
23162SOL    HW166671   0.626   3.969   0.340  2.8712 -2.7144  1.3045
23162SOL    HW266672   0.725   4.080   0.273 -0.5262 -0.5730 -0.3218
23163SOL     OW66673   4.763   7.812   4.884  0.3677 -0.5741  0.1921
23163SOL    HW166674   4.741   7.910   4.877  1.4744 -0.2028  1.5058
23163SOL    HW266675   4.854   7.796   4.845  0.4193 -0.9719  0.4689
23164SOL     OW66676   2.266   4.002   0.887  0.0134 -0.6212  0.2946
23164SOL    HW166677   2.184   3.949   0.908 -0.7063  0.7778  1.1438
23164SOL    HW266678   2.254   4.049   0.800 -0.2369 -0.1737  0.5628
23165SOL     OW66679   4.064   5.958   3.313 -0.4242 -0.1994 -0.3723
23165SOL    HW166680   3.977   5.974   3.357 -0.2041  4.2879 -1.3762
23165SOL    HW266681   4.139   5.978   3.376 -0.1357  0.5908 -0.9472
23166SOL     OW66682   9.877   3.140   0.774  0.0792  0.2269 -0.3137
23166SOL    HW166683   9.902   3.117   0.868 -1.2196  0.0455 -0.0079
23166SOL    HW266684   9.834   3.060   0.731  0.7880  0.2670 -1.1034
23167SOL     OW66685   1.375   1.306   4.226 -0.3180  0.4365 -0.2799
23167SOL    HW166686   1.387   1.406   4.221 -0.3840  0.3714 -1.9817
23167SOL    HW266687   1.369   1.269   4.134 -0.8993 -1.0865  0.3623
23168SOL     OW66688   3.523   1.557   5.360  0.2225  0.0648  0.2997
23168SOL    HW166689   3.449   1.616   5.392  0.9538  1.7008 -0.9561
23168SOL    HW266690   3.581   1.608   5.297 -0.0891 -2.4798 -2.1743
23169SOL     OW66691   1.663   9.418   1.203 -0.3030  0.0392  0.2776
23169SOL    HW166692   1.729   9.394   1.132 -0.6916  1.4192 -0.5454
23169SOL    HW266693   1.666   9.516   1.220 -1.0482 -0.1103  1.3405
23170SOL     OW66694   2.807   5.932   7.408  0.2955  0.1157 -0.5485
23170SOL    HW166695   2.738   5.871   7.367  0.9912 -1.0558  0.0015
23170SOL    HW266696   2.895   5.886   7.409  1.0187  1.4749 -0.8970
23171SOL     OW66697   8.574   9.421   5.768 -0.3092  0.5277  1.3263
23171SOL    HW166698   8.493   9.366   5.748  0.1822  0.3683 -0.3172
23171SOL    HW266699   8.657   9.368   5.749  0.1678  1.7930 -0.2007
23172SOL     OW66700   2.907   8.365   7.205 -0.5202 -0.3005  0.1595
23172SOL    HW166701   2.984   8.326   7.155 -2.8145 -0.2436 -3.6502
23172SOL    HW266702   2.842   8.293   7.227  0.5257 -0.3498  3.3748
23173SOL     OW66703   2.124   0.598   3.056 -0.5793  0.4566  0.2371
23173SOL    HW166704   2.180   0.585   2.975 -1.2110  0.1422 -0.1500
23173SOL    HW266705   2.075   0.514   3.077  0.9900 -0.0612  2.0213
23174SOL     OW66706   6.504   5.421   7.790  0.3135 -0.3088 -0.1750
23174SOL    HW166707   6.432   5.412   7.722  0.6419  1.5503 -0.7843
23174SOL    HW266708   6.568   5.345   7.781 -0.2609 -0.6721 -1.2038
23176SOL     OW66709   3.588   8.276   7.842 -0.1565  0.2612  0.2305
23176SOL    HW166710   3.611   8.241   7.751  1.8567  1.1689  0.3445
23176SOL    HW266711   3.644   8.357   7.861 -1.4660  0.8175  1.7731
23177SOL     OW66712   4.026   8.580   1.009  0.2412  0.2371 -0.4028
23177SOL    HW166713   4.023   8.669   1.054  0.1623 -0.3611  0.7936
23177SOL    HW266714   4.036   8.593   0.910 -0.0351  1.5726 -0.2668
23178SOL     OW66715   1.481   7.306   0.576 -0.4057 -0.4541 -0.2761
23178SOL    HW166716   1.487   7.276   0.481  0.6962 -0.2289 -0.2791
23178SOL    HW266717   1.441   7.232   0.631  1.9828 -1.8401 -0.3361
23179SOL     OW66718   3.979   7.646   0.340  0.0276 -0.3044  0.4301
23179SOL    HW166719   3.925   7.600   0.411  1.3778 -2.1997  0.2678
23179SOL    HW266720   3.958   7.606   0.251  0.3824  0.1624  0.1350
23181SOL     OW66721   0.792   6.838   6.648  0.2287  0.6187 -0.0054
23181SOL    HW166722   0.719   6.907   6.648  0.1100  0.4943 -0.8679
23181SOL    HW266723   0.753   6.748   6.665  0.2944  0.6687  0.4141
23182SOL     OW66724   1.551   5.890   2.069 -0.0070  0.0205  0.2739
23182SOL    HW166725   1.609   5.886   2.151  1.0113  3.0635 -0.2046
23182SOL    HW266726   1.456   5.902   2.096 -0.0052 -1.6653  1.0453
23183SOL     OW66727   0.042   2.667   3.437  0.4268 -0.3024 -0.2687
23183SOL    HW166728   0.126   2.672   3.383  0.3447  2.2989 -0.1934
23183SOL    HW266729  -0.037   2.654   3.376  0.5699  0.3014 -0.5789
23185SOL     OW66730   1.939   5.109   3.330 -0.2047  0.1303 -0.2913
23185SOL    HW166731   1.927   5.012   3.310  2.2428 -0.2469 -0.0655
23185SOL    HW266732   2.021   5.122   3.385  0.7330  2.5712 -2.1913
23186SOL     OW66733   3.184   1.452   4.109  0.0393  0.3367 -0.3550
23186SOL    HW166734   3.266   1.395   4.111  0.7099  1.2803 -0.5582
23186SOL    HW266735   3.152   1.467   4.203 -0.2784 -0.5516 -0.3134
23187SOL     OW66736   7.052   4.464   7.888  0.3041  0.3420 -0.1253
23187SOL    HW166737   7.035   4.560   7.910 -1.7349  0.2662 -1.2064
23187SOL    HW266738   7.014   4.406   7.960  0.2791  0.3011 -0.1722
23188SOL     OW66739   4.455   1.627   7.467  0.1253 -0.2008  0.0202
23188SOL    HW166740   4.376   1.654   7.522 -0.2732  2.3072 -1.6980
23188SOL    HW266741   4.425   1.565   7.394 -0.2306  0.5500 -0.4778
23189SOL     OW66742   9.227   1.299   7.760  0.0563 -0.6484 -0.5739
23189SOL    HW166743   9.130   1.289   7.782  0.1277  0.3987  0.2646
23189SOL    HW266744   9.238   1.320   7.663 -0.5966 -0.2209 -0.5529
23191SOL     OW66745   1.908   6.863   2.741 -0.1950  0.3347 -0.3503
23191SOL    HW166746   1.816   6.852   2.780 -0.2653  0.2780 -0.5302
23191SOL    HW266747   1.976   6.831   2.807 -0.2914  0.5625 -0.1378
23192SOL     OW66748   7.831   0.376   2.760 -0.0290 -0.4679 -0.0056
23192SOL    HW166749   7.748   0.338   2.719  0.5361 -0.8639 -0.7895
23192SOL    HW266750   7.908   0.363   2.698  1.2020 -2.6245  1.9187
23193SOL     OW66751   6.351   8.880   6.009 -0.7205 -0.2734 -0.2747
23193SOL    HW166752   6.450   8.868   6.016 -1.0143 -3.0403 -0.2664
23193SOL    HW266753   6.318   8.929   6.090  0.3859 -1.3249  0.8428
23195SOL     OW66754   2.075   2.381   0.219  0.0209  0.0194 -0.2436
23195SOL    HW166755   2.155   2.365   0.161 -0.5776 -0.4726 -0.9370
23195SOL    HW266756   1.994   2.395   0.162 -0.4710  0.0949  0.4590
23196SOL     OW66757   2.649   9.110   7.501  0.3240 -0.2820  0.2106
23196SOL    HW166758   2.709   9.106   7.580  1.3852  2.4601 -0.3798
23196SOL    HW266759   2.645   9.021   7.456  2.6931 -0.8974  1.1825
23197SOL     OW66760   7.397   1.407   4.350 -0.0893 -0.1798  0.0931
23197SOL    HW166761   7.474   1.456   4.309  0.9424 -1.0076  0.9997
23197SOL    HW266762   7.312   1.456   4.330  0.6242  0.5419 -1.2409
23198SOL     OW66763   6.003   0.381   1.228 -0.2498 -0.1959  0.1547
23198SOL    HW166764   6.005   0.441   1.308 -0.0199  0.8677 -0.6347
23198SOL    HW266765   5.932   0.311   1.240  0.2065 -0.4368  1.5529
23199SOL     OW66766   4.704   2.806   7.400 -0.2323 -0.5639 -0.1000
23199SOL    HW166767   4.711   2.707   7.382 -2.3538 -0.4470 -1.6684
23199SOL    HW266768   4.614   2.827   7.438 -0.7631  1.1150 -2.2166
23200SOL     OW66769   1.821   7.316   1.226 -0.5950  0.1271 -0.3858
23200SOL    HW166770   1.756   7.278   1.160 -0.8748 -0.8362  0.4176
23200SOL    HW266771   1.900   7.353   1.178 -0.6655 -0.8171 -1.2548
23202SOL     OW66772   1.953   6.522   5.867  0.0934 -0.0186 -0.1683
23202SOL    HW166773   2.043   6.480   5.875  0.2044  0.2437 -0.0446
23202SOL    HW266774   1.959   6.619   5.891 -0.2167  0.0046 -0.1833
23203SOL     OW66775   9.980   3.297   0.208 -0.1489  0.6724 -0.3193
23203SOL    HW166776  10.025   3.225   0.261  0.0347 -0.0741 -1.4549
23203SOL    HW266777  10.029   3.384   0.221 -0.7288  0.7317  1.5281
23204SOL     OW66778   9.881   6.511   3.143 -0.3333 -0.0946 -0.4836
23204SOL    HW166779   9.803   6.549   3.193 -0.6238  0.3885 -1.3033
23204SOL    HW266780   9.855   6.424   3.101 -0.3967  0.0250 -0.6871
23205SOL     OW66781   1.983   6.350   6.153 -0.2566 -0.3344 -0.1245
23205SOL    HW166782   2.002   6.317   6.061  0.8064 -1.3993  0.4631
23205SOL    HW266783   2.002   6.448   6.158  1.2757 -0.5888 -0.6249
23206SOL     OW66784   0.548   5.588   1.304 -0.1525 -0.0789  0.4240
23206SOL    HW166785   0.503   5.558   1.388 -0.4836  1.6052  0.8617
23206SOL    HW266786   0.616   5.520   1.277 -1.2159 -1.4478  1.1165
23210SOL     OW66787   3.166   4.682   1.443 -0.1189  0.1314  0.4879
23210SOL    HW166788   3.121   4.612   1.387  0.4446 -1.3411  1.8497
23210SOL    HW266789   3.206   4.752   1.383 -0.8644 -0.5841 -0.8730
23211SOL     OW66790   4.334   7.614   3.544 -0.1491 -0.6492 -0.5713
23211SOL    HW166791   4.390   7.541   3.505 -1.9235 -1.0537 -2.4383
23211SOL    HW266792   4.335   7.607   3.644  1.7013 -1.6958 -0.6321
23212SOL     OW66793   4.644   2.360   5.648  0.0947  0.5634 -0.7776
23212SOL    HW166794   4.635   2.451   5.609 -0.8010  0.7091 -0.2457
23212SOL    HW266795   4.612   2.361   5.743  2.8728  0.3646  0.1946
23213SOL     OW66796   6.515   4.899   1.132 -0.0784  0.5062 -0.3897
23213SOL    HW166797   6.428   4.922   1.089 -0.0922 -2.1436 -1.8402
23213SOL    HW266798   6.581   4.972   1.114 -1.5179  1.7829 -0.6164
23214SOL     OW66799   7.907   9.586   4.971  0.5695  0.4640 -0.3029
23214SOL    HW166800   7.841   9.515   4.998  1.4918 -0.9405 -1.7277
23214SOL    HW266801   7.941   9.632   5.054 -1.3634  0.4746  0.5209
23215SOL     OW66802   6.039   0.183   1.847 -0.0090 -0.4210 -0.2888
23215SOL    HW166803   6.106   0.241   1.892  1.7102 -2.9440  0.5249
23215SOL    HW266804   6.074   0.089   1.842 -3.5038 -1.8521  0.2685
23216SOL     OW66805   5.785   0.086   5.653  0.7317 -0.1921 -0.5036
23216SOL    HW166806   5.732   0.147   5.595  0.0125 -0.8503 -0.5481
23216SOL    HW266807   5.827   0.139   5.728 -0.5618  0.2253 -0.0632
23218SOL     OW66808   0.909   0.714   1.642  0.4536  0.3145  0.0266
23218SOL    HW166809   0.860   0.662   1.572 -1.4309 -0.3281  1.8005
23218SOL    HW266810   0.846   0.740   1.715  2.4177  0.9089  1.5498
23220SOL     OW66811   7.574   4.784   2.101 -0.2067  0.2671  0.0936
23220SOL    HW166812   7.605   4.770   2.194 -0.5388 -0.3126  0.1212
23220SOL    HW266813   7.534   4.875   2.092  2.2373  1.3587 -0.1584
23222SOL     OW66814   2.567   3.183   1.573  0.2663 -0.5801  0.1433
23222SOL    HW166815   2.634   3.219   1.637  0.2024  0.5217 -0.3883
23222SOL    HW266816   2.538   3.256   1.510 -2.0635 -0.7807  0.9185
23225SOL     OW66817   1.589   6.587   7.291  0.2386 -0.4141  0.2513
23225SOL    HW166818   1.611   6.506   7.238  1.1609  0.0144 -0.0365
23225SOL    HW266819   1.626   6.578   7.384  0.0662 -0.4505  0.3177
23226SOL     OW66820   9.338   1.948   3.537  0.0747  0.0971 -0.6194
23226SOL    HW166821   9.375   1.880   3.473 -0.4805  0.1202 -0.9657
23226SOL    HW266822   9.248   1.919   3.568 -1.2933  1.9397 -2.7685
23227SOL     OW66823   3.472   3.090   1.213 -0.6231  0.8157  0.1557
23227SOL    HW166824   3.517   3.004   1.235 -1.2741  0.0791 -1.3328
23227SOL    HW266825   3.373   3.075   1.203 -0.5610  1.4217 -1.5888
23228SOL     OW66826   9.662   4.624   1.785 -0.1286  0.4773 -0.2969
23228SOL    HW166827   9.681   4.721   1.800  1.0650  0.4820 -1.7241
23228SOL    HW266828   9.749   4.575   1.771 -0.7113 -0.8173  0.5679
23229SOL     OW66829   0.949   3.843   4.016 -0.3162 -0.2615 -0.5021
23229SOL    HW166830   0.889   3.903   4.070  1.4456  1.5604 -0.5304
23229SOL    HW266831   1.036   3.831   4.064  0.1017 -1.1805 -1.4695
23230SOL     OW66832   7.172   3.487   0.743 -1.1235  0.3889 -0.4429
23230SOL    HW166833   7.256   3.447   0.779 -2.4956 -2.7005 -0.5300
23230SOL    HW266834   7.167   3.584   0.769  2.0800  0.4289  0.1494
23231SOL     OW66835   3.956   4.243   7.148  0.1178  0.4452 -0.3975
23231SOL    HW166836   3.891   4.244   7.224  1.5480 -1.5016  0.9000
23231SOL    HW266837   3.925   4.177   7.079  0.8139 -0.6782  0.3438
23232SOL     OW66838   2.774   2.578   1.005 -0.2933  0.0606 -0.7804
23232SOL    HW166839   2.828   2.583   1.089  1.3642 -1.1914 -1.7362
23232SOL    HW266840   2.770   2.482   0.974 -2.7182  0.1858 -0.9607
23233SOL     OW66841   4.303   7.003   1.470  0.0187 -0.4063 -0.7104
23233SOL    HW166842   4.244   6.966   1.398 -0.0175 -0.9459 -0.4110
23233SOL    HW266843   4.266   7.090   1.503  0.0812 -0.1182 -1.3976
23234SOL     OW66844   9.982   4.529   0.583  0.0227 -0.1871  0.0768
23234SOL    HW166845   9.966   4.584   0.665  0.3660 -1.0070  0.6873
23234SOL    HW266846   9.926   4.566   0.508 -0.4957  0.3968  0.7382
23236SOL     OW66847   8.344   7.867   7.775 -0.4161 -0.1669 -0.1631
23236SOL    HW166848   8.282   7.945   7.785 -0.2461 -0.2055  1.2494
23236SOL    HW266849   8.345   7.813   7.859  1.4775 -0.2125 -0.1828
23237SOL     OW66850   4.873   8.872   5.432 -0.2988 -0.1812 -0.4811
23237SOL    HW166851   4.830   8.784   5.451  0.6297  0.0056  2.9246
23237SOL    HW266852   4.968   8.871   5.466 -0.1664  1.9909 -0.7107
23238SOL     OW66853   7.217   4.001   1.678 -0.4637 -0.0873  0.0659
23238SOL    HW166854   7.308   4.041   1.666 -1.1810  1.4894 -0.2819
23238SOL    HW266855   7.198   3.937   1.604 -0.3401  0.9308 -0.8553
23239SOL     OW66856   3.963   3.665   4.457  0.0312  0.0636 -0.7343
23239SOL    HW166857   3.973   3.606   4.537 -3.5369 -1.0191 -0.9694
23239SOL    HW266858   4.013   3.627   4.380 -0.2289 -1.3452 -0.2128
23240SOL     OW66859   3.230   7.110   6.323  0.2342  0.4123 -0.2285
23240SOL    HW166860   3.190   7.166   6.251 -0.1364  1.6089  0.8953
23240SOL    HW266861   3.201   7.015   6.310 -0.3401  0.7254 -1.2945
23241SOL     OW66862   1.906   5.912   7.938  0.5757  0.0622 -0.0544
23241SOL    HW166863   1.964   5.987   7.969 -0.0494  0.8710 -0.8060
23241SOL    HW266864   1.877   5.928   7.844  1.5032 -1.7834 -0.6877
23242SOL     OW66865   8.293   5.972   3.717  0.0809 -0.0904 -0.2589
23242SOL    HW166866   8.380   6.018   3.735 -0.5280  0.4345  1.4848
23242SOL    HW266867   8.244   5.960   3.803 -0.4291 -2.7148 -0.8744
23243SOL     OW66868   5.618   4.927   0.945 -0.4827 -0.3729  0.0588
23243SOL    HW166869   5.667   4.956   1.027  2.5908  0.7859 -2.0899
23243SOL    HW266870   5.621   5.000   0.877 -2.1099 -1.6999 -1.4747
23244SOL     OW66871   9.415   6.029   7.660 -0.4232 -0.3325 -0.2664
23244SOL    HW166872   9.447   6.043   7.566 -1.2871  1.1240 -0.3548
23244SOL    HW266873   9.492   5.998   7.717  0.7710  1.3803 -0.8716
23245SOL     OW66874   9.200   7.449   5.936 -0.2265 -0.0950 -0.9808
23245SOL    HW166875   9.246   7.536   5.950  2.5070 -1.8161  1.4276
23245SOL    HW266876   9.241   7.402   5.857  1.3110 -1.0436  0.3515
23246SOL     OW66877   1.677   1.487   4.364 -0.2325 -0.6786 -0.3268
23246SOL    HW166878   1.584   1.522   4.358 -0.2539 -0.8761 -1.2004
23246SOL    HW266879   1.728   1.539   4.433 -0.6467  0.1979 -0.6826
23248SOL     OW66880   0.601   6.453   4.587 -0.1080  0.4037  0.1179
23248SOL    HW166881   0.527   6.388   4.604 -0.8028  1.5344  1.5604
23248SOL    HW266882   0.688   6.404   4.583 -0.8159 -0.8236 -0.6529
23249SOL     OW66883   8.724   7.513   5.281 -0.6404  0.0104 -0.1068
23249SOL    HW166884   8.764   7.589   5.230  0.9582 -0.4693  0.4260
23249SOL    HW266885   8.779   7.495   5.363 -1.1417 -1.5877 -0.1160
23251SOL     OW66886   6.246   3.711   0.782 -0.1732  0.0012 -0.2954
23251SOL    HW166887   6.260   3.760   0.867  2.5664 -0.1912 -0.5638
23251SOL    HW266888   6.149   3.711   0.758 -0.7824  1.3268  2.0297
23252SOL     OW66889   1.756   8.878   7.833 -0.2699  0.1251 -0.5946
23252SOL    HW166890   1.746   8.932   7.916 -2.4019 -1.6157  0.3280
23252SOL    HW266891   1.792   8.936   7.760 -0.8598  2.3441  0.8218
23253SOL     OW66892   2.550   6.635   2.067 -0.2344  0.2090 -0.3547
23253SOL    HW166893   2.520   6.702   2.135  1.7129 -1.0556  1.8205
23253SOL    HW266894   2.492   6.554   2.072 -2.0925  1.3154 -2.4551
23254SOL     OW66895   3.744   6.977   6.425  0.4717 -0.0589 -0.1706
23254SOL    HW166896   3.689   6.902   6.389  0.1280  1.2040 -2.3791
23254SOL    HW266897   3.689   7.061   6.426  1.5411  0.6503  0.0568
23257SOL     OW66898   2.380   4.798   7.859 -0.5561 -0.0298 -0.4283
23257SOL    HW166899   2.355   4.887   7.821  0.7676 -0.2312 -1.8172
23257SOL    HW266900   2.409   4.810   7.954 -0.7515  0.9539 -0.4825
23258SOL     OW66901   0.656   6.179   3.771  0.2654  0.1161 -0.0429
23258SOL    HW166902   0.572   6.125   3.775 -0.0021  0.5653  0.4113
23258SOL    HW266903   0.709   6.165   3.855  0.0757  0.7501  0.1831
23259SOL     OW66904   8.826   1.159   0.089 -0.0027  0.4675  0.6843
23259SOL    HW166905   8.907   1.206   0.055 -2.0033  3.8430  0.3836
23259SOL    HW266906   8.808   1.187   0.183 -0.0404 -1.3641  1.2450
23260SOL     OW66907   7.912   4.043   4.257  0.7070 -0.1565 -0.3512
23260SOL    HW166908   7.843   4.071   4.190  1.2441  0.6066 -0.5959
23260SOL    HW266909   7.994   4.013   4.210  1.7386  2.0633 -0.0352
23262SOL     OW66910   4.929   3.514   1.718  0.0350 -0.5492 -0.0522
23262SOL    HW166911   4.841   3.515   1.671  0.6352 -1.6704 -1.2578
23262SOL    HW266912   4.927   3.446   1.791  0.1100 -1.0610 -0.5220
23263SOL     OW66913   3.843   1.725   7.118 -0.3897 -0.3496 -0.4335
23263SOL    HW166914   3.934   1.727   7.077  0.0414  1.3467  0.5941
23263SOL    HW266915   3.787   1.798   7.080 -0.0236  1.1713  1.8515
23264SOL     OW66916   0.596   0.398   5.719 -0.4015  0.1950  0.3930
23264SOL    HW166917   0.501   0.370   5.733 -0.6767  0.1706 -1.3797
23264SOL    HW266918   0.652   0.318   5.700 -0.7757  0.5798 -2.4678
23265SOL     OW66919   8.251   9.699   3.681  0.0869  0.1578  0.3930
23265SOL    HW166920   8.307   9.673   3.602  0.2938  0.1531  0.5421
23265SOL    HW266921   8.185   9.769   3.653 -1.0373 -1.1235 -0.2088
23267SOL     OW66922   7.444   5.539   0.970 -0.6232  0.4329  0.4297
23267SOL    HW166923   7.463   5.600   1.048  2.0195  0.3004 -0.0732
23267SOL    HW266924   7.426   5.447   1.004  0.3817  0.4050  0.9033
23268SOL     OW66925   6.497   2.459   5.275 -0.0600 -0.1349 -0.6660
23268SOL    HW166926   6.484   2.535   5.211  3.0330  0.9637 -0.0411
23268SOL    HW266927   6.550   2.387   5.230 -0.1749 -0.5246 -0.1805
23269SOL     OW66928   2.096   8.159   7.470  0.3104 -0.3227  0.5441
23269SOL    HW166929   1.998   8.177   7.470 -0.1833 -2.7995  2.5582
23269SOL    HW266930   2.126   8.137   7.377 -1.0769  0.1514 -0.0328
23270SOL     OW66931   2.795   5.489   4.475 -0.3218 -0.1125  0.0074
23270SOL    HW166932   2.706   5.510   4.435  0.2495 -0.5722 -1.5286
23270SOL    HW266933   2.867   5.532   4.421  0.5517 -1.9321 -0.3262
23272SOL     OW66934   7.800   9.002   2.214 -0.6122  0.4933 -0.2351
23272SOL    HW166935   7.725   8.968   2.270  0.6814 -1.3508  0.4371
23272SOL    HW266936   7.880   9.020   2.271  0.2145  0.1450 -1.2469
23274SOL     OW66937   3.224   0.012   3.847 -0.2627 -0.2201 -0.3508
23274SOL    HW166938   3.162  -0.033   3.912 -0.4420  0.6102  0.0561
23274SOL    HW266939   3.170   0.058   3.777 -0.1734  1.9305  0.9498
23275SOL     OW66940   4.206   1.938   6.356 -0.2345  0.0773 -0.1096
23275SOL    HW166941   4.173   1.984   6.438 -1.3497 -0.8109 -0.0529
23275SOL    HW266942   4.222   1.841   6.376 -0.2844 -0.0929 -0.8668
23276SOL     OW66943   7.873   1.457   5.837  0.0372  0.1890 -0.1900
23276SOL    HW166944   7.817   1.448   5.920  1.0943  0.1390  0.5339
23276SOL    HW266945   7.963   1.416   5.853  0.5517  0.9461 -1.0736
23277SOL     OW66946   3.147   7.665   4.087  0.0746 -0.0496 -0.1826
23277SOL    HW166947   3.050   7.680   4.108 -0.4551  0.1486 -2.6014
23277SOL    HW266948   3.179   7.738   4.026  1.0828 -1.4771 -1.3860
23280SOL     OW66949   4.847   0.697   5.326 -0.0853 -0.2864 -0.5333
23280SOL    HW166950   4.780   0.768   5.306  1.0194  0.4083 -1.8677
23280SOL    HW266951   4.902   0.679   5.244  0.1885 -2.1024  0.0269
23281SOL     OW66952   8.136   9.135   6.886 -0.4694  0.4364  0.2501
23281SOL    HW166953   8.114   9.224   6.925 -0.7979  1.5795 -2.4583
23281SOL    HW266954   8.235   9.128   6.872 -0.3796  0.1235  1.0127
23282SOL     OW66955   3.299   1.903   7.881 -0.6917 -0.2395 -0.0414
23282SOL    HW166956   3.225   1.838   7.862 -0.2422 -0.7662  0.0061
23282SOL    HW266957   3.387   1.857   7.872 -0.4081 -0.1419  1.8591
23284SOL     OW66958   8.269   0.439   5.113 -0.5904 -0.2355  0.4297
23284SOL    HW166959   8.340   0.374   5.086  0.7768  1.3474  0.0902
23284SOL    HW266960   8.201   0.446   5.040 -0.9306 -1.4967  0.6047
23285SOL     OW66961   1.922   4.318   7.234  0.1964  0.2475  0.3080
23285SOL    HW166962   1.858   4.393   7.246 -0.0383 -0.2728  2.4255
23285SOL    HW266963   1.884   4.234   7.273  1.6724 -0.3220  0.5656
23286SOL     OW66964   2.161   7.188   6.168 -0.8719  0.8891  0.1907
23286SOL    HW166965   2.061   7.191   6.173 -0.8973 -0.1751  0.2796
23286SOL    HW266966   2.194   7.265   6.113 -1.8404  0.2334 -1.3160
23287SOL     OW66967   4.171   2.175   5.727  0.3329 -0.2146  0.1095
23287SOL    HW166968   4.232   2.096   5.727  1.9674  1.0030 -1.6533
23287SOL    HW266969   4.111   2.171   5.648 -1.7435 -1.2385  1.6667
23288SOL     OW66970   3.260   9.134   2.852  0.3023 -0.3561  0.2914
23288SOL    HW166971   3.249   9.227   2.887  0.2031 -0.7857  1.4515
23288SOL    HW266972   3.358   9.111   2.850  0.3347 -0.1854 -0.1118
23289SOL     OW66973   7.142   0.492   7.567 -0.2470  0.4168 -0.6134
23289SOL    HW166974   7.072   0.484   7.639  1.6705 -1.2976  1.1230
23289SOL    HW266975   7.169   0.401   7.536  2.4696  0.9724  0.0182
23291SOL     OW66976   9.352   6.170   1.670 -0.1993  0.1046 -0.0264
23291SOL    HW166977   9.441   6.148   1.710 -0.3938  1.8511  1.4232
23291SOL    HW266978   9.308   6.086   1.638  1.2872 -0.9579  0.6725
23292SOL     OW66979   9.436   8.587   6.695 -0.1358 -0.0504  0.3362
23292SOL    HW166980   9.435   8.508   6.634  0.6900 -0.6429  1.0929
23292SOL    HW266981   9.471   8.667   6.645 -0.2061 -0.3450 -0.1890
23294SOL     OW66982   7.785   7.533   5.439 -0.5246 -0.0445 -0.2547
23294SOL    HW166983   7.788   7.493   5.531 -0.6877  0.6926  0.0782
23294SOL    HW266984   7.693   7.569   5.422 -0.7813 -1.0784 -1.0980
23295SOL     OW66985   0.892   2.267   6.438 -0.1020 -0.0090 -0.5458
23295SOL    HW166986   0.805   2.234   6.402 -0.3082 -0.4251  0.3222
23295SOL    HW266987   0.905   2.232   6.531  0.5504  0.8192 -0.3164
23296SOL     OW66988   5.549   7.924   2.710  0.0211 -0.4242  0.3727
23296SOL    HW166989   5.478   7.879   2.657  0.0448 -2.6932  2.1808
23296SOL    HW266990   5.634   7.872   2.704 -0.0312 -0.8614  2.7452
23297SOL     OW66991   7.995   4.160   6.866 -0.6714 -0.1394 -0.1327
23297SOL    HW166992   7.978   4.214   6.785 -1.6708 -0.8102 -0.3795
23297SOL    HW266993   8.080   4.108   6.855 -1.3681 -1.0709 -1.2093
23298SOL     OW66994   4.544   1.872   5.587 -0.4895 -0.4549  0.4533
23298SOL    HW166995   4.589   1.783   5.594  0.0836 -0.2338 -0.3195
23298SOL    HW266996   4.613   1.944   5.582 -0.8779 -0.1710 -1.5080
23299SOL     OW66997   7.762   6.567   7.140  0.4353  0.1702  0.2343
23299SOL    HW166998   7.781   6.654   7.094 -0.0470  0.4844  0.6322
23299SOL    HW266999   7.848   6.518   7.153  0.8211  0.9910  0.8135
23300SOL     OW67000   7.200   3.171   3.588  0.4581  0.1751  0.0835
23300SOL    HW167001   7.180   3.233   3.664  1.2959 -0.0462  0.4852
23300SOL    HW267002   7.257   3.217   3.521  1.0824 -0.1529  0.3825
23301SOL     OW67003   0.983   8.302   3.791  0.4199  0.5063 -0.2766
23301SOL    HW167004   0.971   8.203   3.797 -0.1166  0.5627 -0.3670
23301SOL    HW267005   1.080   8.324   3.791  0.5610 -0.0834 -1.2227
23303SOL     OW67006   6.807   0.527   2.364  0.9642 -0.1825  0.6597
23303SOL    HW167007   6.708   0.530   2.375  0.9450  1.3278  0.2501
23303SOL    HW267008   6.830   0.474   2.282  0.5252 -0.9951  1.0614
23304SOL     OW67009   0.659   0.091   2.970  0.1427 -0.5450  0.1016
23304SOL    HW167010   0.743   0.052   2.933  0.8379  0.8430  0.1701
23304SOL    HW267011   0.593   0.106   2.897  0.6988  0.1765 -0.2585
23305SOL     OW67012   6.098   0.068   5.367  0.2459 -0.1567 -0.1781
23305SOL    HW167013   6.109   0.063   5.268  2.3615 -1.7938  0.0917
23305SOL    HW267014   6.005   0.043   5.392  0.3015 -1.9314 -1.6310
23306SOL     OW67015   9.409   7.614   3.304 -0.5592 -0.2360 -0.2322
23306SOL    HW167016   9.391   7.706   3.269 -0.7716 -0.0352  0.3940
23306SOL    HW267017   9.375   7.607   3.398  1.0157 -0.3953  0.3501
23307SOL     OW67018   7.766   5.649   4.857  0.6541 -0.9984  0.4636
23307SOL    HW167019   7.735   5.732   4.810  2.0824 -0.4213  0.4839
23307SOL    HW267020   7.782   5.577   4.791  0.9495 -0.7433  0.2532
23308SOL     OW67021   7.733   0.506   3.518  0.0812  0.4149  0.8847
23308SOL    HW167022   7.794   0.579   3.547  1.2738 -0.5435  0.8399
23308SOL    HW267023   7.745   0.490   3.420 -1.9590  1.8032  0.3818
23309SOL     OW67024   6.522   6.169   0.020 -0.2927 -0.1479 -0.5054
23309SOL    HW167025   6.603   6.138  -0.030 -0.1368  0.2116 -0.4837
23309SOL    HW267026   6.458   6.212  -0.043 -2.5010 -4.3648 -1.2610
23312SOL     OW67027   1.428   3.312   6.919  0.5036  0.2217 -0.0179
23312SOL    HW167028   1.488   3.307   6.839  0.1433  0.8946 -0.3395
23312SOL    HW267029   1.482   3.301   7.002  1.1108  0.9877 -0.2978
23313SOL     OW67030   1.868   0.953   7.576  0.3908 -0.1537  0.5060
23313SOL    HW167031   1.772   0.951   7.602  0.2859  0.0813  0.1431
23313SOL    HW267032   1.897   1.048   7.563  1.3762 -0.0509  3.2272
23314SOL     OW67033   0.503   4.220   7.413 -0.1661  0.7673  0.2726
23314SOL    HW167034   0.434   4.277   7.458 -0.2956 -0.1405  1.2482
23314SOL    HW267035   0.463   4.175   7.333 -0.6024  0.5413  0.6168
23315SOL     OW67036   1.923   7.255   0.354 -0.2320  0.4566 -0.0939
23315SOL    HW167037   1.862   7.185   0.317  0.2646  0.9712 -1.9434
23315SOL    HW267038   2.012   7.215   0.375 -0.2238  0.3569 -0.3246
23317SOL     OW67039   6.263   7.485   5.050 -0.4155 -0.1697  0.8794
23317SOL    HW167040   6.310   7.447   5.130 -0.1972 -1.2263  0.2451
23317SOL    HW267041   6.164   7.483   5.066 -0.3194  0.8474  1.6671
23318SOL     OW67042   3.084   7.871   1.251  0.0965  0.3740 -0.1187
23318SOL    HW167043   3.152   7.807   1.289  0.1506  0.5127  0.0224
23318SOL    HW267044   3.068   7.945   1.317 -1.3732 -0.5017  0.5359
23319SOL     OW67045   9.929   0.217   7.201  0.1857 -0.2046 -0.3842
23319SOL    HW167046   9.950   0.134   7.252 -1.6233  0.6410  1.8111
23319SOL    HW267047   9.883   0.193   7.115  2.6818 -1.5970 -1.4213
23320SOL     OW67048   5.242   1.572   4.717 -0.0253 -0.0873  0.2239
23320SOL    HW167049   5.183   1.493   4.703 -0.2005  0.0038  0.4493
23320SOL    HW267050   5.207   1.650   4.666  1.8346 -0.9602 -2.5103
23321SOL     OW67051   8.341   4.153   0.830  0.0979  0.0183 -0.3950
23321SOL    HW167052   8.413   4.212   0.867  0.1447  0.3293 -0.9684
23321SOL    HW267053   8.286   4.117   0.905  0.7954 -0.1498  0.0418
23322SOL     OW67054   3.593   8.656   4.335 -0.4960 -0.4661  0.0813
23322SOL    HW167055   3.521   8.662   4.266  0.2609  1.5390 -0.5641
23322SOL    HW267056   3.678   8.626   4.292 -0.2631 -0.1498  0.3190
23323SOL     OW67057   3.082   6.376   0.102 -0.1021 -0.0482 -0.2661
23323SOL    HW167058   3.163   6.434   0.110  0.5391 -0.8618 -0.9178
23323SOL    HW267059   3.106   6.281   0.123 -1.3343  0.0340  1.6684
23324SOL     OW67060   5.574   5.619   1.959  0.1255 -0.4583 -0.2792
23324SOL    HW167061   5.611   5.576   1.877 -0.6032  0.6379 -1.1957
23324SOL    HW267062   5.477   5.640   1.945  0.1068  0.1625  0.6845
23325SOL     OW67063   2.195   7.044   4.068  0.7669 -0.9096  0.4148
23325SOL    HW167064   2.139   7.126   4.055  0.7156 -1.0858 -0.5436
23325SOL    HW267065   2.207   7.026   4.166 -0.3190 -0.5114  0.6253
23326SOL     OW67066   4.106   1.239   0.540 -0.3546  0.6203 -0.2279
23326SOL    HW167067   4.103   1.296   0.623  0.2811  1.1426 -0.5549
23326SOL    HW267068   4.202   1.226   0.513 -0.3699 -1.9461  0.7601
23327SOL     OW67069   2.303   3.391   6.446 -0.5146 -0.4468  0.1783
23327SOL    HW167070   2.252   3.472   6.418  0.6224  0.1136 -0.3203
23327SOL    HW267071   2.286   3.317   6.381  0.5914  0.2548 -0.9433
23328SOL     OW67072   1.131   8.647   1.640  0.4815  0.1591 -0.9089
23328SOL    HW167073   1.079   8.641   1.555 -0.2243  1.2221 -0.5462
23328SOL    HW267074   1.229   8.645   1.619  0.3107  0.6769 -1.7548
23329SOL     OW67075   1.433   1.108   5.911 -0.3684  0.0730  0.1485
23329SOL    HW167076   1.406   1.204   5.913  0.0126  0.1646  1.2246
23329SOL    HW267077   1.531   1.102   5.888 -0.4153 -0.0600 -0.0139
23330SOL     OW67078   5.355   4.450   7.790  0.1260  0.4746 -0.7484
23330SOL    HW167079   5.261   4.479   7.775  0.3952  1.0114 -1.4566
23330SOL    HW267080   5.356   4.362   7.837 -0.6938  2.3798  2.9977
23331SOL     OW67081   1.704   5.556   2.226 -0.2794 -0.5756  0.1110
23331SOL    HW167082   1.794   5.517   2.245  0.5864  0.6449 -1.3616
23331SOL    HW267083   1.691   5.562   2.127 -1.8803 -0.4868  0.3122
23332SOL     OW67084   4.908   3.971   7.813 -0.0538 -0.0235 -0.0895
23332SOL    HW167085   4.872   3.961   7.721 -0.1757 -0.2455 -0.0194
23332SOL    HW267086   4.839   3.941   7.879  0.6441 -1.4415  0.0028
23333SOL     OW67087   4.032   7.372   3.725  0.1220 -0.5199 -0.3590
23333SOL    HW167088   4.039   7.435   3.648 -2.5458  0.5305  0.1771
23333SOL    HW267089   3.987   7.418   3.802 -0.1799 -2.5149  0.7025
23335SOL     OW67090   2.998   6.929   7.199 -0.3622  0.4367 -0.2256
23335SOL    HW167091   3.021   6.904   7.105  1.8340 -3.5421  1.2224
23335SOL    HW267092   2.926   6.868   7.233 -0.5317  1.2670  0.9472
23336SOL     OW67093   5.583   7.440   2.911 -0.5552 -0.0005 -0.0961
23336SOL    HW167094   5.669   7.428   2.961 -1.6805  0.8448  2.0916
23336SOL    HW267095   5.596   7.505   2.837  0.9173 -0.5975 -0.3828
23337SOL     OW67096   4.687   0.901   6.595 -0.0676 -0.3060  0.1227
23337SOL    HW167097   4.688   1.001   6.593  2.3881 -0.2820  0.2791
23337SOL    HW267098   4.760   0.868   6.655 -0.0581 -2.2046 -0.8690
23338SOL     OW67099   2.252   4.147   7.771 -0.5140 -0.1011  0.1929
23338SOL    HW167100   2.317   4.071   7.769  0.6741  0.9389 -2.2842
23338SOL    HW267101   2.167   4.116   7.813  0.4590 -2.3640  0.6061
23339SOL     OW67102   1.793   0.198   7.192  0.7849  0.0404  0.0211
23339SOL    HW167103   1.851   0.275   7.164  0.4297  0.4125  0.3131
23339SOL    HW267104   1.766   0.147   7.111 -1.3353  1.8963 -0.4828
23340SOL     OW67105   4.897   1.371   5.658  0.3157  0.7185 -0.2155
23340SOL    HW167106   4.870   1.286   5.612  0.1003  2.5579 -3.6885
23340SOL    HW267107   4.821   1.404   5.714  1.2516 -2.5892  3.1647
23341SOL     OW67108   8.681   7.284   3.870  0.1197 -0.1573  0.2582
23341SOL    HW167109   8.670   7.188   3.842  1.4680 -0.2108 -0.1182
23341SOL    HW267110   8.770   7.295   3.914 -0.2832  0.8077  0.8393
23342SOL     OW67111   2.247   6.319   0.228  0.1677 -0.0185  0.5420
23342SOL    HW167112   2.276   6.357   0.140 -2.9769 -0.6237 -0.8516
23342SOL    HW267113   2.320   6.261   0.265  0.7191 -1.6487 -2.8550
23343SOL     OW67114   8.122   2.400   0.183  0.4740  0.3912 -0.3185
23343SOL    HW167115   8.191   2.435   0.247 -0.4163  2.3904 -0.4217
23343SOL    HW267116   8.053   2.349   0.234  2.1780 -1.9122 -0.2532
23346SOL     OW67117   7.386   1.198   0.337  0.1589  0.3187  0.4703
23346SOL    HW167118   7.383   1.101   0.360  1.3587  0.5697  1.7407
23346SOL    HW267119   7.390   1.253   0.420  1.1740  1.3904 -0.2549
23347SOL     OW67120   0.986   4.983   3.300  0.0814  0.0708 -0.3885
23347SOL    HW167121   1.069   4.939   3.335  1.4650  2.4987 -0.5250
23347SOL    HW267122   0.956   5.054   3.364 -0.6048  0.7152 -1.4047
23348SOL     OW67123   7.944   5.431   1.312  0.2113 -0.5182  0.0647
23348SOL    HW167124   7.933   5.348   1.257 -0.5502  0.5949 -1.4958
23348SOL    HW267125   7.876   5.432   1.384 -1.1072 -0.3005 -1.1571
23350SOL     OW67126   3.753   9.442   1.240  0.0454 -0.3825 -0.4257
23350SOL    HW167127   3.715   9.449   1.148 -0.7890 -1.9962 -0.2380
23350SOL    HW267128   3.768   9.345   1.262  1.0957  0.0428  0.7878
23352SOL     OW67129   6.969   0.552   3.090 -0.1476 -0.6258  0.5540
23352SOL    HW167130   6.906   0.613   3.042  0.5718 -1.2416 -1.2292
23352SOL    HW267131   6.918   0.481   3.138 -0.9316  0.6930  1.6830
23353SOL     OW67132   3.914   9.752   4.441 -0.3796 -0.2571  0.9658
23353SOL    HW167133   3.913   9.698   4.357 -2.3093  1.4029 -0.1246
23353SOL    HW267134   3.996   9.809   4.444  0.0536 -0.8612  0.5750
23354SOL     OW67135   6.098   3.039   2.549 -0.2360  0.0348  0.1446
23354SOL    HW167136   6.119   3.000   2.459 -0.3173  0.3121  0.0058
23354SOL    HW267137   6.015   3.095   2.544 -0.4001 -0.1761  0.4551
23355SOL     OW67138   7.265   7.238   2.352 -0.0212 -0.5654 -0.3913
23355SOL    HW167139   7.205   7.218   2.274 -0.0722  2.5097 -1.1979
23355SOL    HW267140   7.210   7.239   2.436 -0.9990  1.3923 -1.0193
23356SOL     OW67141   9.332   9.430   1.690  0.4008  0.1733 -0.0410
23356SOL    HW167142   9.249   9.475   1.725  0.0942 -2.5138  2.9175
23356SOL    HW267143   9.410   9.492   1.700 -0.4528  1.0355  1.5368
23358SOL     OW67144   1.014   2.644   2.400  0.0278 -0.0270  0.3508
23358SOL    HW167145   1.045   2.653   2.306 -0.8207 -0.1254  0.0619
23358SOL    HW267146   1.078   2.585   2.451 -0.2616 -1.1084 -0.5180
23359SOL     OW67147   6.334   1.424   6.053  0.1095  0.0735 -0.1193
23359SOL    HW167148   6.431   1.445   6.070 -0.7859  3.2218  1.4993
23359SOL    HW267149   6.298   1.488   5.986 -1.1725 -0.2335  0.2702
23360SOL     OW67150   3.110   2.737   3.165 -0.4537 -0.4625  0.2991
23360SOL    HW167151   3.108   2.646   3.124 -0.7998  0.8943 -2.8240
23360SOL    HW267152   3.017   2.774   3.167 -0.0024  0.7463 -0.6669
23361SOL     OW67153   4.319   2.537   5.435 -0.4539 -0.3317 -0.4851
23361SOL    HW167154   4.228   2.539   5.395 -0.7267  0.0646  0.1498
23361SOL    HW267155   4.366   2.453   5.407 -0.3625  0.2871 -2.2321
23362SOL     OW67156   9.422   4.079   0.781 -0.7514 -0.0849  0.1925
23362SOL    HW167157   9.520   4.099   0.792 -0.8377  0.3905  0.1264
23362SOL    HW267158   9.410   3.984   0.753 -0.2981 -0.1216  0.1206
23363SOL     OW67159   4.631   3.942   1.915  0.3792  0.2782 -0.1774
23363SOL    HW167160   4.580   4.027   1.898  1.3988  0.8889 -0.2317
23363SOL    HW267161   4.591   3.867   1.863 -0.6133  0.7019 -0.0249
23365SOL     OW67162   2.504   1.591   6.762  0.1948  0.5447  0.0482
23365SOL    HW167163   2.562   1.575   6.682  0.8803 -1.5704  0.9371
23365SOL    HW267164   2.560   1.593   6.845 -0.7050  0.9715  0.6613
23366SOL     OW67165   9.647   4.855   1.975 -0.1882 -0.0098 -0.1057
23366SOL    HW167166   9.596   4.920   2.031  1.9465  1.1194  0.6150
23366SOL    HW267167   9.694   4.789   2.034 -0.8634 -1.0895 -0.7535
23369SOL     OW67168   8.704   2.384   0.269 -0.3185 -0.2411  0.0388
23369SOL    HW167169   8.772   2.453   0.291 -0.4623  0.4247 -1.5259
23369SOL    HW267170   8.645   2.368   0.348 -0.4020  1.5543  0.3479
23370SOL     OW67171   6.186   9.918   7.049 -0.2020  0.1510  0.2282
23370SOL    HW167172   6.146   9.911   6.958 -3.1405 -0.1731  1.5013
23370SOL    HW267173   6.238  10.004   7.056 -1.8380  1.2667 -1.0229
23371SOL     OW67174   2.296   7.908   0.119  0.1434 -0.0655  0.2359
23371SOL    HW167175   2.245   7.827   0.145  1.4980 -0.9290  0.2213
23371SOL    HW267176   2.364   7.930   0.189 -1.3218  2.0560  1.0676
23372SOL     OW67177   0.690   0.713   0.993  0.4231 -0.3425  0.3439
23372SOL    HW167178   0.770   0.772   1.004  0.6763 -0.8030  1.0640
23372SOL    HW267179   0.681   0.686   0.897  1.5363 -0.8391  0.3648
23373SOL     OW67180   6.955   2.189   5.495  0.2761  0.5209 -0.0663
23373SOL    HW167181   7.016   2.255   5.453 -0.1110  1.3921  0.7178
23373SOL    HW267182   6.973   2.184   5.594 -1.5497  1.5164  0.3419
23374SOL     OW67183   4.133   9.349   7.775 -0.5406 -0.9223 -0.6482
23374SOL    HW167184   4.104   9.443   7.756  0.3232 -0.4554  0.3126
23374SOL    HW267185   4.060   9.301   7.823 -1.0496 -0.7978 -1.2941
23375SOL     OW67186   7.770   2.338   1.914 -0.9568  0.2131  0.2660
23375SOL    HW167187   7.861   2.333   1.873 -0.8652  0.0055  0.4862
23375SOL    HW267188   7.704   2.290   1.856 -0.9554  0.5089  0.0226
23376SOL     OW67189   2.334   5.991   0.289  0.0423 -0.0610  0.6916
23376SOL    HW167190   2.250   6.028   0.328 -0.2416  1.6154 -1.3979
23376SOL    HW267191   2.413   6.041   0.325 -0.0586  0.1266  0.6511
23378SOL     OW67192   0.647   1.011   3.324 -0.1214 -0.0927 -0.0221
23378SOL    HW167193   0.666   0.966   3.237  0.4265 -0.2751  0.1948
23378SOL    HW267194   0.674   0.952   3.400 -0.7336  0.0064  0.2756
23379SOL     OW67195   0.225   4.855   6.506 -0.8380  0.4051 -0.1292
23379SOL    HW167196   0.200   4.902   6.591  1.7493  0.3022  0.7311
23379SOL    HW267197   0.272   4.919   6.445 -1.1355  0.0288 -0.7605
23381SOL     OW67198   9.435   2.545   2.061  0.7026 -0.1630  0.1573
23381SOL    HW167199   9.449   2.447   2.048  0.8031 -0.1997  0.5575
23381SOL    HW267200   9.337   2.564   2.067  0.6787 -0.2238 -0.0386
23382SOL     OW67201   0.835   8.151   0.394  0.1186  0.0737  0.0113
23382SOL    HW167202   0.748   8.121   0.354 -0.9672  0.0465  2.3325
23382SOL    HW267203   0.886   8.203   0.326 -0.8610 -1.5198 -2.0061
23383SOL     OW67204   5.105   8.076   1.561 -0.3734 -0.3024  0.2413
23383SOL    HW167205   5.033   8.144   1.574  0.0816  1.3046 -4.6477
23383SOL    HW267206   5.078   8.012   1.490  1.6225 -1.7703  0.7580
23384SOL     OW67207   2.082   6.325   1.866  0.7069 -0.0293  0.0385
23384SOL    HW167208   2.038   6.331   1.955  0.6417 -0.5138  0.0448
23384SOL    HW267209   2.175   6.360   1.871  0.7682 -0.2370  0.3470
23386SOL     OW67210   7.652   6.265   6.175  0.0960  0.2025  0.4036
23386SOL    HW167211   7.679   6.169   6.179  0.4297  0.3267  1.4125
23386SOL    HW267212   7.665   6.300   6.082 -2.2181 -1.3406 -0.5310
23387SOL     OW67213   7.869   2.318   1.116 -0.4601  0.4249  0.0105
23387SOL    HW167214   7.961   2.355   1.106 -0.5569  0.1147 -2.2964
23387SOL    HW267215   7.802   2.391   1.104 -0.5552  0.4058  0.4020
23388SOL     OW67216   0.517   2.788   3.013  0.1161  0.2712  0.3996
23388SOL    HW167217   0.535   2.854   2.939 -0.6305  1.1821  1.0294
23388SOL    HW267218   0.538   2.831   3.101 -1.3176 -0.0078  0.8719
23389SOL     OW67219   9.431   0.851   7.344  0.0045 -0.0796  0.2941
23389SOL    HW167220   9.398   0.887   7.431 -2.9577 -0.8719 -0.4229
23389SOL    HW267221   9.440   0.751   7.351 -2.4266 -0.4162 -0.9246
23390SOL     OW67222   6.783   0.704   6.572  0.0921  0.3735 -0.3118
23390SOL    HW167223   6.791   0.612   6.610 -2.3243 -0.1388 -0.9344
23390SOL    HW267224   6.691   0.739   6.588  0.2076  1.6774 -2.2890
23392SOL     OW67225   0.341   5.473   5.533  0.0552 -0.4067 -0.2665
23392SOL    HW167226   0.401   5.412   5.481 -0.0405  0.0989 -0.9791
23392SOL    HW267227   0.392   5.517   5.606  0.6958  0.4716 -1.2345
23393SOL     OW67228   3.509   4.087   4.534  0.3020 -0.2631 -0.2041
23393SOL    HW167229   3.541   4.005   4.582 -1.8111 -0.8358  0.2706
23393SOL    HW267230   3.525   4.077   4.436  0.9088 -0.8321 -0.0539
23394SOL     OW67231   9.818   5.655   2.352 -0.9175 -0.2935 -0.3780
23394SOL    HW167232   9.728   5.631   2.316 -1.8310  0.7612  1.1421
23394SOL    HW267233   9.843   5.747   2.323 -0.8485 -0.1428  0.1482
23395SOL     OW67234   2.533   6.654   0.985  0.0663  0.0962  0.4429
23395SOL    HW167235   2.550   6.598   1.066  0.4911  1.8903  1.6413
23395SOL    HW267236   2.436   6.651   0.961 -0.0456 -0.5014  0.9739
23397SOL     OW67237   8.114   5.160   2.198  0.5438 -0.2811 -0.0338
23397SOL    HW167238   8.119   5.234   2.265 -0.0808 -1.5241  1.4250
23397SOL    HW267239   8.018   5.144   2.173  0.8542  0.8725 -2.0365
23398SOL     OW67240   2.638   9.265   5.366  0.3625  0.4639 -0.5261
23398SOL    HW167241   2.692   9.189   5.401  0.8058 -0.0576 -2.2726
23398SOL    HW267242   2.575   9.297   5.437  1.5875 -0.1947  0.8812
23400SOL     OW67243   8.739   8.306   4.401 -0.3679 -0.7220  0.0764
23400SOL    HW167244   8.797   8.257   4.337 -0.4231 -0.9007  0.1630
23400SOL    HW267245   8.645   8.273   4.393 -0.4747 -0.3693 -0.1294
23401SOL     OW67246   1.004   4.928   0.404 -0.1375  0.3657  0.0753
23401SOL    HW167247   0.998   4.841   0.354  0.2454  1.1423 -1.3483
23401SOL    HW267248   0.989   5.004   0.341  1.8556  1.4427  0.8538
23402SOL     OW67249   4.658   9.845   2.095  0.5091 -0.2375  0.3685
23402SOL    HW167250   4.672   9.781   2.020  0.7927 -0.2742  0.4508
23402SOL    HW267251   4.633   9.935   2.058  0.6238 -0.2633  0.2308
23403SOL     OW67252   0.087   8.430   5.059  0.1357  0.8966 -0.1439
23403SOL    HW167253   0.181   8.456   5.078  0.8923 -1.5773 -0.3074
23403SOL    HW267254   0.085   8.339   5.017 -2.4497 -0.1140  2.0105
23405SOL     OW67255   2.603   8.746   5.306 -0.0628  0.0731 -0.1466
23405SOL    HW167256   2.621   8.816   5.237  0.6069  0.3741  0.3242
23405SOL    HW267257   2.612   8.787   5.397  1.7958 -0.9718  0.1596
23406SOL     OW67258   2.148   1.384   5.931  0.4307  0.3953 -0.2421
23406SOL    HW167259   2.050   1.363   5.936  0.2581  1.1664 -0.3116
23406SOL    HW267260   2.190   1.332   5.857  0.0137  0.2947 -0.4089
23407SOL     OW67261   5.645   9.886   2.196 -0.3568 -0.4489  0.3850
23407SOL    HW167262   5.720   9.949   2.217 -0.0766 -1.4392  2.5674
23407SOL    HW267263   5.682   9.802   2.156 -0.5146 -0.1174 -0.4642
23408SOL     OW67264   0.671   9.662   2.113 -0.2079  0.5784  0.0581
23408SOL    HW167265   0.660   9.760   2.131  0.0728  0.4965  0.6568
23408SOL    HW267266   0.633   9.641   2.023 -0.1025  1.2745 -0.1547
23410SOL     OW67267   9.669   6.761   6.685  0.6326 -0.3317 -0.1992
23410SOL    HW167268   9.759   6.722   6.702  0.5662 -0.4927 -0.2205
23410SOL    HW267269   9.601   6.714   6.741  0.3769 -1.0120 -1.0667
23411SOL     OW67270   9.084   8.649   3.423 -0.2236 -0.1421  0.2297
23411SOL    HW167271   9.165   8.634   3.365  0.4618  0.7208  0.9579
23411SOL    HW267272   9.113   8.679   3.513 -1.3714  0.2057  0.4850
23413SOL     OW67273   8.052   1.132   1.064 -0.1788  0.0149 -0.7304
23413SOL    HW167274   8.046   1.054   1.002  1.4575 -0.7422  0.0247
23413SOL    HW267275   7.998   1.208   1.027  1.3944 -0.1312 -3.5359
23415SOL     OW67276   6.500   2.055   4.232  0.2721 -0.5632  0.3476
23415SOL    HW167277   6.409   2.082   4.262  0.9687 -0.0543  2.0751
23415SOL    HW267278   6.524   2.105   4.148 -1.4371 -1.4965 -0.7112
23416SOL     OW67279   2.291   7.286   3.072  0.0177 -0.0472 -0.2658
23416SOL    HW167280   2.386   7.278   3.042  0.5093  1.9832  0.6460
23416SOL    HW267281   2.264   7.202   3.120  1.3629 -0.6194 -0.4859
23417SOL     OW67282   4.815   9.720   3.672  0.1726  0.1100  0.0774
23417SOL    HW167283   4.784   9.633   3.710 -0.4390 -0.7997 -2.3752
23417SOL    HW267284   4.784   9.795   3.730  0.2044 -1.2564  1.9142
23418SOL     OW67285   7.951   6.712   7.358 -0.0060 -0.3098 -0.5124
23418SOL    HW167286   7.980   6.736   7.451 -0.5583 -0.8417 -0.2031
23418SOL    HW267287   8.031   6.684   7.305 -0.0435 -2.7085  0.6213
23419SOL     OW67288   0.024   8.535   4.043 -0.0322 -0.1747 -0.0988
23419SOL    HW167289   0.004   8.544   4.140 -0.5256 -0.7444 -0.1420
23419SOL    HW267290  -0.030   8.601   3.991 -0.3672 -0.4030 -0.0475
23421SOL     OW67291   2.258   1.694   2.777  0.2711  0.3948  0.4198
23421SOL    HW167292   2.290   1.683   2.683  1.3061  0.4286  0.7635
23421SOL    HW267293   2.215   1.608   2.808  0.0571  0.3397 -0.0289
23424SOL     OW67294   9.983   4.142   3.779  0.0635  0.3916  0.2634
23424SOL    HW167295   9.941   4.141   3.688 -0.8715 -1.0940  0.6870
23424SOL    HW267296  10.019   4.051   3.800  1.9877  1.2004  0.6187
23425SOL     OW67297   3.175   0.314   0.063 -0.4493 -0.3526  0.0285
23425SOL    HW167298   3.222   0.233   0.098 -0.9310 -0.2949  0.8221
23425SOL    HW267299   3.177   0.386   0.133  1.0850  0.7719 -1.1340
23428SOL     OW67300   3.510   5.099   5.935  0.1494 -0.0863  0.2987
23428SOL    HW167301   3.445   5.073   6.007 -1.2566 -0.4595 -1.0965
23428SOL    HW267302   3.486   5.190   5.901  0.6994  0.0074  0.1684
23429SOL     OW67303   1.044   3.560   5.813 -0.2875 -0.1738 -0.6594
23429SOL    HW167304   0.954   3.572   5.771  0.2118 -1.0738 -2.0201
23429SOL    HW267305   1.087   3.650   5.824 -1.5329  0.3041  0.4395
23430SOL     OW67306   4.602   2.264   1.218 -0.0354  0.1558  0.2799
23430SOL    HW167307   4.596   2.331   1.292 -1.2842  0.3715  0.0037
23430SOL    HW267308   4.540   2.187   1.237  2.2836 -1.5252  1.1850
23431SOL     OW67309   8.870   3.831   1.072  0.2825  0.2658 -0.4298
23431SOL    HW167310   8.823   3.841   0.984 -2.8524  0.4246  1.1843
23431SOL    HW267311   8.828   3.756   1.124  1.9957  0.2638  0.9993
23434SOL     OW67312   7.911   5.585   0.655  0.3427 -0.1628  0.1085
23434SOL    HW167313   7.818   5.557   0.633  0.4321 -0.3914  0.0201
23434SOL    HW267314   7.973   5.507   0.647  0.3397 -0.3246  1.4479
23435SOL     OW67315   9.377   4.337   1.589 -0.2448 -0.4337  0.2411
23435SOL    HW167316   9.293   4.378   1.555  0.9529 -0.9426 -3.5956
23435SOL    HW267317   9.456   4.385   1.550  1.1789 -3.0480 -0.2588
23436SOL     OW67318   2.569   3.041   3.517  0.6257  0.1921  1.0067
23436SOL    HW167319   2.523   3.068   3.432  1.2648 -0.4248  0.4671
23436SOL    HW267320   2.648   3.101   3.532  0.9431 -0.1646  0.7793
23437SOL     OW67321   3.701   1.307   4.004  0.0009  0.1542 -0.4208
23437SOL    HW167322   3.722   1.362   3.923 -0.7289  0.1171 -0.6395
23437SOL    HW267323   3.667   1.218   3.975  2.9943 -1.1594 -0.0842
23438SOL     OW67324   8.724   9.949   7.920 -0.1583 -0.0910 -0.2469
23438SOL    HW167325   8.796  10.018   7.909  2.8420 -3.3320 -2.0878
23438SOL    HW267326   8.744   9.892   7.999  0.0794 -1.8741 -1.5664
23439SOL     OW67327   8.930   2.672   7.064  0.3531  0.6725  0.4213
23439SOL    HW167328   8.875   2.686   6.982  1.9789  0.0762 -0.7905
23439SOL    HW267329   8.911   2.582   7.102  1.3944 -0.0523 -0.7281
23440SOL     OW67330   8.103   7.486   4.784 -0.2002 -0.6315  0.2296
23440SOL    HW167331   8.006   7.510   4.791 -0.4433 -1.6196  0.4413
23440SOL    HW267332   8.132   7.492   4.689 -0.3415  0.1296  0.2292
23441SOL     OW67333   6.429   9.529   3.952  0.3013 -0.0606  0.1894
23441SOL    HW167334   6.435   9.605   3.887  0.0487  0.1680  0.4283
23441SOL    HW267335   6.481   9.552   4.035 -0.8286  0.4046  0.7904
23443SOL     OW67336   6.481   1.907   4.475 -0.0461  0.0047 -0.1896
23443SOL    HW167337   6.572   1.867   4.489 -0.8213 -1.8312 -0.2574
23443SOL    HW267338   6.477   1.948   4.384  1.0407  1.0155  0.2021
23444SOL     OW67339   1.890   9.607   0.340  0.6550  0.7567 -0.3441
23444SOL    HW167340   1.824   9.676   0.372  0.0698 -0.2242  0.5974
23444SOL    HW267341   1.843   9.538   0.286  0.9308  0.1292  0.2073
23445SOL     OW67342   7.527   1.971   1.169  0.0066  0.1521  0.1931
23445SOL    HW167343   7.574   2.040   1.223  0.4883  0.9851 -1.2503
23445SOL    HW267344   7.465   2.017   1.105 -2.8553 -0.9117  2.1067
23446SOL     OW67345   9.367   9.903   3.221  0.0882 -0.1535 -0.5658
23446SOL    HW167346   9.426   9.938   3.294  0.7859 -0.6117 -0.9042
23446SOL    HW267347   9.422   9.882   3.141 -0.4794 -0.9785 -0.7480
23448SOL     OW67348   2.099   6.046   3.630 -0.1312 -0.3455  0.3719
23448SOL    HW167349   2.075   6.134   3.672  1.6219 -0.3134  1.3539
23448SOL    HW267350   2.196   6.028   3.644 -0.2375 -1.9128 -0.8200
23450SOL     OW67351   5.706   1.324   4.439  0.2730 -0.4583 -0.5256
23450SOL    HW167352   5.670   1.366   4.523  0.2995 -1.2843 -0.0996
23450SOL    HW267353   5.678   1.380   4.360  1.9718  1.4535  0.1820
23451SOL     OW67354   8.119   4.683   7.229  0.0653  0.2164 -0.6394
23451SOL    HW167355   8.048   4.646   7.170 -0.6545  1.5517 -0.6400
23451SOL    HW267356   8.111   4.783   7.232 -0.4270  0.1403  2.3077
23452SOL     OW67357   9.922   7.370   7.946  0.3792  0.1571 -0.1289
23452SOL    HW167358   9.863   7.382   8.027  0.4098 -0.4083 -0.0225
23452SOL    HW267359   9.864   7.356   7.865  0.3580  0.1749 -0.1175
23453SOL     OW67360   9.657   6.993   3.293 -0.0037  0.1193  0.9926
23453SOL    HW167361   9.614   6.907   3.321  0.3064 -0.5584 -0.5815
23453SOL    HW267362   9.653   7.058   3.369  0.4705 -1.5405  2.4602
23454SOL     OW67363   7.390   1.276   0.082  0.5000 -0.8553  0.6425
23454SOL    HW167364   7.467   1.339   0.094 -2.0500  2.3798  0.5886
23454SOL    HW267365   7.366   1.236   0.170 -0.9758  2.1026  1.6506
23455SOL     OW67366   0.177   1.385   7.282  0.6172 -0.2961 -0.4975
23455SOL    HW167367   0.236   1.465   7.268 -0.2969  0.5927  0.7351
23455SOL    HW267368   0.207   1.311   7.221  0.7308  1.3658 -2.5146
23456SOL     OW67369   8.390   8.320   2.328  0.1489  0.0693  0.2140
23456SOL    HW167370   8.462   8.386   2.309 -1.6984  2.5007  1.4958
23456SOL    HW267371   8.354   8.285   2.241 -0.0534  2.0961 -0.5511
23458SOL     OW67372   3.515   8.713   5.758  0.1712 -0.1702  0.3227
23458SOL    HW167373   3.496   8.722   5.856  0.7805  0.0672  0.4195
23458SOL    HW267374   3.613   8.698   5.744  0.0017 -0.7622 -0.2163
23459SOL     OW67375   7.524   5.704   4.359 -0.3761 -0.0208  0.2518
23459SOL    HW167376   7.608   5.724   4.309 -0.1320 -1.4401  0.0773
23459SOL    HW267377   7.448   5.754   4.317  0.6240  2.5306  1.3899
23460SOL     OW67378   2.495   5.975   2.155  0.6499  0.1692 -0.6232
23460SOL    HW167379   2.538   5.885   2.162  1.7380  0.6744 -0.6244
23460SOL    HW267380   2.407   5.967   2.109 -0.5473 -1.3048  1.8009
23462SOL     OW67381   7.603   0.464   3.763 -0.0411  0.8021  0.0628
23462SOL    HW167382   7.668   0.461   3.687  0.1056  2.2086  0.1351
23462SOL    HW267383   7.511   0.450   3.728  0.1038  0.6616 -0.2651
23463SOL     OW67384   7.385   7.839   2.585 -0.0497  0.1259 -0.0778
23463SOL    HW167385   7.448   7.908   2.621 -0.2406  0.2596 -0.0025
23463SOL    HW267386   7.391   7.838   2.485 -0.4214  0.6079 -0.1077
23464SOL     OW67387   8.596   4.772   3.887  0.2049 -0.0909  0.4720
23464SOL    HW167388   8.582   4.677   3.914 -0.6579 -0.2189 -0.4180
23464SOL    HW267389   8.694   4.790   3.878  0.3835 -0.8134  0.9082
23465SOL     OW67390   0.663   6.727   4.335  0.1859 -0.0280 -0.3509
23465SOL    HW167391   0.721   6.646   4.343  0.5868  0.2375 -0.5985
23465SOL    HW267392   0.583   6.705   4.279  0.2854 -0.2601 -0.4018
23466SOL     OW67393   8.648   5.625   1.643  0.0648  0.4861  0.0339
23466SOL    HW167394   8.628   5.527   1.643  2.8962 -0.1260  0.2018
23466SOL    HW267395   8.573   5.675   1.599 -0.7441 -1.8844 -1.3301
23468SOL     OW67396   9.000   4.665   6.913  0.7541  0.0435  0.6665
23468SOL    HW167397   8.911   4.697   6.882  0.7043 -0.5926  0.1305
23468SOL    HW267398   9.036   4.728   6.982  0.8278  1.4864 -0.6349
23470SOL     OW67399   5.124   9.778   6.908  0.1782 -0.4438  0.1395
23470SOL    HW167400   5.051   9.838   6.942 -0.1595 -0.6934 -0.1440
23470SOL    HW267401   5.091   9.727   6.828  1.5503  1.5160 -1.7486
23472SOL     OW67402   6.767   2.267   4.904 -0.2365  0.6588 -0.7144
23472SOL    HW167403   6.835   2.334   4.873 -0.2254  1.2559  0.5618
23472SOL    HW267404   6.757   2.195   4.835  2.3078  0.1093 -0.5720
23473SOL     OW67405   9.478   3.400   1.508 -0.0319  0.1018 -0.5968
23473SOL    HW167406   9.450   3.307   1.484  1.0861 -0.0700 -1.2885
23473SOL    HW267407   9.538   3.398   1.587 -1.6724  0.4414  0.6880
23474SOL     OW67408   9.168   1.055   4.788 -0.7100 -0.2345 -0.1156
23474SOL    HW167409   9.206   1.135   4.741 -0.8622  0.4571  0.9214
23474SOL    HW267410   9.129   0.992   4.721 -1.9302  1.2624 -0.8262
23477SOL     OW67411   7.250   8.734   3.275  0.4008  0.0180  0.1014
23477SOL    HW167412   7.344   8.735   3.242  0.0276  1.6572 -1.0020
23477SOL    HW267413   7.188   8.750   3.198 -0.6692  0.8364  1.1119
23478SOL     OW67414   1.283   4.564   0.331 -0.6347 -0.1110  0.4176
23478SOL    HW167415   1.321   4.581   0.423 -1.1761 -0.8025  0.7688
23478SOL    HW267416   1.205   4.502   0.338 -1.3234  0.6531 -0.3969
23479SOL     OW67417   8.540   9.208   4.215  0.0726 -0.3346 -0.0584
23479SOL    HW167418   8.449   9.166   4.216 -0.5449  0.9681  1.5000
23479SOL    HW267419   8.574   9.218   4.309  1.1846  0.5121 -0.5344
23481SOL     OW67420   6.481   3.017   0.470 -0.4103 -0.0567 -0.4022
23481SOL    HW167421   6.422   2.985   0.544 -0.9260 -0.8893 -1.1665
23481SOL    HW267422   6.576   3.022   0.502 -0.5694 -0.7934  0.1976
23482SOL     OW67423   2.773   1.858   5.406  0.0790  0.4473 -0.3341
23482SOL    HW167424   2.857   1.872   5.459  0.7255 -2.6937 -0.4140
23482SOL    HW267425   2.786   1.890   5.313  2.4036 -2.9550 -1.2706
23483SOL     OW67426   5.762   9.555   2.904  0.1391  0.4768  0.5136
23483SOL    HW167427   5.702   9.635   2.912  3.6935  3.2419  0.5640
23483SOL    HW267428   5.801   9.550   2.812  1.9289  0.2920  1.2596
23484SOL     OW67429   1.706   2.838   3.305 -0.0851 -0.3981 -0.3294
23484SOL    HW167430   1.797   2.867   3.333 -0.0218 -0.1374 -0.8144
23484SOL    HW267431   1.683   2.752   3.352 -0.3267  0.4813  1.2096
23486SOL     OW67432   6.385   9.276   3.062  0.0577 -0.4060 -0.7846
23486SOL    HW167433   6.390   9.375   3.069 -0.3934 -0.4065 -0.4151
23486SOL    HW267434   6.290   9.246   3.074  0.4458 -1.0163  1.0202
23487SOL     OW67435   2.785   7.741   3.280 -0.3411  0.4591  0.0457
23487SOL    HW167436   2.870   7.783   3.248  0.0364  0.0612  0.5137
23487SOL    HW267437   2.784   7.645   3.253  0.2595 -0.0368  1.7552
23489SOL     OW67438   2.084   4.252   2.322 -0.1415 -0.0641 -0.4855
23489SOL    HW167439   2.044   4.334   2.281 -1.1024 -0.2302  0.1151
23489SOL    HW267440   2.108   4.188   2.249 -2.6162 -0.7085 -0.7631
23490SOL     OW67441   8.841   1.355   3.652  0.1870 -0.0212 -0.0627
23490SOL    HW167442   8.803   1.357   3.560  0.7997 -2.0949 -0.3957
23490SOL    HW267443   8.905   1.431   3.664  0.4209  0.0082 -1.4991
23492SOL     OW67444   7.595   3.212   3.625  0.2099  0.0674  0.3717
23492SOL    HW167445   7.514   3.218   3.568  0.2595 -0.8048  0.2012
23492SOL    HW267446   7.671   3.175   3.571  0.7750  1.0904  0.4694
23495SOL     OW67447   2.295   6.824   5.406 -0.6261  0.1763 -0.3113
23495SOL    HW167448   2.266   6.910   5.365  0.2835 -0.1475 -1.6493
23495SOL    HW267449   2.393   6.826   5.424 -0.9965  0.2985  1.8489
23496SOL     OW67450   8.372   5.759   3.546  0.3635  0.1563 -0.0582
23496SOL    HW167451   8.466   5.735   3.568  0.1925 -1.4157 -0.9665
23496SOL    HW267452   8.345   5.840   3.598  1.1198 -1.3461  2.7723
23497SOL     OW67453   6.279   1.868   1.074  0.5279 -0.6943  0.5668
23497SOL    HW167454   6.360   1.893   1.021  0.4892 -0.2786  0.6998
23497SOL    HW267455   6.268   1.768   1.074  0.3072 -0.6760 -0.5318
23498SOL     OW67456   2.298   4.350   0.413 -0.5261 -0.0097  0.2737
23498SOL    HW167457   2.391   4.315   0.428 -1.7160 -2.9836  1.0159
23498SOL    HW267458   2.282   4.428   0.473  1.6253  0.8302 -0.1841
23499SOL     OW67459   0.822   3.529   0.604 -0.8545 -0.1175  0.2839
23499SOL    HW167460   0.845   3.548   0.700 -2.4171 -2.5019  1.1815
23499SOL    HW267461   0.890   3.467   0.565 -2.3799 -2.3350  1.0927
23500SOL     OW67462   3.836   0.578   7.923  0.2333  0.0293  0.1072
23500SOL    HW167463   3.777   0.565   7.843 -1.0721  2.4105  0.6432
23500SOL    HW267464   3.896   0.657   7.907  0.9314 -0.3209  0.9501
23501SOL     OW67465   8.400   7.804   4.587  0.3365 -0.9329 -0.0139
23501SOL    HW167466   8.420   7.896   4.620 -1.6680 -0.4292 -0.1851
23501SOL    HW267467   8.361   7.749   4.662 -0.0794 -1.1271 -0.3746
23503SOL     OW67468   7.310   0.627   3.363  0.0260 -0.2811  0.1374
23503SOL    HW167469   7.318   0.665   3.454 -0.1342  1.7839 -0.6872
23503SOL    HW267470   7.393   0.645   3.311  0.8685 -3.0371  0.4057
23505SOL     OW67471   8.437   5.414   1.599  0.0926 -0.4343 -0.4827
23505SOL    HW167472   8.390   5.471   1.666  1.0172  0.9784 -0.9898
23505SOL    HW267473   8.430   5.456   1.509  2.4474 -0.0718 -0.5388
23506SOL     OW67474   7.966   5.394   7.439 -0.6652 -0.0508  1.1506
23506SOL    HW167475   7.984   5.320   7.374 -2.0403 -0.9588  1.7880
23506SOL    HW267476   8.052   5.422   7.481  0.0121 -0.5794  0.1429
23508SOL     OW67477   6.119   9.163   1.504  0.7952  0.4573 -0.1570
23508SOL    HW167478   6.137   9.081   1.558 -1.5606  0.5094  0.7430
23508SOL    HW267479   6.176   9.238   1.538  1.4376 -0.2484  0.3555
23510SOL     OW67480   9.721   8.949   7.487 -0.5891 -0.6239  0.9885
23510SOL    HW167481   9.731   9.034   7.539  1.0101 -0.0810 -0.1708
23510SOL    HW267482   9.811   8.918   7.456 -1.3490 -1.8360 -0.0352
23511SOL     OW67483   6.710   2.989   4.390  0.2741 -0.3198 -0.3075
23511SOL    HW167484   6.698   3.011   4.293 -0.9732  1.0344  0.1553
23511SOL    HW267485   6.626   2.949   4.426  1.1417 -2.0261 -0.0707
23512SOL     OW67486   3.070   6.154   4.111  0.2432  0.2628 -0.5590
23512SOL    HW167487   3.040   6.060   4.094 -0.5486  0.4099  0.0051
23512SOL    HW267488   3.018   6.216   4.052  0.3085  0.4053 -0.4659
23515SOL     OW67489   4.204   9.845   3.239 -0.2369  0.0624 -0.3385
23515SOL    HW167490   4.279   9.907   3.258 -0.4311  0.4443 -0.8099
23515SOL    HW267491   4.153   9.828   3.324  0.8050 -0.7795  0.1366
23516SOL     OW67492   0.258   6.697   0.948 -0.5003  0.1471 -0.1183
23516SOL    HW167493   0.346   6.708   0.902  0.3210 -2.5947  0.7348
23516SOL    HW267494   0.188   6.670   0.881 -0.4291  1.0419 -0.5657
23517SOL     OW67495   8.870   9.869   1.813 -0.1474  0.1698 -0.0661
23517SOL    HW167496   8.925   9.906   1.739  0.4565 -2.2483 -0.8565
23517SOL    HW267497   8.778   9.848   1.779  0.0945 -0.8322 -0.1327
23519SOL     OW67498   4.127   4.839   2.203  0.1171  0.2316  0.2702
23519SOL    HW167499   4.173   4.832   2.292  0.2820 -2.7647  0.0075
23519SOL    HW267500   4.060   4.765   2.194  0.5196  0.1384 -2.3221
23520SOL     OW67501   7.193   4.243   2.413  0.3823 -0.1414  0.2611
23520SOL    HW167502   7.127   4.289   2.354 -0.0551 -0.5213  0.4544
23520SOL    HW267503   7.183   4.276   2.507 -0.5513 -1.2804  0.5769
23522SOL     OW67504   1.716   7.970   4.403 -0.5197  0.3737 -0.0043
23522SOL    HW167505   1.798   8.024   4.423  0.1525  0.2084 -2.1568
23522SOL    HW267506   1.688   7.985   4.309 -0.6804 -2.5066 -0.4853
23523SOL     OW67507   8.446   8.649   1.006 -0.0669 -0.3286  0.4572
23523SOL    HW167508   8.525   8.590   0.989 -0.5148 -1.2125  1.3476
23523SOL    HW267509   8.365   8.606   0.966 -0.1283  0.4633 -0.2597
23524SOL     OW67510   7.301   3.311   7.506  0.2050 -0.1825 -0.3741
23524SOL    HW167511   7.251   3.390   7.540  0.5050  0.6037 -1.7075
23524SOL    HW267512   7.273   3.229   7.556 -2.8558  0.1279 -1.4802
23525SOL     OW67513   3.227   2.421   1.503 -0.0438  0.0314 -0.1959
23525SOL    HW167514   3.230   2.380   1.594  1.3747  0.7758  0.1088
23525SOL    HW267515   3.295   2.377   1.445  1.5020  1.9372  0.1391
23526SOL     OW67516   3.460   8.497   5.448 -0.0027  0.4781  0.3294
23526SOL    HW167517   3.493   8.512   5.541 -2.8783  2.7712  1.0375
23526SOL    HW267518   3.455   8.584   5.400 -2.5970 -0.1145 -0.5531
23527SOL     OW67519   4.917   7.867   5.945 -0.1481 -0.4537 -0.3323
23527SOL    HW167520   4.924   7.944   5.882 -0.8881  0.2900  0.4885
23527SOL    HW267521   4.943   7.783   5.898 -1.2158  0.0140 -1.7982
23528SOL     OW67522   8.451   2.403   1.568  0.3399  0.2419 -0.0915
23528SOL    HW167523   8.435   2.499   1.545  0.1732  0.4660  0.9275
23528SOL    HW267524   8.495   2.357   1.491  0.7005  1.2092 -0.4727
23530SOL     OW67525   7.368   6.323   0.287  0.4277 -0.2559 -0.0344
23530SOL    HW167526   7.412   6.385   0.353 -1.2179  0.2836  0.5651
23530SOL    HW267527   7.294   6.273   0.332  1.8913 -2.8896 -0.4400
23535SOL     OW67528   0.458   3.086   0.835  0.6556 -0.2507  0.5595
23535SOL    HW167529   0.482   3.086   0.737  0.7326 -0.7770  0.5768
23535SOL    HW267530   0.370   3.042   0.847  0.6576 -0.2068  0.7338
23536SOL     OW67531   7.831   8.161   4.448 -0.5440 -0.5182  0.2894
23536SOL    HW167532   7.806   8.086   4.386  0.4642 -0.6840  0.0797
23536SOL    HW267533   7.820   8.248   4.401 -0.4301 -0.6069  0.0986
23537SOL     OW67534   9.645   4.259   5.602 -0.2537 -0.6541 -0.0626
23537SOL    HW167535   9.584   4.186   5.569  2.0531 -2.9798  0.6196
23537SOL    HW267536   9.682   4.233   5.691  2.9049 -0.0297 -1.1431
23538SOL     OW67537   8.580   5.260   1.837  0.6639 -0.3747  0.4634
23538SOL    HW167538   8.574   5.286   1.933  3.5252  0.3525  0.4991
23538SOL    HW267539   8.506   5.304   1.786 -0.4406 -0.1818  2.1908
23539SOL     OW67540   7.650   6.592   7.378 -0.2059 -0.1928  0.2506
23539SOL    HW167541   7.675   6.676   7.427 -1.4249  1.1750 -1.4196
23539SOL    HW267542   7.706   6.584   7.296 -0.7439 -0.5256 -0.0842
23540SOL     OW67543   6.841   5.786   0.122  0.2605  0.1300 -0.2808
23540SOL    HW167544   6.884   5.821   0.039  3.3895  1.6744  1.9154
23540SOL    HW267545   6.742   5.779   0.107  0.7828 -0.2392 -4.2912
23541SOL     OW67546   3.743   7.279   3.563  1.3503  0.3107  0.3797
23541SOL    HW167547   3.819   7.217   3.543  0.6632  0.1258 -1.8484
23541SOL    HW267548   3.682   7.237   3.629  1.0420 -1.3000 -0.8951
23542SOL     OW67549   6.349   2.828   0.719  0.0172  0.1024  0.4695
23542SOL    HW167550   6.261   2.875   0.730 -0.1393 -0.1671  0.3819
23542SOL    HW267551   6.334   2.741   0.672  0.5134  0.7168 -0.8536
23543SOL     OW67552   4.114   0.860   2.510  0.6314  0.6190 -0.3243
23543SOL    HW167553   4.192   0.852   2.448  1.5680 -0.6301  0.9809
23543SOL    HW267554   4.146   0.880   2.602 -0.4137 -1.7213  0.5977
23544SOL     OW67555   2.700   5.276   6.239  0.3047  0.3959  0.4493
23544SOL    HW167556   2.700   5.287   6.339  0.0178 -0.6223  0.5659
23544SOL    HW267557   2.607   5.255   6.209  0.6039 -0.3949  0.0851
23545SOL     OW67558   1.303   7.673   7.392 -0.2034 -0.5299 -0.1845
23545SOL    HW167559   1.221   7.645   7.442  1.3807 -2.6054  1.3462
23545SOL    HW267560   1.325   7.768   7.416 -1.9865 -0.0263 -0.4321
23547SOL     OW67561   7.340   1.730   4.759 -0.9726  0.3033 -0.2040
23547SOL    HW167562   7.324   1.822   4.794  1.1537  1.5677 -2.4021
23547SOL    HW267563   7.268   1.706   4.693 -0.3105  1.2894 -1.2958
23548SOL     OW67564   2.281   3.286   3.595 -0.7525  0.3728 -0.1311
23548SOL    HW167565   2.271   3.361   3.660  1.6547  0.2172  0.4714
23548SOL    HW267566   2.287   3.323   3.502 -0.0325  0.8964  0.1216
23549SOL     OW67567   1.376   4.474   6.996  0.4442 -0.1371  0.1224
23549SOL    HW167568   1.462   4.433   7.028  0.6600 -0.4444 -0.8456
23549SOL    HW267569   1.305   4.404   6.995  0.5332 -0.2215 -0.4346
23550SOL     OW67570   7.606   2.419   5.383 -0.1984  0.2030 -0.2633
23550SOL    HW167571   7.687   2.363   5.399  1.3851  2.3824 -0.3923
23550SOL    HW267572   7.584   2.470   5.466 -0.8412  0.3889 -0.5440
23551SOL     OW67573   7.706   9.200   1.882  0.3502  0.7283 -0.1121
23551SOL    HW167574   7.740   9.129   1.943  0.4915  1.5177  0.7485
23551SOL    HW267575   7.611   9.221   1.905  0.2852  0.7620 -0.4110
23552SOL     OW67576   0.910   2.748   4.236  0.0742  0.5185  0.5731
23552SOL    HW167577   0.814   2.726   4.223  0.1151  0.8135 -0.2435
23552SOL    HW267578   0.924   2.785   4.328 -0.5347  0.1886  0.8002
23553SOL     OW67579   8.367   1.581   0.301 -0.2628 -0.1019 -0.7198
23553SOL    HW167580   8.369   1.491   0.257 -1.0915  0.1087 -1.2036
23553SOL    HW267581   8.345   1.570   0.398 -1.9818 -0.3057 -1.1211
23557SOL     OW67582   7.982   6.201   0.182 -0.4406  0.1685  0.0251
23557SOL    HW167583   7.919   6.133   0.144  1.4220 -1.1254 -0.8519
23557SOL    HW267584   8.021   6.255   0.107 -0.6474  1.0755  0.5706
23559SOL     OW67585   3.170   8.867   4.300 -0.2266  0.1945 -1.1727
23559SOL    HW167586   3.144   8.772   4.318 -1.7768  0.9767  0.9415
23559SOL    HW267587   3.259   8.886   4.341  0.1166 -0.3453 -1.6590
23560SOL     OW67588   4.868   8.955   3.527 -0.1432 -0.0953 -0.4381
23560SOL    HW167589   4.817   8.953   3.613  0.4920  0.5303 -0.0352
23560SOL    HW267590   4.806   8.975   3.452 -0.3627  1.4996  0.1545
23561SOL     OW67591   3.254   0.668   5.640  0.0755 -0.1268 -0.2818
23561SOL    HW167592   3.347   0.677   5.604  0.1414  0.0817 -0.0578
23561SOL    HW267593   3.196   0.628   5.570  0.1016  0.7140 -0.7966
23562SOL     OW67594   3.559   2.415   0.017 -0.3878 -0.2597 -0.3404
23562SOL    HW167595   3.639   2.406   0.077  0.0933  0.5564 -0.8438
23562SOL    HW267596   3.588   2.404  -0.078 -0.4827  2.1765 -0.6848
23563SOL     OW67597   8.129   3.267   5.613  0.2790  0.4503 -0.1289
23563SOL    HW167598   8.215   3.250   5.565  0.1896  1.4309 -0.6505
23563SOL    HW267599   8.111   3.366   5.614 -1.2488  0.1873 -0.7433
23564SOL     OW67600   3.412   0.542   0.920  0.0497 -0.4042  0.4076
23564SOL    HW167601   3.415   0.642   0.932 -1.7111 -0.3856  0.8042
23564SOL    HW267602   3.368   0.500   1.000 -2.1165 -1.2078 -1.1551
23565SOL     OW67603   9.441   4.777   1.554  0.5070 -0.0316  0.1438
23565SOL    HW167604   9.464   4.681   1.566  0.8030  0.0188 -0.0184
23565SOL    HW267605   9.417   4.794   1.458  1.5819  0.2906 -0.0807
23568SOL     OW67606   1.763   3.895   4.865 -0.3544 -0.4089 -0.1376
23568SOL    HW167607   1.794   3.987   4.846  0.0324 -0.5023  0.0366
23568SOL    HW267608   1.803   3.863   4.951 -2.4681  0.2015  1.1028
23569SOL     OW67609   5.079   9.029   3.210  0.4387  0.1994  0.3376
23569SOL    HW167610   5.111   9.109   3.158 -0.3913  0.8280  0.7838
23569SOL    HW267611   4.980   9.020   3.198  0.7077 -1.5505 -0.7885
23570SOL     OW67612   2.774   0.373   3.891  0.0553  0.0345 -0.0637
23570SOL    HW167613   2.763   0.329   3.802 -0.9433  1.4349 -0.6454
23570SOL    HW267614   2.702   0.441   3.905 -0.0170 -0.4162  1.9723
23571SOL     OW67615   9.529   4.071   2.058 -0.0845 -0.3741  0.3094
23571SOL    HW167616   9.436   4.104   2.043 -0.0201 -0.1892  0.3105
23571SOL    HW267617   9.526   3.981   2.102 -0.2620 -0.1025  0.8665
23572SOL     OW67618   6.970   1.999   1.068  0.3119 -0.5949 -0.3735
23572SOL    HW167619   6.891   2.022   1.123 -1.2069 -1.2641 -2.2109
23572SOL    HW267620   6.975   1.900   1.055 -1.1931 -0.3185 -3.9160
23573SOL     OW67621   0.022   9.867   5.685 -0.1275  0.3220 -0.1695
23573SOL    HW167622  -0.043   9.909   5.623 -1.1584 -1.6782 -0.4942
23573SOL    HW267623   0.023   9.768   5.671  0.7978  0.0002  1.8834
23574SOL     OW67624   7.567   4.517   7.482  0.4118  1.0422 -0.0708
23574SOL    HW167625   7.499   4.547   7.549  1.0872  0.9035  0.7003
23574SOL    HW267626   7.532   4.529   7.390 -0.3496  1.7185  0.3014
23575SOL     OW67627   1.830   2.961   1.251 -0.0251  0.1214 -0.2757
23575SOL    HW167628   1.755   3.001   1.199 -0.0620  0.4160  0.0096
23575SOL    HW267629   1.887   3.033   1.289 -1.7567 -0.0124  2.7317
23577SOL     OW67630   9.257   0.856   1.606  0.3685 -0.8056  0.3253
23577SOL    HW167631   9.311   0.863   1.690  2.7466  1.2811 -1.3186
23577SOL    HW267632   9.188   0.928   1.605 -1.0579 -2.1056  1.3878
23578SOL     OW67633   1.505   4.625   2.684 -0.4536 -0.0323  0.2908
23578SOL    HW167634   1.538   4.561   2.615 -0.5041  0.0601  0.1808
23578SOL    HW267635   1.451   4.697   2.640 -0.3034  0.1483  0.3990
23580SOL     OW67636   0.316   6.518   2.177  0.1105  0.4109  0.3121
23580SOL    HW167637   0.343   6.596   2.121  1.6088  0.3029  0.8707
23580SOL    HW267638   0.362   6.436   2.144 -0.3844  0.0196  0.5935
23581SOL     OW67639   0.053   7.575   0.809 -0.0940 -0.3617 -0.2201
23581SOL    HW167640   0.068   7.551   0.905  0.7302 -2.5777 -0.8829
23581SOL    HW267641  -0.033   7.534   0.777 -0.3218  0.2972 -0.4767
23582SOL     OW67642   0.549   0.815   7.751  0.4413  0.2500 -0.2444
23582SOL    HW167643   0.483   0.864   7.807  0.1559 -0.8440  0.4024
23582SOL    HW267644   0.506   0.733   7.712  1.4972 -0.6755  0.4856
23583SOL     OW67645   2.063   5.318   0.968  0.3491  0.3626  0.2422
23583SOL    HW167646   1.979   5.334   0.915  0.5386 -0.9680 -0.4787
23583SOL    HW267647   2.047   5.341   1.064 -1.0115 -0.3992  0.2130
23584SOL     OW67648   8.267   1.531   4.440  0.5437 -0.0853 -0.2113
23584SOL    HW167649   8.330   1.605   4.465  0.8981 -0.6107  0.4649
23584SOL    HW267650   8.315   1.464   4.384  0.5863 -0.4660  0.2715
23585SOL     OW67651   0.710   3.001   3.521 -0.6663  0.5544 -0.7266
23585SOL    HW167652   0.667   2.922   3.564 -0.5141  0.5907 -0.5089
23585SOL    HW267653   0.744   3.063   3.591 -3.3309  2.2244 -0.8313
23586SOL     OW67654   2.395   0.146   6.439  0.1714 -0.1402 -0.0085
23586SOL    HW167655   2.446   0.212   6.494  0.7860 -1.9749  1.7177
23586SOL    HW267656   2.458   0.074   6.408 -0.8874 -1.0495 -0.0577
23588SOL     OW67657   3.065   2.522   2.501  0.1931  0.6544 -0.0281
23588SOL    HW167658   2.972   2.558   2.497 -0.6822 -1.6320 -1.7106
23588SOL    HW267659   3.061   2.422   2.514  2.4232  0.6444  0.6812
23592SOL     OW67660   9.132   9.450   6.195  0.8162  0.0808 -0.4078
23592SOL    HW167661   9.064   9.523   6.191  0.8647  0.1165 -0.6116
23592SOL    HW267662   9.093   9.366   6.159  0.3666 -0.3040  0.9591
23593SOL     OW67663   4.074   2.141   7.904  0.2089 -0.0957 -0.1873
23593SOL    HW167664   3.997   2.105   7.957  0.5861 -0.5784  0.0390
23593SOL    HW267665   4.040   2.198   7.830 -0.2705  1.9025  1.5182
23594SOL     OW67666   0.847   1.819   6.075 -0.2090  0.3732 -0.2981
23594SOL    HW167667   0.848   1.854   6.169 -1.1515 -1.3938  0.3847
23594SOL    HW267668   0.775   1.864   6.023  0.7073  1.7951 -0.3573
23595SOL     OW67669   0.216   1.062   2.959  0.4403  0.0718 -0.3712
23595SOL    HW167670   0.312   1.069   2.986 -0.3885  0.3374  2.7918
23595SOL    HW267671   0.168   1.002   3.023 -1.6771  0.6005 -1.4128
23596SOL     OW67672   8.983   6.682   3.667 -0.6402 -0.8238 -0.6188
23596SOL    HW167673   9.055   6.707   3.602 -1.4264 -0.4270 -1.3441
23596SOL    HW267674   9.025   6.651   3.753  0.4014 -1.1672 -1.2395
23597SOL     OW67675   4.412   2.863   7.937  0.2856  0.1332 -0.8429
23597SOL    HW167676   4.461   2.874   8.023 -0.2288  0.9290 -0.6467
23597SOL    HW267677   4.359   2.778   7.940 -0.2379  0.4807 -0.1196
23598SOL     OW67678   2.266   3.146   0.844 -0.0460  0.6767  0.4870
23598SOL    HW167679   2.230   3.178   0.931 -0.0617  2.7052 -0.2509
23598SOL    HW267680   2.238   3.050   0.830 -1.4731  0.8590  1.9138
23599SOL     OW67681   6.204   9.047   7.172  0.4576  0.2433 -0.5716
23599SOL    HW167682   6.285   9.046   7.113  2.0457 -0.8393  1.5552
23599SOL    HW267683   6.174   8.954   7.189  0.3763  0.4985  0.7672
23600SOL     OW67684   8.632   9.979   6.133  0.3198 -0.5432 -0.8922
23600SOL    HW167685   8.630  10.046   6.058  0.7300  0.0026 -0.4223
23600SOL    HW267686   8.577  10.013   6.209 -0.7865 -1.4827 -1.2572
23601SOL     OW67687   0.164   2.330   1.436  0.0081  0.8286  0.0472
23601SOL    HW167688   0.133   2.420   1.405  0.1661  0.0833 -2.3524
23601SOL    HW267689   0.119   2.307   1.523 -0.7612  2.7946  0.1805
23602SOL     OW67690   1.419   0.751   7.877  0.1009  0.7088 -0.2042
23602SOL    HW167691   1.505   0.708   7.905 -0.8768 -0.7261  0.6767
23602SOL    HW267692   1.425   0.850   7.891  1.1148  0.4693  1.1864
23604SOL     OW67693   8.384   5.914   7.109 -0.3850 -0.6667  0.3656
23604SOL    HW167694   8.439   5.963   7.041 -0.5253 -1.2324 -0.1585
23604SOL    HW267695   8.362   5.976   7.184 -0.7042  0.1270 -0.3710
23605SOL     OW67696   9.792   1.228   6.377 -0.3824 -0.2559  0.3836
23605SOL    HW167697   9.720   1.173   6.335  1.9054 -1.4991 -1.9857
23605SOL    HW267698   9.815   1.190   6.466  0.7379 -2.8067 -0.9593
23606SOL     OW67699   2.791   6.145   3.112  0.8768 -1.0166 -0.2354
23606SOL    HW167700   2.781   6.140   3.211 -0.4502 -1.7917 -0.3962
23606SOL    HW267701   2.795   6.053   3.074  0.1980 -0.7383 -1.0053
23607SOL     OW67702   2.119   5.511   3.268 -0.0408 -0.8723 -0.4213
23607SOL    HW167703   2.213   5.533   3.242  0.5749 -0.9363  1.6382
23607SOL    HW267704   2.056   5.578   3.228  0.8960 -0.6715 -1.5859
23608SOL     OW67705   4.212   0.763   4.863  0.0546  0.0317 -0.7341
23608SOL    HW167706   4.186   0.769   4.959  1.0530  1.3370 -0.5376
23608SOL    HW267707   4.223   0.855   4.825 -0.7472 -0.4707 -2.2100
23609SOL     OW67708   0.719   4.501   5.238  0.1825 -0.4439 -0.3008
23609SOL    HW167709   0.634   4.451   5.256  1.1740 -3.2921 -2.9945
23609SOL    HW267710   0.785   4.439   5.197  2.5998  2.4246 -0.8794
23610SOL     OW67711   2.730   5.450   2.445 -0.0000 -0.3228  0.0208
23610SOL    HW167712   2.725   5.379   2.374 -1.2504  0.4261 -0.6608
23610SOL    HW267713   2.746   5.407   2.534  3.3115 -1.1606 -0.8968
23613SOL     OW67714   2.528   7.758   6.754 -0.1127 -0.2207  0.0518
23613SOL    HW167715   2.573   7.672   6.779 -1.2934 -0.8378  0.0892
23613SOL    HW267716   2.518   7.815   6.836 -0.2741 -0.5053  0.2339
23614SOL     OW67717   7.670   6.750   6.613  0.1702  0.0696  0.3656
23614SOL    HW167718   7.766   6.779   6.607  0.3415 -0.4157  0.6609
23614SOL    HW267719   7.611   6.830   6.618  0.5464  0.3762 -0.0149
23615SOL     OW67720   3.253   5.257   5.608 -0.1800  0.5219 -0.5012
23615SOL    HW167721   3.218   5.351   5.607 -1.3605  0.0873 -1.0589
23615SOL    HW267722   3.179   5.194   5.628  0.7078 -0.2667  0.3442
23616SOL     OW67723   8.698   1.542   0.132 -0.1654  0.2948  0.0916
23616SOL    HW167724   8.643   1.624   0.146 -0.8541 -0.1526  0.0703
23616SOL    HW267725   8.637   1.462   0.126  0.6399 -0.6037  2.9893
23617SOL     OW67726   7.503   9.425   1.704  0.2665  0.1689 -0.1312
23617SOL    HW167727   7.490   9.505   1.645 -0.4178 -0.1914 -0.4714
23617SOL    HW267728   7.415   9.382   1.722  0.0443  1.9660  3.5546
23618SOL     OW67729   8.612   3.299   1.722  0.2942  0.0979  0.5108
23618SOL    HW167730   8.567   3.339   1.802  0.4452 -0.3666  0.8324
23618SOL    HW267731   8.588   3.201   1.717 -1.2003  0.5194 -1.0446
23619SOL     OW67732   7.990   6.880   1.479  0.5073 -0.1955  0.4869
23619SOL    HW167733   8.072   6.894   1.424  1.6803 -1.7863  1.7831
23619SOL    HW267734   7.999   6.927   1.567 -0.0602 -0.1856  0.5445
23620SOL     OW67735   5.118   2.120   7.863  0.5361  0.0286 -0.1079
23620SOL    HW167736   5.106   2.214   7.895 -0.9287 -0.2218  0.0932
23620SOL    HW267737   5.048   2.098   7.795  0.4766 -1.1194  0.3091
23621SOL     OW67738   1.904   2.964   5.402 -0.3066  0.5502 -0.2631
23621SOL    HW167739   1.995   2.997   5.375  0.4775  0.2528  1.9192
23621SOL    HW267740   1.875   3.009   5.486 -1.7756 -0.0523 -0.4239
23623SOL     OW67741   1.117   5.474   0.449  0.0095  0.1958 -0.3538
23623SOL    HW167742   1.103   5.563   0.406 -0.8382  0.3671  0.2703
23623SOL    HW267743   1.040   5.454   0.510  0.6840 -0.5161  0.2678
23624SOL     OW67744   2.325   1.113   1.337  0.1543  0.2300 -0.0441
23624SOL    HW167745   2.251   1.180   1.343  0.1823  0.2813 -0.2730
23624SOL    HW267746   2.409   1.155   1.371  0.2107  0.3711 -0.3493
23625SOL     OW67747   9.884   9.257   2.920  0.1546  0.1443 -0.7697
23625SOL    HW167748   9.932   9.339   2.887 -0.8657  1.0581 -0.0365
23625SOL    HW267749   9.856   9.271   3.015 -1.4182 -0.4279 -1.1336
23626SOL     OW67750   8.314   4.768   3.327  0.5060  0.1983  0.1922
23626SOL    HW167751   8.413   4.760   3.341  0.4010 -1.3123  0.0904
23626SOL    HW267752   8.291   4.740   3.234 -0.0462  0.2963  0.2969
23627SOL     OW67753   3.895   4.247   1.390 -0.9737 -0.1117  0.6053
23627SOL    HW167754   3.926   4.339   1.369 -0.6862 -0.2565  0.3867
23627SOL    HW267755   3.800   4.235   1.359 -1.4074  0.4729  1.6785
23629SOL     OW67756   8.588   3.138   1.349  0.1439 -0.5050 -0.0803
23629SOL    HW167757   8.526   3.157   1.425 -0.1997 -0.4512 -0.3749
23629SOL    HW267758   8.543   3.078   1.283  0.4507 -0.5679 -0.2350
23630SOL     OW67759   0.537   5.763   7.790  0.0479 -0.0640 -0.3906
23630SOL    HW167760   0.607   5.825   7.827 -0.7617  1.3417 -1.1671
23630SOL    HW267761   0.575   5.713   7.712  1.4705 -2.3655  1.7128
23631SOL     OW67762   9.551   6.530   0.640  0.4104 -0.1799 -0.1052
23631SOL    HW167763   9.637   6.503   0.596  0.1308 -0.8838 -0.2227
23631SOL    HW267764   9.557   6.626   0.667  0.8948  0.0283 -0.9241
23634SOL     OW67765   8.446   7.557   1.075  0.7830  0.0084 -0.0979
23634SOL    HW167766   8.364   7.513   1.039  0.4012 -2.4158  3.4710
23634SOL    HW267767   8.524   7.538   1.015 -0.9214  1.1100 -2.7347
23635SOL     OW67768   9.100   0.902   6.060  0.0674 -0.2242  0.2774
23635SOL    HW167769   9.196   0.887   6.083  0.4511 -0.0417 -1.1721
23635SOL    HW267770   9.088   0.894   5.961 -1.6772 -1.6877  0.5963
23637SOL     OW67771   0.094   6.155   3.194 -0.2497 -0.4137  0.2501
23637SOL    HW167772   0.171   6.123   3.139  0.2877  1.1990  0.0207
23637SOL    HW267773   0.109   6.251   3.219 -1.0559 -0.7802  2.2158
23638SOL     OW67774   8.297   5.673   0.476  0.1028 -0.1398 -0.1893
23638SOL    HW167775   8.251   5.602   0.422  0.5514 -1.0608  0.6213
23638SOL    HW267776   8.380   5.635   0.516  1.3808  1.4083 -1.3460
23639SOL     OW67777   3.767   4.679   4.814  0.1398 -0.0089 -0.0463
23639SOL    HW167778   3.693   4.624   4.775  1.4885 -0.8572 -1.4538
23639SOL    HW267779   3.854   4.634   4.798  1.1379  1.8594  0.0159
23640SOL     OW67780   8.786   9.478   6.241  0.0042 -0.0794  0.4033
23640SOL    HW167781   8.842   9.541   6.188 -1.1854  0.5904 -0.0651
23640SOL    HW267782   8.760   9.520   6.328 -0.9158  0.1372  0.0253
23641SOL     OW67783   7.224   8.559   4.141 -0.6551 -0.4176  0.1620
23641SOL    HW167784   7.133   8.584   4.106 -0.9092  0.6128  1.5054
23641SOL    HW267785   7.235   8.596   4.233  0.5037 -1.9562  0.6573
23644SOL     OW67786   6.709   0.661   7.063  0.6153 -0.3521 -0.4171
23644SOL    HW167787   6.622   0.694   7.026  0.3719  0.8406  1.1535
23644SOL    HW267788   6.785   0.699   7.009  0.2892  1.7985  0.5935
23645SOL     OW67789   8.338   6.888   7.516  0.6580  1.3401  0.2284
23645SOL    HW167790   8.395   6.880   7.434  0.0585  1.3251 -0.1822
23645SOL    HW267791   8.245   6.913   7.490  0.1187 -0.0704  0.7979
23646SOL     OW67792   1.470   7.573   0.680  0.6867  0.4749 -0.0608
23646SOL    HW167793   1.481   7.493   0.621 -0.7326 -0.7080  1.2541
23646SOL    HW267794   1.547   7.635   0.665  0.1232  0.4265 -3.4667
23647SOL     OW67795   7.719   5.724   6.709  0.0875  0.3511 -0.3415
23647SOL    HW167796   7.622   5.743   6.698 -0.1658 -1.8197 -2.2161
23647SOL    HW267797   7.769   5.810   6.721 -2.2269  1.3776  2.4455
23648SOL     OW67798   3.784   8.889   1.752 -0.3093  0.3842 -0.0924
23648SOL    HW167799   3.874   8.887   1.794 -0.2587  1.7825 -0.1062
23648SOL    HW267800   3.777   8.817   1.683  1.0967  0.8621 -0.7309
23649SOL     OW67801   1.365   9.236   2.647 -0.0527  0.3229 -0.0282
23649SOL    HW167802   1.428   9.301   2.604  0.8542 -0.5486 -0.0610
23649SOL    HW267803   1.418   9.164   2.692 -1.0071  0.6746  1.7144
23650SOL     OW67804   1.225   6.060   3.948 -0.2841  0.0488 -0.5957
23650SOL    HW167805   1.131   6.028   3.965 -0.4211  0.5190 -0.4639
23650SOL    HW267806   1.243   6.140   4.004  0.0874  0.1584 -0.8755
23652SOL     OW67807   5.023   9.198   1.478  0.5051  0.0885 -0.1029
23652SOL    HW167808   5.021   9.273   1.411  1.6036  2.0614  1.9805
23652SOL    HW267809   4.929   9.174   1.504  0.1538  2.1588  0.6707
23653SOL     OW67810   7.043   5.133   2.771 -0.2095  0.1364 -0.3013
23653SOL    HW167811   6.964   5.196   2.770 -1.0134 -0.8772 -0.8825
23653SOL    HW267812   7.126   5.186   2.787 -1.0937  1.1303  1.2277
23654SOL     OW67813   3.904   8.762   6.848 -0.0834  0.1562 -0.3436
23654SOL    HW167814   3.946   8.696   6.786 -0.8123 -1.2754  0.6673
23654SOL    HW267815   3.968   8.785   6.921 -0.1302 -0.0735 -0.2290
23655SOL     OW67816   2.505   5.765   2.709  0.2723  0.5533  0.2871
23655SOL    HW167817   2.514   5.721   2.620 -1.3497 -2.1326  1.3831
23655SOL    HW267818   2.568   5.721   2.774  0.6698  1.7633  0.7265
23657SOL     OW67819   3.150   0.183   7.007  0.3271 -0.1397  0.7313
23657SOL    HW167820   3.202   0.266   7.030 -0.2934  0.2107  0.9005
23657SOL    HW267821   3.114   0.191   6.914 -2.0330  1.0038  1.6992
23658SOL     OW67822   9.639   4.479   4.236  0.3123  0.3662  0.4952
23658SOL    HW167823   9.547   4.513   4.216  0.8738  2.1094  0.8104
23658SOL    HW267824   9.633   4.409   4.308 -0.9663 -1.0316 -0.9368
23660SOL     OW67825   7.478   8.352   2.014 -0.0793 -0.5476 -0.0264
23660SOL    HW167826   7.463   8.302   1.929 -1.8635  1.1208 -0.7399
23660SOL    HW267827   7.398   8.342   2.073  0.1378  0.2613  0.4180
23662SOL     OW67828   3.719   4.884   0.196  0.6618 -0.2693  0.6645
23662SOL    HW167829   3.783   4.823   0.149  2.6262  1.3455  1.1596
23662SOL    HW267830   3.770   4.961   0.235 -1.4902  0.5525  1.8922
23663SOL     OW67831   9.268   3.194   3.623  0.7634  0.6990 -0.0911
23663SOL    HW167832   9.268   3.189   3.723  1.6256  0.0989 -0.1189
23663SOL    HW267833   9.313   3.279   3.595  0.0655  1.1179  0.0351
23665SOL     OW67834   7.600   8.571   6.101  0.0685  0.0138  0.5748
23665SOL    HW167835   7.585   8.525   6.013 -1.4060  1.0843  0.2276
23665SOL    HW267836   7.695   8.602   6.108  0.5773 -1.4107  0.0106
23666SOL     OW67837   2.754   7.215   4.190 -0.5834  0.3482  0.4134
23666SOL    HW167838   2.657   7.240   4.195 -0.4820  0.9004 -0.3097
23666SOL    HW267839   2.809   7.285   4.236 -0.2835  1.5811 -1.7805
23667SOL     OW67840   8.221   8.012   0.709  0.3262  0.3037  0.0936
23667SOL    HW167841   8.283   8.074   0.660 -2.9803  2.8746 -1.0368
23667SOL    HW267842   8.177   7.950   0.644  1.9787 -1.8101  0.9469
23668SOL     OW67843   9.812   1.668   5.274 -0.4557  0.2500 -0.1933
23668SOL    HW167844   9.869   1.746   5.299 -1.2245  1.0367 -0.8347
23668SOL    HW267845   9.784   1.677   5.178 -1.2889 -0.3475 -0.0106
23669SOL     OW67846   9.260   3.017   2.757  0.4955 -0.3065 -0.5213
23669SOL    HW167847   9.183   3.004   2.820  1.5546  0.5084  0.9771
23669SOL    HW267848   9.230   3.070   2.678 -0.6234 -0.5446 -0.2716
23670SOL     OW67849   9.989   2.258   2.511  0.3421  0.2337 -0.0197
23670SOL    HW167850  10.047   2.280   2.590  1.0941 -0.9881 -0.2186
23670SOL    HW267851  10.046   2.246   2.430 -0.4505  1.7217 -0.8239
23672SOL     OW67852   5.847   1.653   1.886  0.1516  0.3008  0.7706
23672SOL    HW167853   5.904   1.734   1.900  1.2789 -0.3743  0.1257
23672SOL    HW267854   5.869   1.584   1.954  0.5286 -0.1926  0.1478
23673SOL     OW67855   5.080   8.019   6.397 -0.2408  0.3789  0.0941
23673SOL    HW167856   5.018   8.023   6.476 -1.1725 -0.3602 -0.5962
23673SOL    HW267857   5.156   7.958   6.418  2.0793  3.7676  2.1992
23674SOL     OW67858   3.814   4.383   3.308  0.4403 -0.1510 -0.0545
23674SOL    HW167859   3.824   4.440   3.389 -0.1796  0.1642 -0.2008
23674SOL    HW267860   3.771   4.296   3.333 -0.7887  0.3949 -0.2292
23675SOL     OW67861   4.374   7.118   3.504  0.0151  0.6307  0.2561
23675SOL    HW167862   4.333   7.145   3.417  1.6535  0.4286 -0.5916
23675SOL    HW267863   4.343   7.026   3.528  0.2169  0.3514 -0.5398
23676SOL     OW67864   8.077   8.219   3.079  0.2806  0.1984  0.0434
23676SOL    HW167865   8.123   8.135   3.052  0.1630  0.0126  0.4123
23676SOL    HW267866   8.087   8.288   3.007 -0.1782 -0.3426 -0.5345
23677SOL     OW67867   2.209   2.117   0.531 -0.0035  0.2960 -0.0444
23677SOL    HW167868   2.156   2.193   0.570  0.6275  0.5831  0.2702
23677SOL    HW267869   2.171   2.030   0.562  0.3088  0.5197  0.9778
23680SOL     OW67870   1.700   2.086   1.647 -0.1477 -0.4916 -0.0334
23680SOL    HW167871   1.786   2.035   1.641 -1.5766 -2.7226 -3.0059
23680SOL    HW267872   1.702   2.162   1.582 -0.8993 -1.3843 -1.1302
23682SOL     OW67873   7.281   9.676   4.826  0.2474 -0.4257 -0.0355
23682SOL    HW167874   7.271   9.673   4.727 -0.0446 -2.5790  0.0457
23682SOL    HW267875   7.347   9.748   4.851 -1.3157  1.6151 -1.6257
23683SOL     OW67876   2.332   5.388   6.368  0.8100 -0.4984 -0.0628
23683SOL    HW167877   2.398   5.435   6.425 -1.0593  0.3915  1.4264
23683SOL    HW267878   2.291   5.312   6.419 -0.2649 -0.2218 -0.4896
23684SOL     OW67879   8.602   9.074   6.750 -0.2166 -0.0367 -0.2533
23684SOL    HW167880   8.509   9.051   6.723  0.9560 -2.1523 -2.5905
23684SOL    HW267881   8.642   8.999   6.803  1.1058 -0.3183 -1.6222
23686SOL     OW67882   6.600   0.494   3.499 -0.7365  0.0883 -0.4132
23686SOL    HW167883   6.617   0.561   3.572 -0.1908 -0.5475  0.0486
23686SOL    HW267884   6.559   0.540   3.420  1.9966  1.4478 -1.1045
23687SOL     OW67885   2.886   3.808   4.790 -0.7766  0.5136 -0.2569
23687SOL    HW167886   2.873   3.754   4.707 -0.2446 -1.2787  0.8057
23687SOL    HW267887   2.924   3.898   4.766 -1.1051  0.2051 -1.9823
23688SOL     OW67888   8.026   0.134   3.519 -0.2095  0.2322  0.6132
23688SOL    HW167889   8.015   0.103   3.424 -0.0134 -1.2477  1.0597
23688SOL    HW267890   7.942   0.177   3.550 -1.1425 -1.5237  0.5747
23690SOL     OW67891   7.773   8.562   5.313 -1.0830 -0.3061 -0.1228
23690SOL    HW167892   7.757   8.545   5.216 -0.2791  1.0646 -0.5040
23690SOL    HW267893   7.688   8.546   5.364 -2.2265  1.5349 -1.4012
23691SOL     OW67894   8.905   3.259   5.722  0.1259 -0.3886  0.1511
23691SOL    HW167895   8.901   3.345   5.671 -1.7080 -0.4833  0.0852
23691SOL    HW267896   8.855   3.189   5.672 -0.0881 -0.9678  1.1608
23692SOL     OW67897   8.736   6.277   5.250  0.4875  0.4368  0.4460
23692SOL    HW167898   8.706   6.352   5.308 -0.2140 -0.2270  0.9519
23692SOL    HW267899   8.836   6.278   5.242  0.3261  3.1145 -1.8603
23693SOL     OW67900   1.889   8.206   1.608 -0.3203  0.3540 -0.1974
23693SOL    HW167901   1.805   8.203   1.661  0.6431 -1.7664  1.3107
23693SOL    HW267902   1.930   8.297   1.614 -1.1327  0.6249  1.2570
23694SOL     OW67903   9.487   7.769   1.656  0.8123 -0.6245 -0.5374
23694SOL    HW167904   9.427   7.849   1.645  1.7382  0.2491  0.5415
23694SOL    HW267905   9.582   7.799   1.658  1.1239 -1.6262  0.8992
23695SOL     OW67906   0.750   8.028   3.602  0.8894  0.4215 -0.1903
23695SOL    HW167907   0.830   8.006   3.658 -1.2567 -2.2224  2.0084
23695SOL    HW267908   0.711   8.115   3.632  1.8211  0.7743  0.0246
23696SOL     OW67909   4.431   9.245   5.370  0.0183  0.6250 -0.1299
23696SOL    HW167910   4.392   9.335   5.391  1.0928  0.8768  0.8213
23696SOL    HW267911   4.470   9.205   5.452  0.7772 -0.1110 -0.8371
23697SOL     OW67912   4.521   0.426   4.403 -0.2801 -0.1324  0.3927
23697SOL    HW167913   4.486   0.392   4.491  1.1020 -0.2042  0.9193
23697SOL    HW267914   4.525   0.351   4.337  0.3139 -0.4396  0.7788
23698SOL     OW67915   4.994   0.008   1.255  0.5198 -0.3257  0.6131
23698SOL    HW167916   4.907  -0.039   1.270  0.3000  0.1032  0.6807
23698SOL    HW267917   5.050  -0.045   1.192 -1.0573  0.9509 -1.9301
23699SOL     OW67918   3.035   6.116   7.333  0.6555 -0.0777  0.0264
23699SOL    HW167919   3.020   6.156   7.243 -0.8912 -0.1775  0.2213
23699SOL    HW267920   2.981   6.032   7.342  0.8104 -0.0796  1.0421
23700SOL     OW67921   4.139   0.356   4.658 -0.3664  0.4959 -0.5986
23700SOL    HW167922   4.141   0.383   4.754  1.4048  1.1760 -0.8007
23700SOL    HW267923   4.077   0.279   4.646  1.0353 -1.0271  1.4959
23702SOL     OW67924   8.017   7.657   7.863 -0.2285 -0.4751 -0.1857
23702SOL    HW167925   7.991   7.562   7.851  1.7148 -0.9390 -0.8953
23702SOL    HW267926   7.972   7.695   7.944 -0.7525 -2.0847  0.2795
23703SOL     OW67927   2.595   8.518   3.499  0.1796 -0.1697 -0.6282
23703SOL    HW167928   2.629   8.465   3.421 -1.1372 -1.8631 -0.0874
23703SOL    HW267929   2.497   8.502   3.510  0.4747 -0.4694  1.7788
23704SOL     OW67930   2.496   7.769   6.314  0.0462 -0.3983  0.9170
23704SOL    HW167931   2.527   7.774   6.219  1.6337  2.6114  1.5375
23704SOL    HW267932   2.558   7.712   6.367  0.7973  0.2764  0.7631
23705SOL     OW67933   8.954   5.905   7.767 -0.7176  0.1755 -0.2242
23705SOL    HW167934   8.895   5.829   7.740 -1.3368 -0.4138  2.5836
23705SOL    HW267935   9.049   5.883   7.744 -0.8369 -1.6849  0.9286
23706SOL     OW67936   0.269   6.780   6.659  0.2840  0.2500  0.7388
23706SOL    HW167937   0.273   6.880   6.665 -0.0813  0.3792 -1.0102
23706SOL    HW267938   0.198   6.753   6.594 -0.1564 -1.1845  1.7825
23711SOL     OW67939   6.139   8.828   1.954 -0.1973 -0.6189 -0.3520
23711SOL    HW167940   6.157   8.738   1.913  2.3886  0.6445 -2.1091
23711SOL    HW267941   6.041   8.843   1.958 -0.6386 -2.9796 -1.2255
23712SOL     OW67942   6.091   8.573   4.811  0.0813 -0.4822 -0.8775
23712SOL    HW167943   6.036   8.558   4.729 -0.2834  0.6823 -0.8489
23712SOL    HW267944   6.144   8.657   4.802 -0.3506 -0.0643  0.2796
23713SOL     OW67945   1.188   9.964   3.680  0.4159  0.4654  0.1218
23713SOL    HW167946   1.223   9.908   3.755 -1.9243  0.0783  0.9549
23713SOL    HW267947   1.108   9.920   3.639 -1.0530  2.8279  0.3517
23714SOL     OW67948   3.295   8.603   3.013  0.1873 -0.6005  0.2547
23714SOL    HW167949   3.207   8.616   2.969  0.3340 -1.6552 -0.3642
23714SOL    HW267950   3.342   8.525   2.972  1.0014 -0.6297  1.2161
23715SOL     OW67951   4.382   3.009   4.747  0.1488 -0.0964 -0.1779
23715SOL    HW167952   4.458   2.946   4.729 -1.9430 -3.2498  1.5646
23715SOL    HW267953   4.390   3.044   4.841 -2.3983 -3.2558  1.2944
23716SOL     OW67954   7.677   3.959   2.475 -0.6105 -0.1852  0.1626
23716SOL    HW167955   7.698   3.929   2.382 -0.2887  2.1146 -0.5270
23716SOL    HW267956   7.583   3.994   2.479 -0.6992 -0.4729  0.7757
23718SOL     OW67957   3.345   1.068   5.919  0.2749 -0.1984  0.2494
23718SOL    HW167958   3.304   1.028   6.000  2.5238  0.0457  1.5342
23718SOL    HW267959   3.330   1.167   5.919 -1.9609 -0.5031 -0.9834
23719SOL     OW67960   7.520   7.889   6.845  0.2056 -0.3767 -0.3492
23719SOL    HW167961   7.543   7.792   6.832  0.7990 -0.2564 -0.2120
23719SOL    HW267962   7.558   7.942   6.770  0.2389 -0.1951 -0.2028
23721SOL     OW67963   2.528   1.665   1.170  0.0136 -0.2330 -0.4787
23721SOL    HW167964   2.485   1.575   1.165  0.3818 -0.3991 -0.6969
23721SOL    HW267965   2.591   1.668   1.248 -0.6909  0.1412  0.0784
23723SOL     OW67966   0.697   3.401   3.854 -0.4387 -0.1083  0.5659
23723SOL    HW167967   0.736   3.491   3.871  1.6286 -1.2603  2.0968
23723SOL    HW267968   0.624   3.383   3.919 -1.1305  0.5871  0.0033
23724SOL     OW67969   2.465   0.047   7.496 -0.4511  0.3000 -0.1404
23724SOL    HW167970   2.373   0.087   7.500 -0.3964  0.4852 -0.7369
23724SOL    HW267971   2.472  -0.012   7.416  0.2153  0.9536 -0.5686
23725SOL     OW67972   9.376   2.320   3.547 -0.1356 -0.6505  0.4390
23725SOL    HW167973   9.334   2.397   3.595 -1.4033 -0.7940 -0.4194
23725SOL    HW267974   9.433   2.353   3.473 -1.0864 -0.5425 -0.2524
23727SOL     OW67975   2.595   2.770   0.192 -0.5813 -0.2888  0.2181
23727SOL    HW167976   2.591   2.671   0.181 -1.4667 -0.1504 -0.7092
23727SOL    HW267977   2.574   2.815   0.105  0.2314  0.7097  0.5227
23728SOL     OW67978   0.298   4.126   5.223 -0.2694 -0.0581  0.0617
23728SOL    HW167979   0.360   4.052   5.246 -0.3026  0.4892  1.9838
23728SOL    HW267980   0.235   4.143   5.299 -0.2702  1.9256 -0.3465
23729SOL     OW67981   3.002   4.146   7.629 -0.4615 -0.0907  0.3613
23729SOL    HW167982   3.048   4.217   7.683  1.2378  0.6975 -2.0059
23729SOL    HW267983   3.070   4.078   7.600 -0.8477  0.7045 -2.5950
23731SOL     OW67984   6.050   7.614   5.662  0.0871 -0.1863 -0.0986
23731SOL    HW167985   5.968   7.570   5.624  0.8657 -1.8910  0.1352
23731SOL    HW267986   6.131   7.579   5.614  0.9099 -0.7898  1.7094
23732SOL     OW67987   8.231   6.878   5.919  0.6490  0.0586 -0.1104
23732SOL    HW167988   8.149   6.905   5.969  0.4859  2.7076 -1.7352
23732SOL    HW267989   8.280   6.808   5.971 -2.4866 -1.4227  1.0004
23733SOL     OW67990   8.523   7.863   4.181  0.5593  0.2769 -0.3148
23733SOL    HW167991   8.475   7.810   4.111  0.0378 -0.3846  0.5369
23733SOL    HW267992   8.612   7.893   4.145 -0.0077  0.5533 -1.5043
23734SOL     OW67993   9.735   4.684   7.091 -0.3962  0.2185  0.1647
23734SOL    HW167994   9.765   4.755   7.028 -0.5675  0.0024 -0.1665
23734SOL    HW267995   9.637   4.693   7.108 -0.7330 -0.8460 -1.0794
23735SOL     OW67996   2.882   8.010   2.620 -0.0811 -0.2096 -0.2741
23735SOL    HW167997   2.962   7.981   2.569  1.2880  2.0525  0.5048
23735SOL    HW267998   2.884   8.110   2.632 -1.8152 -0.3726  1.7640
23737SOL     OW67999   3.522   0.340   5.593  0.2599  0.2185  0.3934
23737SOL    HW168000   3.484   0.270   5.533  1.0071 -0.6443  0.9165
23737SOL    HW268001   3.457   0.362   5.665  0.5469 -0.9091  1.0049
23739SOL     OW68002   3.950   2.183   6.068  0.1533  0.2378 -0.5597
23739SOL    HW168003   3.952   2.251   5.995 -1.0450  0.5200 -0.3456
23739SOL    HW268004   4.043   2.151   6.087  0.3867 -0.3399 -2.6563
23741SOL     OW68005   3.447   7.550   6.774 -0.5476 -0.2450 -0.5085
23741SOL    HW168006   3.475   7.602   6.693 -0.4925 -0.2244 -0.4766
23741SOL    HW268007   3.367   7.495   6.752 -0.9469  0.2844 -0.3800
23742SOL     OW68008   5.060   2.192   6.945 -0.1321  0.1518 -0.0817
23742SOL    HW168009   5.060   2.268   6.880  0.9129  0.8248  0.6783
23742SOL    HW268010   5.110   2.219   7.027 -0.7302 -0.9715  0.6707
23744SOL     OW68011   9.823   8.338   0.509  0.0309 -0.4357 -0.4699
23744SOL    HW168012   9.856   8.432   0.501  1.9149 -1.1097 -0.9949
23744SOL    HW268013   9.825   8.309   0.605  0.1764 -0.1815 -0.3959
23745SOL     OW68014   8.886   4.355   7.554  0.0558  0.1832 -0.4019
23745SOL    HW168015   8.936   4.337   7.469  0.8484 -1.0485  0.3120
23745SOL    HW268016   8.920   4.439   7.596  0.1897  0.3826 -0.9036
23746SOL     OW68017   1.627   6.890   7.377  0.7084 -0.0501 -0.2789
23746SOL    HW168018   1.530   6.906   7.394 -0.0103 -3.1524 -1.2321
23746SOL    HW268019   1.638   6.820   7.307  3.6295 -2.1814  2.1763
23748SOL     OW68020   3.086   8.924   3.848 -0.8956  0.1784  0.0151
23748SOL    HW168021   3.009   8.909   3.910  0.5739 -1.1630  1.5953
23748SOL    HW268022   3.110   9.021   3.847 -1.4713  0.3330  0.8949
23749SOL     OW68023   8.440   2.841   2.333 -0.0935  0.6384  0.0829
23749SOL    HW168024   8.468   2.749   2.308  0.2179 -0.2726  3.4413
23749SOL    HW268025   8.365   2.871   2.274 -1.1205 -2.3186 -0.2135
23750SOL     OW68026   0.531   5.429   0.162  0.5872  0.0545  0.0206
23750SOL    HW168027   0.621   5.419   0.204  0.6355 -0.7233 -0.2528
23750SOL    HW268028   0.470   5.479   0.224  1.0653  0.1510  0.4148
23751SOL     OW68029   5.967   0.857   2.090  0.1223 -0.1774 -0.2869
23751SOL    HW168030   6.018   0.828   2.009 -1.5274 -2.6612 -0.4853
23751SOL    HW268031   5.871   0.832   2.080 -0.6145  1.8369  1.3403
23752SOL     OW68032   6.708   1.678   0.291 -0.2174 -0.2118 -0.6315
23752SOL    HW168033   6.637   1.608   0.290 -0.0503 -0.3859 -0.1953
23752SOL    HW268034   6.740   1.694   0.198  1.5776 -2.5789 -0.4817
23754SOL     OW68035   8.642   7.738   0.716 -0.5726  0.6965 -0.1340
23754SOL    HW168036   8.601   7.811   0.771  0.0532  0.8272  0.1651
23754SOL    HW268037   8.609   7.745   0.622 -1.9759  0.2140  0.3127
23755SOL     OW68038   7.393   7.625   3.988 -0.2474 -0.1784  0.1360
23755SOL    HW168039   7.423   7.587   3.900 -0.7467 -0.7450  0.2022
23755SOL    HW268040   7.443   7.580   4.062  0.5479  0.6680  0.1198
23756SOL     OW68041   9.703   9.543   0.352  0.0781 -0.3486 -0.4314
23756SOL    HW168042   9.702   9.494   0.265 -1.5987 -1.6842  0.3262
23756SOL    HW268043   9.623   9.602   0.358  0.7435  0.5472 -0.2203
23758SOL     OW68044   7.401   1.562   7.624  0.1366 -0.2950  0.1671
23758SOL    HW168045   7.423   1.544   7.719  0.7543 -1.5995 -0.2144
23758SOL    HW268046   7.316   1.514   7.600  0.6368 -0.9802 -0.2644
23760SOL     OW68047   8.566   9.686   5.764  0.2819 -0.4119 -1.0289
23760SOL    HW168048   8.611   9.717   5.848  2.9455 -0.8614 -2.2459
23760SOL    HW268049   8.549   9.587   5.770 -1.3813 -0.1018 -0.2296
23761SOL     OW68050   6.611   1.427   2.542  0.6378 -0.4259 -0.1995
23761SOL    HW168051   6.539   1.467   2.598  0.4930  0.1560 -0.8015
23761SOL    HW268052   6.646   1.344   2.587  0.4268 -0.0455  0.6786
23762SOL     OW68053   2.812   2.143   0.559 -0.0390  0.0549  0.0611
23762SOL    HW168054   2.819   2.225   0.503  1.6528  0.0266  0.2055
23762SOL    HW268055   2.903   2.113   0.586 -0.7839 -0.4291  2.1305
23763SOL     OW68056   1.373   4.235   0.792 -0.0672 -0.1668 -0.3109
23763SOL    HW168057   1.329   4.145   0.791  0.8846 -0.6525  0.4896
23763SOL    HW268058   1.422   4.246   0.879  0.7418  0.6781 -0.8793
23764SOL     OW68059   3.494   5.246   6.541  0.1038  0.1780 -0.5322
23764SOL    HW168060   3.489   5.264   6.639  0.5460 -1.7990 -0.1351
23764SOL    HW268061   3.415   5.192   6.513  0.5435 -0.1885 -1.0712
23765SOL     OW68062   4.418   0.691   2.514  0.7798  1.0524  0.3452
23765SOL    HW168063   4.387   0.774   2.468 -1.4602  1.1918  1.9728
23765SOL    HW268064   4.373   0.612   2.474  2.2144  0.7057 -0.6025
23766SOL     OW68065   7.428   1.771   4.360 -0.5331  0.5484 -0.0223
23766SOL    HW168066   7.437   1.868   4.384  0.4087  0.5595 -0.4120
23766SOL    HW268067   7.378   1.724   4.432 -3.5771  1.8941 -1.1707
23767SOL     OW68068   1.169   6.672   3.222 -0.0008  0.1240  0.3861
23767SOL    HW168069   1.265   6.671   3.192 -0.6305  0.2017 -1.7266
23767SOL    HW268070   1.165   6.663   3.321  2.1443 -1.1679  0.3907
23768SOL     OW68071   3.603   7.041   3.665 -0.1030  0.0588  0.4064
23768SOL    HW168072   3.508   7.055   3.691 -0.4635 -1.4537 -0.0513
23768SOL    HW268073   3.658   7.026   3.747 -0.7957 -2.1698  0.4760
23769SOL     OW68074   5.086   2.663   0.308  0.4086  0.4468 -0.0941
23769SOL    HW168075   5.022   2.714   0.364 -1.9387 -2.2730 -0.1853
23769SOL    HW268076   5.053   2.658   0.214  0.1680 -1.8668  0.0809
23771SOL     OW68077   9.623   5.359   6.106  0.4731 -0.2414 -0.1442
23771SOL    HW168078   9.689   5.302   6.154 -0.0379 -0.1714  0.6432
23771SOL    HW268079   9.671   5.415   6.037  0.8586 -2.2513 -1.5420
23773SOL     OW68080   0.943   4.689   7.747  0.4853 -0.3685 -0.4545
23773SOL    HW168081   0.893   4.657   7.667 -1.6031 -1.4208  1.2272
23773SOL    HW268082   0.942   4.618   7.818  0.6363  1.2740  1.2394
23774SOL     OW68083   0.008   7.786   0.133 -0.1420  0.1693  0.6594
23774SOL    HW168084   0.021   7.724   0.055 -2.1284 -1.1808  1.3296
23774SOL    HW268085   0.037   7.740   0.217  0.5203  1.0149  0.8906
23775SOL     OW68086   4.217   6.599   1.373  0.0702 -0.0635 -0.9785
23775SOL    HW168087   4.313   6.576   1.359  0.7767  1.6788  0.8728
23775SOL    HW268088   4.187   6.566   1.462 -1.1619 -0.8389 -1.6525
23776SOL     OW68089   8.132   7.561   2.259  0.0600  0.3430  0.4989
23776SOL    HW168090   8.158   7.488   2.322 -2.2631 -0.9804 -0.0362
23776SOL    HW268091   8.191   7.556   2.178 -1.7802 -2.6655 -0.7337
23777SOL     OW68092   0.290   4.179   7.882 -0.2101  0.0948  0.3046
23777SOL    HW168093   0.377   4.218   7.913 -0.0160  0.1289 -0.2785
23777SOL    HW268094   0.218   4.201   7.948  0.5502 -1.3579  1.6641
23778SOL     OW68095   4.161   5.450   1.784  0.9070 -0.3213  0.1957
23778SOL    HW168096   4.210   5.466   1.870 -0.7979 -0.3341  1.1878
23778SOL    HW268097   4.193   5.365   1.743  1.5885 -0.4213  0.9180
23779SOL     OW68098   1.020   2.042   6.937 -0.0789 -0.0682 -0.5481
23779SOL    HW168099   1.000   2.019   7.033  0.8440 -1.2998 -0.6407
23779SOL    HW268100   1.091   2.112   6.934 -1.4447  1.3733 -0.3115
23780SOL     OW68101   3.991   4.991   6.770 -0.7727  0.2293 -0.1146
23780SOL    HW168102   3.902   4.945   6.779 -0.8472  0.0152 -1.8528
23780SOL    HW268103   3.976   5.089   6.753 -0.6368  0.5976  1.8250
23781SOL     OW68104   3.549   3.062   2.289  0.0365  0.1738  0.1702
23781SOL    HW168105   3.564   3.105   2.200 -1.0808  2.4477  1.0513
23781SOL    HW268106   3.534   2.964   2.276 -2.1444  0.7737 -2.3617
23783SOL     OW68107   7.844   3.715   7.643 -0.0201  0.6960  0.3055
23783SOL    HW168108   7.805   3.734   7.733 -1.6160 -0.2984 -0.1575
23783SOL    HW268109   7.782   3.750   7.572  0.8116  0.7110 -0.4201
23784SOL     OW68110   1.422   3.040   7.771  0.0007  0.2208  0.1584
23784SOL    HW168111   1.405   3.137   7.786  0.6132  0.5830 -1.3795
23784SOL    HW268112   1.381   3.012   7.684  0.5125 -0.6973  0.2069
23785SOL     OW68113   2.576   0.774   0.071  0.0963 -0.4252 -0.2403
23785SOL    HW168114   2.501   0.820   0.117 -0.0116 -1.1310  0.2964
23785SOL    HW268115   2.591   0.684   0.113  0.7431 -0.5981 -0.8322
23787SOL     OW68116   7.837   1.013   1.846 -0.5068 -0.2780  0.4299
23787SOL    HW168117   7.913   0.973   1.898 -1.6011  0.1135  2.3874
23787SOL    HW268118   7.772   0.940   1.822 -1.2528 -0.0869  1.8225
23788SOL     OW68119   3.242   0.135   3.366  0.5589 -0.3736 -0.7392
23788SOL    HW168120   3.233   0.057   3.304 -1.1844 -1.0901  0.3828
23788SOL    HW268121   3.217   0.107   3.458  1.0152  1.2473 -0.1060
23789SOL     OW68122   3.799   5.560   5.115 -0.4373  0.2025 -0.0099
23789SOL    HW168123   3.722   5.516   5.069 -0.2292  2.2509 -2.4264
23789SOL    HW268124   3.770   5.648   5.152  0.6298  0.8425 -0.6594
23790SOL     OW68125   8.785   9.353   2.303  0.2986 -0.3675 -0.1742
23790SOL    HW168126   8.726   9.356   2.222 -0.0878 -1.4415  0.0605
23790SOL    HW268127   8.815   9.446   2.326 -1.6285  0.2394 -0.0523
23792SOL     OW68128   3.847   2.286   4.777 -0.0056 -0.3201 -0.5888
23792SOL    HW168129   3.817   2.194   4.754  0.5495 -0.6086 -0.1655
23792SOL    HW268130   3.919   2.315   4.714 -1.2911  0.4469 -1.7252
23793SOL     OW68131   2.606   3.956   4.788 -0.2067 -0.3630 -0.0145
23793SOL    HW168132   2.533   4.019   4.812 -0.3395 -1.1805  1.8129
23793SOL    HW268133   2.691   4.006   4.776 -0.3793  0.2088  1.1076
23794SOL     OW68134   7.110   6.662   4.732 -0.2784 -0.1552  0.4824
23794SOL    HW168135   7.168   6.684   4.811 -2.6790  0.3656  2.1497
23794SOL    HW268136   7.163   6.672   4.648  1.4328  2.4650  1.8205
23795SOL     OW68137   1.328   6.493   0.237 -0.0006 -0.1567  0.0433
23795SOL    HW168138   1.300   6.423   0.303  2.0871  0.0767  1.2248
23795SOL    HW268139   1.247   6.541   0.203 -1.2286 -1.2484  1.3510
23797SOL     OW68140   2.206   1.782   2.133 -0.2852  0.2601 -0.0175
23797SOL    HW168141   2.291   1.737   2.161 -0.7429 -0.7347 -0.2235
23797SOL    HW268142   2.176   1.747   2.045 -0.2002  1.5875 -0.5886
23798SOL     OW68143   6.738   1.783   4.031 -0.2619  0.1025 -0.4689
23798SOL    HW168144   6.663   1.847   4.043  0.3907  0.8242 -0.1480
23798SOL    HW268145   6.702   1.691   4.021 -1.2267  0.5610 -1.2726
23799SOL     OW68146   3.850   5.186   4.298  0.1683 -0.6014 -0.2143
23799SOL    HW168147   3.928   5.123   4.296 -0.0284 -0.8231 -1.0217
23799SOL    HW268148   3.866   5.261   4.234  0.4260  0.2086  0.7847
23800SOL     OW68149   9.972   6.782   5.131  0.2174 -0.5075  0.1908
23800SOL    HW168150   9.907   6.842   5.085 -1.0132 -0.9538  1.3230
23800SOL    HW268151   9.985   6.812   5.225  1.8313 -0.2994 -0.0807
23801SOL     OW68152   3.411   4.408   1.308  0.2115 -0.0238 -0.2007
23801SOL    HW168153   3.425   4.504   1.331  0.4566 -0.3632  1.0695
23801SOL    HW268154   3.357   4.364   1.379  1.0981 -1.1078 -0.1859
23803SOL     OW68155   7.471   6.446   6.305 -0.1612  0.0089 -0.4419
23803SOL    HW168156   7.544   6.384   6.277  0.6972  1.3130 -1.1623
23803SOL    HW268157   7.435   6.494   6.225 -2.2763 -1.0803 -0.1892
23804SOL     OW68158   3.660   9.027   5.670  0.9933 -0.0072 -0.0376
23804SOL    HW168159   3.583   8.985   5.623  2.2360 -0.0455 -2.0648
23804SOL    HW268160   3.722   8.955   5.703  0.7638  0.0703  0.5739
23805SOL     OW68161   5.372   1.563   4.959  0.6544  0.5219 -0.3144
23805SOL    HW168162   5.314   1.577   4.878 -0.3323  1.3844  0.5360
23805SOL    HW268163   5.410   1.470   4.956 -2.1168 -0.6789 -0.0427
23807SOL     OW68164   1.183   6.848   4.809  0.0622 -0.2035  0.3327
23807SOL    HW168165   1.177   6.875   4.713 -2.4423  0.5984  0.6852
23807SOL    HW268166   1.201   6.928   4.865  1.1963 -0.6229  0.5759
23808SOL     OW68167   7.527   8.296   1.478 -0.0807 -0.4127  0.2898
23808SOL    HW168168   7.545   8.390   1.450 -1.7047 -0.3193 -0.4947
23808SOL    HW268169   7.601   8.237   1.446  0.7806  0.5341  0.5005
23809SOL     OW68170   0.374   1.458   3.410 -0.2636 -0.0186 -0.5656
23809SOL    HW168171   0.362   1.498   3.319 -0.6321 -0.8177 -0.8751
23809SOL    HW268172   0.470   1.435   3.425 -0.3889 -1.0463 -1.2577
23810SOL     OW68173   8.400   5.317   0.888 -0.5088  0.9175 -0.1707
23810SOL    HW168174   8.427   5.405   0.928 -2.2972  2.2265 -1.6923
23810SOL    HW268175   8.319   5.283   0.935  0.5535 -0.2506  0.8307
23811SOL     OW68176   3.468   6.766   2.077  0.1645  0.1143 -0.0174
23811SOL    HW168177   3.487   6.677   2.117  1.5754  0.8541  0.9995
23811SOL    HW268178   3.526   6.780   1.996  1.5429  0.9945  1.1083
23812SOL     OW68179   8.031   8.439   5.796  0.1672  0.7009  0.4222
23812SOL    HW168180   7.939   8.434   5.757  0.1884  1.1592  0.3054
23812SOL    HW268181   8.056   8.535   5.809  1.5390  0.6626 -1.7299
23813SOL     OW68182   1.447   0.353   6.214 -1.1059  0.2430  0.2531
23813SOL    HW168183   1.407   0.265   6.240 -0.7024  0.0888  0.3486
23813SOL    HW268184   1.457   0.410   6.295 -0.1357 -0.1206  0.3857
23814SOL     OW68185   2.359   3.892   1.522 -0.5720  0.0074 -0.0330
23814SOL    HW168186   2.287   3.876   1.589 -0.1568  0.0112  0.4113
23814SOL    HW268187   2.344   3.980   1.477 -0.8361  0.0130  0.0671
23815SOL     OW68188   3.507   9.754   4.222  0.2095 -0.0172 -0.3288
23815SOL    HW168189   3.432   9.748   4.288  1.5965  0.2076  1.2919
23815SOL    HW268190   3.524   9.664   4.184  0.0730 -0.3473  0.3763
23816SOL     OW68191   3.621   5.851   5.148 -0.0210 -0.4759 -0.3220
23816SOL    HW168192   3.682   5.859   5.227 -2.1673  1.4515  1.2124
23816SOL    HW268193   3.651   5.914   5.077  1.3123 -1.4643 -0.6481
23818SOL     OW68194   9.025   2.962   7.776  1.0250 -0.5489  0.1571
23818SOL    HW168195   8.991   2.987   7.685  1.9993 -0.7104 -0.2598
23818SOL    HW268196   9.093   3.029   7.805 -0.0371  0.0853  1.2266
23820SOL     OW68197   9.524   9.070   2.836  0.1188  0.1009  0.2031
23820SOL    HW168198   9.474   9.061   2.923  0.8866  2.0788  0.8702
23820SOL    HW268199   9.535   9.167   2.814  2.6101 -0.3384 -0.5629
23822SOL     OW68200   0.866   2.028   5.250 -0.3596  0.4587 -0.5026
23822SOL    HW168201   0.948   1.994   5.297  0.0946  0.1230 -1.5285
23822SOL    HW268202   0.841   1.964   5.177 -1.1310  0.9261 -0.6484
23823SOL     OW68203   1.855   5.021   6.860  0.1130 -0.8817  0.5514
23823SOL    HW168204   1.951   5.007   6.885  0.6899  1.2405 -0.4226
23823SOL    HW268205   1.796   4.984   6.932  1.6637 -0.9819  1.7814
23825SOL     OW68206   1.564   7.800   3.550  0.0058 -0.4102  0.4303
23825SOL    HW168207   1.568   7.754   3.638 -0.5326 -0.8053  0.2563
23825SOL    HW268208   1.627   7.755   3.486 -2.3459 -2.5990 -0.4886
23826SOL     OW68209   9.020   7.375   0.846 -0.4441 -0.1065 -0.6217
23826SOL    HW168210   8.983   7.458   0.805  2.4051  1.8435  0.6027
23826SOL    HW268211   8.983   7.363   0.938  0.8729  1.0939  0.0809
23827SOL     OW68212   0.154   5.011   6.738  0.4494 -0.3444  0.0157
23827SOL    HW168213   0.057   5.034   6.741  0.9510  1.9155  0.2268
23827SOL    HW268214   0.187   4.991   6.830  0.3848 -0.2055  0.0691
23828SOL     OW68215   9.712   7.516   0.506 -0.2226  0.6351 -0.0650
23828SOL    HW168216   9.727   7.602   0.555 -0.8077  0.5069  0.3489
23828SOL    HW268217   9.626   7.523   0.454 -0.8529 -0.1010  0.8678
23829SOL     OW68218   3.055   8.566   4.049 -0.1248  0.2873  0.1080
23829SOL    HW168219   2.962   8.599   4.035  0.4674  1.6084 -0.8273
23829SOL    HW268220   3.089   8.525   3.964  0.7381  1.3580 -0.0808
23830SOL     OW68221   0.889   3.123   4.249 -0.1344 -0.5449 -1.1447
23830SOL    HW168222   0.913   3.220   4.251  0.4334 -0.7004  0.1305
23830SOL    HW268223   0.794   3.113   4.219 -0.5236  0.4707 -0.3062
23832SOL     OW68224   3.183   1.310   4.693 -0.0421 -0.3649  0.0153
23832SOL    HW168225   3.183   1.264   4.782 -1.0291  0.8657  0.6489
23832SOL    HW268226   3.147   1.247   4.624  0.1410 -1.1050  0.5791
23833SOL     OW68227   9.636   0.563   7.755  0.0129 -0.2148  0.6226
23833SOL    HW168228   9.678   0.493   7.698  2.2450  1.4100  0.2026
23833SOL    HW268229   9.559   0.524   7.806 -0.1937 -2.3769 -1.3043
23835SOL     OW68230   3.022   0.686   1.121 -0.2264 -0.6540 -0.4018
23835SOL    HW168231   3.039   0.776   1.160  0.8671 -0.8876 -0.3152
23835SOL    HW268232   3.026   0.691   1.021 -0.6988 -0.5064 -0.4140
23837SOL     OW68233   4.052   9.375   1.216  0.3480  0.0173  0.2504
23837SOL    HW168234   4.082   9.330   1.299  0.2138  1.5352  1.1372
23837SOL    HW268235   3.956   9.405   1.226  0.2171 -0.1014 -0.5708
23838SOL     OW68236   2.461   3.840   6.246  0.3683 -0.0247 -0.5564
23838SOL    HW168237   2.361   3.842   6.237  0.4741 -1.0192 -2.1702
23838SOL    HW268238   2.494   3.931   6.270 -0.8711  0.5005 -0.8009
23839SOL     OW68239   4.947   5.944   2.397  0.1186  0.4128 -0.4112
23839SOL    HW168240   5.007   5.910   2.469  0.6237  1.6924 -0.2225
23839SOL    HW268241   4.852   5.922   2.419  0.1855  1.5904  1.0905
23840SOL     OW68242   3.216   0.880   7.770 -0.2592  0.4130  0.3680
23840SOL    HW168243   3.309   0.910   7.750  0.2667 -1.1488  0.3565
23840SOL    HW268244   3.194   0.901   7.865  0.7146 -0.6372  0.8432
23841SOL     OW68245   8.236   7.136   5.201  0.5590  0.3032  0.5084
23841SOL    HW168246   8.150   7.167   5.162 -0.0688 -2.0006 -0.0270
23841SOL    HW268247   8.223   7.115   5.298  0.3217 -0.7851  0.2415
23842SOL     OW68248   7.282   8.761   7.853  0.2094  0.5576 -0.3155
23842SOL    HW168249   7.352   8.822   7.890  0.4754  0.4064 -0.5641
23842SOL    HW268250   7.303   8.741   7.757 -0.7504  1.3715 -0.7091
23843SOL     OW68251   6.114   4.043   2.235  0.0703  0.2125 -0.0555
23843SOL    HW168252   6.017   4.016   2.235  0.2249 -0.3664 -1.4230
23843SOL    HW268253   6.171   3.962   2.247  0.4382  0.3383 -0.9448
23844SOL     OW68254   9.570   3.778   6.236  0.0689  0.0969  0.3535
23844SOL    HW168255   9.651   3.766   6.294 -0.1527  0.2106  0.6821
23844SOL    HW268256   9.507   3.702   6.251  0.5636 -0.5178 -0.6323
23845SOL     OW68257   5.011   8.970   1.182 -0.3565 -0.0165 -0.0407
23845SOL    HW168258   4.976   8.883   1.215  0.4053  0.0512  0.9595
23845SOL    HW268259   4.955   9.045   1.219 -0.6447 -0.0461 -0.4161
23846SOL     OW68260   6.656   1.742   1.060 -0.1229  0.0739  0.1476
23846SOL    HW168261   6.624   1.836   1.053  1.2917  0.6113  0.6818
23846SOL    HW268262   6.755   1.741   1.079  0.3923 -1.5429 -2.3593
23847SOL     OW68263   9.292   9.598   5.050  0.0589  0.0621  0.2646
23847SOL    HW168264   9.320   9.505   5.075  0.9474 -0.1909 -1.6094
23847SOL    HW268265   9.209   9.594   4.994  0.8784  0.2763 -0.9988
23848SOL     OW68266   0.788   9.363   1.207 -0.5117  0.2163 -0.0922
23848SOL    HW168267   0.710   9.425   1.193  0.0627  0.7941 -0.7468
23848SOL    HW268268   0.841   9.356   1.123  2.0868  2.5170  1.2365
23849SOL     OW68269   2.859   9.936   4.356  0.0292 -0.1606  0.6672
23849SOL    HW168270   2.802  10.005   4.312  0.3131 -1.5282 -1.9144
23849SOL    HW268271   2.953   9.970   4.364 -0.0402  0.1181  0.2961
23850SOL     OW68272   2.365   3.476   3.378 -0.2616 -0.5429  0.4800
23850SOL    HW168273   2.384   3.541   3.451 -0.0775 -1.2928  1.1054
23850SOL    HW268274   2.304   3.518   3.310  1.2675  0.8869 -0.0335
23851SOL     OW68275   3.268   1.696   5.468 -0.6137 -0.0377  0.2141
23851SOL    HW168276   3.278   1.686   5.567 -2.1229  1.2197  0.5226
23851SOL    HW268277   3.253   1.793   5.446 -1.6447 -0.4758 -1.1012
23852SOL     OW68278   1.237   3.431   7.541  0.4021  0.0518  0.2219
23852SOL    HW168279   1.219   3.377   7.458  3.0740 -0.9717  0.2349
23852SOL    HW268280   1.268   3.522   7.515 -0.6417  0.3825  0.1321
23853SOL     OW68281   6.268   9.040   3.865 -0.1960 -0.4487 -0.3647
23853SOL    HW168282   6.239   9.122   3.815  1.3299 -0.0338 -0.5930
23853SOL    HW268283   6.330   8.987   3.808  0.3780 -0.7493  0.5405
23854SOL     OW68284   0.546   2.807   3.344  0.6026  0.7102  0.2275
23854SOL    HW168285   0.512   2.895   3.309  1.7645  1.7489  1.6484
23854SOL    HW268286   0.588   2.821   3.434 -0.2184 -1.5172  0.9821
23855SOL     OW68287   3.103   8.268   4.836  0.1868 -0.4158 -0.2579
23855SOL    HW168288   3.180   8.332   4.824 -0.8064  1.0334  0.9241
23855SOL    HW268289   3.123   8.206   4.912  0.2813 -0.1902 -0.0980
23856SOL     OW68290   6.499   4.202   0.055 -0.2091 -0.6259 -0.3404
23856SOL    HW168291   6.459   4.238   0.139  0.5889  0.2148 -0.3041
23856SOL    HW268292   6.444   4.230  -0.023  0.0659  0.1643 -0.2553
23857SOL     OW68293   8.838   6.928   4.411 -0.3983 -0.1596 -0.1184
23857SOL    HW168294   8.809   6.837   4.381  0.4230  0.1407 -1.8677
23857SOL    HW268295   8.839   6.990   4.333  4.3066  0.0332 -0.0336
23859SOL     OW68296   8.909   8.236   3.674  0.3222  0.0822 -0.2277
23859SOL    HW168297   8.936   8.157   3.729 -0.1344 -0.0611 -0.2032
23859SOL    HW268298   8.979   8.255   3.605  1.0302  0.4236  0.5728
23860SOL     OW68299   9.816   3.815   0.686  1.0105 -0.0782 -0.2356
23860SOL    HW168300   9.839   3.912   0.678 -0.1541  0.3204  1.0417
23860SOL    HW268301   9.718   3.802   0.667  0.5286 -0.5776  2.4308
23861SOL     OW68302   2.936   7.426   0.256 -0.2015  0.0861  0.0339
23861SOL    HW168303   2.876   7.504   0.279 -1.7072 -1.2017  0.5624
23861SOL    HW268304   2.897   7.342   0.294  1.5763 -0.8955 -0.2670
23862SOL     OW68305   3.799   6.287   1.174 -0.1291 -0.5481 -0.0869
23862SOL    HW168306   3.821   6.363   1.113  2.6419  0.4931  2.1271
23862SOL    HW268307   3.749   6.321   1.253  1.8224 -0.8941  1.3091
23863SOL     OW68308   0.408   1.607   2.874  0.2082  0.2313 -0.6492
23863SOL    HW168309   0.353   1.686   2.901 -0.3387 -0.1652 -0.5970
23863SOL    HW268310   0.394   1.589   2.777 -0.7319 -0.6245 -0.3752
23864SOL     OW68311   5.448   1.104   0.165  0.4265  0.0567  0.1670
23864SOL    HW168312   5.393   1.027   0.197  1.0223 -0.5313 -0.2158
23864SOL    HW268313   5.532   1.110   0.218  0.8324 -0.1499 -0.4544
23865SOL     OW68314   0.168   3.177   7.889  0.1424  0.6405 -0.1364
23865SOL    HW168315   0.080   3.158   7.845  1.2319 -1.9752 -1.2928
23865SOL    HW268316   0.209   3.258   7.848 -0.8460  0.7276 -0.9700
23867SOL     OW68317   3.145   2.698   2.740 -0.5434 -0.4469  0.4494
23867SOL    HW168318   3.172   2.789   2.710  1.7271 -0.9630  0.8697
23867SOL    HW268319   3.135   2.638   2.660  0.1261 -0.3989  0.3305
23868SOL     OW68320   2.635   4.213   3.123 -0.3829 -0.4010 -0.1750
23868SOL    HW168321   2.646   4.262   3.036 -0.9237  3.3839  1.7791
23868SOL    HW268322   2.540   4.183   3.133 -0.5845  0.1496 -0.4180
23869SOL     OW68323   8.376   4.296   2.812  0.4619 -0.1930  0.0367
23869SOL    HW168324   8.285   4.333   2.832 -0.4162 -0.6521 -2.9105
23869SOL    HW268325   8.370   4.230   2.737  3.2982  0.0700 -0.4950
23870SOL     OW68326   3.560   1.502   1.923 -0.0284 -0.5117  0.1493
23870SOL    HW168327   3.643   1.449   1.938 -0.3557 -0.5374  1.9148
23870SOL    HW268328   3.539   1.504   1.825  1.3032 -1.6217 -0.1688
23871SOL     OW68329   9.518   6.156   6.744  0.1162 -0.0329  0.0255
23871SOL    HW168330   9.557   6.083   6.688  0.1059 -0.3428  0.4211
23871SOL    HW268331   9.525   6.132   6.841  0.3996  0.6368  0.1727
23872SOL     OW68332   9.510   2.625   0.370 -0.1623  0.3130 -0.7871
23872SOL    HW168333   9.419   2.641   0.333  0.5331  2.1680 -1.7756
23872SOL    HW268334   9.575   2.688   0.327  1.4166 -0.3379  0.5773
23873SOL     OW68335   5.064   2.212   0.919  0.2495 -0.0302 -0.3978
23873SOL    HW168336   4.986   2.151   0.903 -0.8075  0.8784  1.1377
23873SOL    HW268337   5.128   2.169   0.982 -1.3390  1.0825  2.0478
23874SOL     OW68338   0.211   8.352   7.357  0.2806 -0.5175 -0.0866
23874SOL    HW168339   0.201   8.253   7.344  1.8066 -0.8644  1.2882
23874SOL    HW268340   0.244   8.393   7.272 -2.0100 -0.9124 -1.2135
23875SOL     OW68341   7.757   6.658   0.492  0.1903  0.1345 -0.3701
23875SOL    HW168342   7.811   6.742   0.486  0.8103 -0.1076  1.4009
23875SOL    HW268343   7.789   6.593   0.423  1.6258  0.3111  0.1057
23876SOL     OW68344   0.276   7.514   6.399  0.1772 -0.2802 -0.4563
23876SOL    HW168345   0.286   7.613   6.406  1.0650 -0.4115  0.3379
23876SOL    HW268346   0.313   7.482   6.312  0.9882 -0.0366 -0.2075
23878SOL     OW68347   8.945   2.776   1.796  0.3562  0.4280 -0.4136
23878SOL    HW168348   8.898   2.703   1.746  2.2080 -0.0767 -1.4740
23878SOL    HW268349   8.952   2.751   1.893 -0.2980 -0.1338 -0.5122
23879SOL     OW68350   9.311   4.802   1.970 -0.1425  0.5600 -0.6322
23879SOL    HW168351   9.376   4.727   1.964  0.7211  1.4511 -2.8747
23879SOL    HW268352   9.352   4.877   2.022 -1.6181 -1.0617  3.0695
23880SOL     OW68353   4.314   4.073   1.753 -0.9827  0.5125 -0.6482
23880SOL    HW168354   4.340   4.107   1.844 -1.4020  1.8528 -1.0208
23880SOL    HW268355   4.358   4.128   1.683  1.2377 -1.9753 -1.3005
23881SOL     OW68356   1.646   5.077   4.489 -0.6087 -0.6575  0.5086
23881SOL    HW168357   1.664   5.174   4.469  2.1405 -0.9716  1.3357
23881SOL    HW268358   1.715   5.021   4.445 -1.6047 -2.1994  0.8855
23882SOL     OW68359   7.160   1.402   0.107 -0.5300  0.7853  0.0447
23882SOL    HW168360   7.254   1.367   0.106 -0.8321 -0.0380 -1.1033
23882SOL    HW268361   7.096   1.327   0.122 -1.0714  1.1577 -0.3676
23883SOL     OW68362   2.160   3.582   6.959 -0.0646 -0.1980 -0.3598
23883SOL    HW168363   2.160   3.547   6.866  0.4196 -1.2500  0.0283
23883SOL    HW268364   2.251   3.617   6.981  0.1882 -1.1631  0.1597
23884SOL     OW68365   1.917   7.860   2.919 -0.4525 -0.6849  0.2006
23884SOL    HW168366   1.847   7.900   2.979  0.1191 -0.9619  1.0611
23884SOL    HW268367   1.991   7.823   2.974 -0.2526 -1.5868 -0.6577
23885SOL     OW68368   5.624   0.624   4.914 -0.0606  0.4385 -0.5204
23885SOL    HW168369   5.544   0.594   4.966  0.0832  1.3247  0.2352
23885SOL    HW268370   5.632   0.724   4.920  1.0303  0.3703 -0.7040
23886SOL     OW68371   1.959   4.614   5.609  0.0357 -0.0486 -0.1644
23886SOL    HW168372   1.897   4.585   5.536  0.1838  0.9668 -0.7022
23886SOL    HW268373   1.950   4.552   5.687  0.9900 -2.0702 -1.6112
23887SOL     OW68374   8.883   5.714   3.552 -0.1188 -0.3726 -0.2135
23887SOL    HW168375   8.786   5.727   3.536 -0.0707  0.0829 -0.1365
23887SOL    HW268376   8.912   5.766   3.633  0.1489 -0.6583 -0.1209
23888SOL     OW68377   1.444   0.196   5.525  0.3168 -0.0514 -0.0039
23888SOL    HW168378   1.347   0.175   5.512 -0.0644  1.6947 -0.1270
23888SOL    HW268379   1.483   0.227   5.438  0.5828  0.8072  0.4221
23889SOL     OW68380   8.050  -0.003   5.825 -0.3192 -0.9885 -0.0266
23889SOL    HW168381   7.957  -0.004   5.862 -0.7953  0.8103 -1.0941
23889SOL    HW268382   8.053   0.054   5.743  1.9410 -0.1606  0.5844
23890SOL     OW68383   9.772   8.055   1.446  0.0560 -0.0407 -0.1129
23890SOL    HW168384   9.676   8.077   1.429  0.2527  0.6576 -0.3582
23890SOL    HW268385   9.780   7.997   1.527 -0.2213  4.0135  2.9843
23893SOL     OW68386   0.840   5.875   1.925  0.5616  0.1537 -0.1811
23893SOL    HW168387   0.831   5.917   2.015 -2.4343  0.0630 -0.3737
23893SOL    HW268388   0.774   5.800   1.917  2.1870 -1.1514 -1.7484
23895SOL     OW68389   1.834   8.664   7.692  0.4633  0.1798  0.0797
23895SOL    HW168390   1.825   8.745   7.750 -1.1022 -1.3803  2.0757
23895SOL    HW268391   1.795   8.682   7.602 -1.2300  1.1597  0.9970
23897SOL     OW68392   5.407   0.961   3.716  0.6321  0.2543  0.1553
23897SOL    HW168393   5.367   0.891   3.658  1.8651  0.6744 -1.2172
23897SOL    HW268394   5.507   0.959   3.706  0.6963  1.9191  0.4364
23898SOL     OW68395   0.256   2.157   5.048  0.3091 -0.6352  0.0799
23898SOL    HW168396   0.336   2.171   5.106  0.2786 -1.8710  0.4297
23898SOL    HW268397   0.176   2.203   5.088  0.3353 -1.3063  0.9077
23899SOL     OW68398   9.934   1.185   0.622 -0.5573  0.2321  0.7048
23899SOL    HW168399   9.855   1.149   0.572 -0.9637  1.6501  0.2945
23899SOL    HW268400   9.959   1.274   0.584  2.1436 -0.8223 -0.0974
23900SOL     OW68401   1.128   5.743   1.303  0.6369  0.3361  0.4216
23900SOL    HW168402   1.039   5.787   1.288  0.8872  0.5361 -0.5081
23900SOL    HW268403   1.119   5.673   1.374 -0.4114 -0.0943 -0.1251
23901SOL     OW68404   4.260   1.382   0.220  0.4528 -0.0716  0.0664
23901SOL    HW168405   4.305   1.471   0.212  0.1991 -0.1162 -2.2163
23901SOL    HW268406   4.161   1.394   0.209  0.2983 -0.4847  0.9906
23902SOL     OW68407   9.005   4.356   1.854 -0.6030 -0.0137  0.0378
23902SOL    HW168408   8.984   4.430   1.918  0.8586  0.5691 -0.1450
23902SOL    HW268409   8.931   4.348   1.787 -2.5456 -1.1732  2.2554
23904SOL     OW68410   4.807   0.681   0.869  0.6248  0.0478 -0.0429
23904SOL    HW168411   4.882   0.661   0.805  1.4940  0.0466  0.9581
23904SOL    HW268412   4.741   0.741   0.825  0.8214 -0.5642 -1.2051
23905SOL     OW68413   0.345   4.959   7.477 -0.3596 -0.2614 -0.2453
23905SOL    HW168414   0.258   4.913   7.463 -2.3516  2.4361  2.5744
23905SOL    HW268415   0.393   4.918   7.555 -1.5316  1.4957  1.4414
23906SOL     OW68416   6.907   8.852   3.582  0.1311 -0.2026 -0.0860
23906SOL    HW168417   6.955   8.939   3.570 -0.8189  0.6504  1.9389
23906SOL    HW268418   6.903   8.803   3.495  0.1351  2.0814 -1.4089
23907SOL     OW68419   2.377   8.827   3.247  0.1406  0.0494 -0.8512
23907SOL    HW168420   2.468   8.854   3.281 -0.9663  3.0861 -0.1625
23907SOL    HW268421   2.356   8.878   3.164 -1.3140 -0.0173 -0.5328
23910SOL     OW68422   4.819   8.469   2.645  0.6529 -0.5978  0.1870
23910SOL    HW168423   4.842   8.474   2.548  0.1400  3.4729  0.2090
23910SOL    HW268424   4.722   8.491   2.658  1.0762  0.3737  1.7629
23911SOL     OW68425   1.945   9.954   5.433 -0.2836 -0.6580  0.2633
23911SOL    HW168426   1.878  10.002   5.377 -0.5798 -1.4862 -0.0950
23911SOL    HW268427   1.920   9.858   5.440 -0.0155 -0.6437  1.4787
23915SOL     OW68428   9.641   8.966   5.926 -0.6821 -0.5841  0.2067
23915SOL    HW168429   9.547   8.957   5.958 -1.2318 -2.0332 -1.7273
23915SOL    HW268430   9.683   8.875   5.920  1.5651  0.1847  3.0495
23917SOL     OW68431   0.864   8.067   1.748 -0.3176 -0.5364  0.7328
23917SOL    HW168432   0.809   7.993   1.709 -0.6183  0.3545 -0.5443
23917SOL    HW268433   0.902   8.123   1.675 -0.8716  1.1581  1.7083
23919SOL     OW68434   0.354   7.001   7.321 -0.0245  0.1265  0.3757
23919SOL    HW168435   0.347   7.101   7.322  0.7067  0.2420 -2.6766
23919SOL    HW268436   0.262   6.962   7.331 -0.4261  1.1176  0.6404
23921SOL     OW68437   4.039   8.440   0.544 -0.0246  0.6868 -0.5841
23921SOL    HW168438   4.047   8.341   0.530 -3.0287  0.2774  0.1349
23921SOL    HW268439   4.078   8.488   0.466  0.1297 -1.1158 -1.6430
23922SOL     OW68440   0.482   9.503   0.539 -0.1241 -0.2599  0.1244
23922SOL    HW168441   0.556   9.437   0.556 -1.0185 -1.4417 -0.4610
23922SOL    HW268442   0.520   9.587   0.500  1.3658  0.6555  3.4290
23924SOL     OW68443   6.910   5.665   0.866 -0.3992 -0.6880  0.2924
23924SOL    HW168444   6.952   5.713   0.943 -1.8865  0.9851  0.0912
23924SOL    HW268445   6.982   5.631   0.805  0.7134  2.5003 -0.2832
23925SOL     OW68446   1.423   6.937   5.755  0.9296  0.2559 -0.7910
23925SOL    HW168447   1.368   6.856   5.733 -1.5225  1.3327  1.1061
23925SOL    HW268448   1.510   6.908   5.795 -0.2945 -1.4677  0.7115
23926SOL     OW68449   0.581   0.670   7.248 -0.0538  0.3567 -0.4998
23926SOL    HW168450   0.486   0.657   7.278 -0.0753  0.3260 -0.5808
23926SOL    HW268451   0.641   0.671   7.327  0.1798 -2.0967 -0.6332
23927SOL     OW68452   1.348   8.115   5.473  0.5295 -0.4383 -0.3315
23927SOL    HW168453   1.361   8.089   5.377  2.5258  1.7180 -0.6951
23927SOL    HW268454   1.387   8.206   5.488 -0.5276 -0.3929  2.3416
23928SOL     OW68455   8.142   1.006   5.783  0.3301 -0.0339  0.2302
23928SOL    HW168456   8.042   1.001   5.783  0.2652  1.2051 -1.2373
23928SOL    HW268457   8.178   0.941   5.716  0.3938  1.4444 -1.1908
23929SOL     OW68458   4.200   0.988   3.855  0.1048  0.4928  0.1474
23929SOL    HW168459   4.242   0.967   3.943  1.5054 -0.1925 -0.6634
23929SOL    HW268460   4.193   0.904   3.801  1.6056  1.3236 -1.3858
23931SOL     OW68461   9.696   3.579   0.560 -0.4655 -0.3071  0.0791
23931SOL    HW168462   9.760   3.639   0.511 -0.6203  0.7000  1.0899
23931SOL    HW268463   9.664   3.507   0.499  0.8800 -0.2338 -0.7206
23932SOL     OW68464   8.670   2.941   2.248  0.8822  0.3036  0.1332
23932SOL    HW168465   8.571   2.929   2.256  0.4987  1.5939 -2.1275
23932SOL    HW268466   8.695   3.034   2.278  1.3586  0.1105  0.3404
23933SOL     OW68467   5.522   1.793   7.021  0.1908 -0.9291  0.9253
23933SOL    HW168468   5.427   1.822   7.027  0.7852  0.7975  2.0429
23933SOL    HW268469   5.567   1.806   7.109  1.9160 -0.1507 -0.0543
23935SOL     OW68470   9.150   9.338   7.246  0.0802 -0.4902 -0.2897
23935SOL    HW168471   9.128   9.343   7.343  0.8951 -0.3313 -0.1036
23935SOL    HW268472   9.249   9.330   7.235  0.1328  1.1083 -1.1488
23937SOL     OW68473   3.579   6.086   1.609  0.0257 -0.0744  0.3522
23937SOL    HW168474   3.534   6.090   1.698 -0.3322  0.3471  0.1533
23937SOL    HW268475   3.527   6.028   1.547  2.3378 -3.6130  1.5846
23938SOL     OW68476   8.387   1.528   3.620 -0.3365  0.2270  0.0914
23938SOL    HW168477   8.435   1.450   3.580  1.4185  1.0266  0.5799
23938SOL    HW268478   8.334   1.575   3.549 -2.0857 -1.8787 -0.0370
23940SOL     OW68479   9.976   3.775   3.989  0.1978  1.0559  0.4972
23940SOL    HW168480   9.966   3.676   3.994 -1.4431  1.0841 -1.3482
23940SOL    HW268481   9.917   3.819   4.057 -0.2695  0.8062  0.2519
23942SOL     OW68482   2.341   1.205   4.184  0.1573 -0.3378 -0.6172
23942SOL    HW168483   2.271   1.252   4.238 -1.8589  0.0354 -3.5094
23942SOL    HW268484   2.430   1.247   4.203 -1.0925  2.3923 -0.5088
23943SOL     OW68485   5.955   8.753   6.059 -0.0069  0.4950  0.1229
23943SOL    HW168486   5.870   8.804   6.045 -0.5290 -0.4975 -0.4220
23943SOL    HW268487   6.003   8.744   5.971  0.6836  1.0662  0.4309
23944SOL     OW68488   0.909   0.436   0.273  0.2560 -0.1301  0.4020
23944SOL    HW168489   0.957   0.504   0.329 -2.1391 -0.4811  3.0005
23944SOL    HW268490   0.947   0.436   0.181  1.5844  3.3912  0.8675
23945SOL     OW68491   0.622   3.509   1.364 -0.2525  0.0290 -0.2412
23945SOL    HW168492   0.559   3.578   1.398  0.8730  0.8175  0.2879
23945SOL    HW268493   0.589   3.418   1.389 -1.0889  0.4431  0.1675
23948SOL     OW68494   9.935   3.656   3.501 -0.2438  0.0634 -0.1383
23948SOL    HW168495   9.992   3.585   3.459 -0.1821  0.0064  0.0400
23948SOL    HW268496   9.854   3.671   3.446  0.2538  0.5994 -0.7338
23950SOL     OW68497   5.835   0.575   4.720 -0.3081  0.6474 -0.4160
23950SOL    HW168498   5.877   0.664   4.707 -0.3782  0.8656  0.7853
23950SOL    HW268499   5.765   0.580   4.792  1.8047 -1.0043  1.8537
23951SOL     OW68500   4.863   8.473   2.967  0.0033 -0.4800 -0.1989
23951SOL    HW168501   4.956   8.449   2.995 -0.4596 -0.7918  1.0588
23951SOL    HW268502   4.857   8.471   2.867  1.5462  0.2860 -0.3232
23952SOL     OW68503   0.984   9.158   0.197  0.0483  0.5389  0.0887
23952SOL    HW168504   0.919   9.205   0.257 -1.5841 -1.3390 -0.1237
23952SOL    HW268505   1.036   9.092   0.250 -0.7150 -0.4385 -0.3641
23953SOL     OW68506   0.401   6.790   2.366  0.5226 -0.3704 -0.7185
23953SOL    HW168507   0.323   6.740   2.402  0.1726  1.4606  1.2302
23953SOL    HW268508   0.446   6.737   2.295 -1.4643 -2.1901 -0.6493
23954SOL     OW68509   1.078   7.463   7.258 -0.2004 -0.5410 -0.4325
23954SOL    HW168510   1.101   7.535   7.192 -1.4864 -0.1956 -0.5195
23954SOL    HW268511   1.085   7.500   7.351  0.2101 -0.6232 -0.4276
23955SOL     OW68512   1.006   5.400   3.078 -0.1320  0.1243  0.3935
23955SOL    HW168513   1.090   5.348   3.094  0.3064  0.8955  0.5829
23955SOL    HW268514   0.928   5.337   3.081  0.5099 -0.7389 -0.6683
23961SOL     OW68515   6.315   7.619   4.812 -0.0093 -0.0702  0.0058
23961SOL    HW168516   6.401   7.667   4.827  0.2250 -0.5738  0.3075
23961SOL    HW268517   6.289   7.571   4.896  0.0853 -0.9784 -0.4704
23962SOL     OW68518   1.134   8.331   6.243 -0.4957  0.1778 -0.5130
23962SOL    HW168519   1.108   8.288   6.330 -1.1526  1.3545 -0.1281
23962SOL    HW268520   1.100   8.275   6.167 -0.1110 -0.7390 -0.0241
23963SOL     OW68521   9.954   0.546   0.922 -0.0588  0.1893  0.0983
23963SOL    HW168522   9.958   0.546   0.822 -1.5703 -0.8592  0.0184
23963SOL    HW268523  10.003   0.467   0.958 -0.3216  0.0414  0.1349
23965SOL     OW68524   2.469   2.863   2.238  0.5342 -0.8318  0.3551
23965SOL    HW168525   2.478   2.943   2.178  2.0227  0.2953  2.0340
23965SOL    HW268526   2.382   2.868   2.287  0.2877 -0.6406 -0.0958
23967SOL     OW68527   9.249   2.295   7.566  0.3957 -0.3799  1.1581
23967SOL    HW168528   9.280   2.207   7.530 -0.0337  0.5070 -1.4862
23967SOL    HW268529   9.329   2.348   7.595  0.7973 -0.8979  1.0206
23968SOL     OW68530   3.370   8.993   7.440  0.1271  0.1435 -0.4453
23968SOL    HW168531   3.452   9.025   7.392  0.1634 -0.0712 -0.5326
23968SOL    HW268532   3.355   8.896   7.418  1.3156 -0.5452  1.5875
23970SOL     OW68533   4.327   1.564   7.212  0.5918  0.4314  0.2897
23970SOL    HW168534   4.314   1.657   7.248  1.9015  0.1307  1.5836
23970SOL    HW268535   4.299   1.562   7.116  0.6072  2.1834  0.2236
23971SOL     OW68536   2.565   0.342   6.561  0.2780 -0.2189 -0.0451
23971SOL    HW168537   2.525   0.383   6.643  3.1976  1.4485  0.6324
23971SOL    HW268538   2.640   0.281   6.588  0.3755 -0.7379 -1.4313
23973SOL     OW68539   3.633   8.689   7.764  0.2963 -0.1140 -0.3106
23973SOL    HW168540   3.640   8.766   7.701 -0.1267 -0.5030 -0.8354
23973SOL    HW268541   3.539   8.656   7.767  0.0121  0.8260  1.6387
23974SOL     OW68542   9.269   3.612   5.666  0.3057 -0.5847  0.7579
23974SOL    HW168543   9.320   3.694   5.690 -0.0470 -0.7474  2.0862
23974SOL    HW268544   9.311   3.533   5.711  0.4716 -1.1021 -0.2847
23975SOL     OW68545   3.040   9.533   0.656 -0.3541  0.6287  0.6260
23975SOL    HW168546   3.006   9.617   0.699 -1.1652  1.4266 -1.5220
23975SOL    HW268547   2.964   9.485   0.612  0.4414 -0.2584  0.2157
23976SOL     OW68548   1.286   2.122   7.250  0.1815  0.7747 -0.1677
23976SOL    HW168549   1.195   2.091   7.223  0.2758 -0.5465  1.0382
23976SOL    HW268550   1.355   2.066   7.203  0.3656  0.6215  0.2907
23978SOL     OW68551   7.644   5.861   4.727 -0.3426 -0.8213  0.2789
23978SOL    HW168552   7.652   5.938   4.790  1.3615 -1.5963  1.0264
23978SOL    HW268553   7.549   5.829   4.725 -1.2491  1.7681 -0.6395
23979SOL     OW68554   2.949   5.884   4.754 -0.8089  0.3712 -0.7285
23979SOL    HW168555   2.932   5.927   4.665 -0.7650  1.1939 -0.3446
23979SOL    HW268556   2.863   5.872   4.802 -0.7435  0.7249 -0.5208
23980SOL     OW68557   0.603   9.110   2.452  0.2493 -0.0801  0.0639
23980SOL    HW168558   0.699   9.090   2.433  0.2632 -1.4935  1.5657
23980SOL    HW268559   0.592   9.133   2.548 -0.6661  1.7515 -0.4555
23984SOL     OW68560   2.052   1.380   4.910  0.6365  0.0078  0.2032
23984SOL    HW168561   2.125   1.391   4.842 -0.2234  0.3721 -0.6835
23984SOL    HW268562   2.061   1.450   4.981  1.2062 -0.0142  0.1546
23985SOL     OW68563   1.618   0.646   3.120  0.0888 -0.3314 -0.6233
23985SOL    HW168564   1.553   0.688   3.184  1.1048  0.0551  0.1703
23985SOL    HW268565   1.691   0.711   3.100  0.4399 -0.9012 -1.2162
23986SOL     OW68566   6.388   2.845   2.841 -0.6509 -0.1759  0.5985
23986SOL    HW168567   6.415   2.826   2.747  0.0366  2.0038  0.3232
23986SOL    HW268568   6.454   2.803   2.904 -0.8946 -1.2975  0.1203
23988SOL     OW68569   2.766   8.904   1.840  0.3346 -0.0940  0.3867
23988SOL    HW168570   2.793   8.999   1.854  2.1823 -0.5413  0.0274
23988SOL    HW268571   2.848   8.846   1.837 -0.5188 -1.2761 -2.4232
23989SOL     OW68572   7.733   0.916   3.491 -0.4792 -0.6048  0.6192
23989SOL    HW168573   7.651   0.907   3.435  0.5962  0.2170 -1.1035
23989SOL    HW268574   7.721   0.992   3.556  0.1424  1.6511 -1.8357
23990SOL     OW68575   7.453   3.990   4.073  0.7360 -0.3854 -0.2989
23990SOL    HW168576   7.512   3.954   4.145 -0.5709 -0.5124  0.7268
23990SOL    HW268577   7.397   3.916   4.035  1.5484 -0.3603 -1.6022
23992SOL     OW68578   0.610   7.749   7.827 -0.6110  0.5291 -0.5165
23992SOL    HW168579   0.599   7.654   7.857 -0.6077  1.0554  1.1919
23992SOL    HW268580   0.633   7.806   7.905  0.7813  1.7158 -1.7698
23993SOL     OW68581   6.239   0.954   4.178 -0.2977  0.1067  0.4994
23993SOL    HW168582   6.295   0.888   4.228  0.0359  0.0574  0.0610
23993SOL    HW268583   6.285   0.981   4.094 -0.3791  1.0063  0.7358
23995SOL     OW68584   5.364   0.226   2.712  0.2652  0.0768  0.6638
23995SOL    HW168585   5.360   0.318   2.749  0.4134  0.9349 -1.3518
23995SOL    HW268586   5.287   0.172   2.746 -0.5849  1.3651  0.8160
23996SOL     OW68587   2.273   1.043   2.878  0.6575 -0.2748  0.4133
23996SOL    HW168588   2.244   1.042   2.973 -0.1966 -1.8990  0.1566
23996SOL    HW268589   2.368   1.013   2.871  0.9710  0.6192  0.8226
23997SOL     OW68590   6.806   8.478   6.854  0.5444 -0.1731  0.0610
23997SOL    HW168591   6.820   8.384   6.824 -1.0679 -1.2589  2.5410
23997SOL    HW268592   6.883   8.507   6.912 -0.3633 -1.0130  1.7059
23998SOL     OW68593   9.172   0.768   5.626 -0.0593  0.5450  0.4625
23998SOL    HW168594   9.256   0.714   5.624 -1.2294 -1.3172  1.0841
23998SOL    HW268595   9.139   0.781   5.532 -0.9457 -1.7210  0.4269
23999SOL     OW68596   6.569   0.006   4.268  0.5683 -0.6290 -0.8243
23999SOL    HW168597   6.564   0.092   4.217  0.8229 -0.3990 -0.4702
23999SOL    HW268598   6.477  -0.027   4.286  0.4713 -0.5191 -1.1163
24000SOL     OW68599   8.035   9.189   3.252 -0.2140 -0.0246 -0.4512
24000SOL    HW168600   8.103   9.263   3.250 -0.2835  0.0122 -1.6068
24000SOL    HW268601   8.082   9.101   3.253 -0.1321  0.0156  0.8615
24001SOL     OW68602   4.933   0.043   5.117  0.1256 -0.3003  0.8266
24001SOL    HW168603   4.996  -0.010   5.173  0.6479 -0.0191  0.5023
24001SOL    HW268604   4.973   0.131   5.096  0.6560 -1.0690 -1.4483
24003SOL     OW68605   7.366   9.934   6.336 -0.2137  0.0819 -0.1756
24003SOL    HW168606   7.360   9.947   6.237  0.1712  2.2827  0.0795
24003SOL    HW268607   7.442   9.987   6.373 -1.5263  0.8146  1.5648
24005SOL     OW68608   8.831   7.815   2.150  0.9039  0.4143 -1.1285
24005SOL    HW168609   8.843   7.734   2.207 -2.3320  0.1370 -0.7567
24005SOL    HW268610   8.899   7.883   2.175  1.3009 -0.7516  1.1576
24008SOL     OW68611   3.503   8.496   1.784  0.1715  0.5672 -0.1732
24008SOL    HW168612   3.450   8.508   1.868 -1.1454 -0.8560 -0.7751
24008SOL    HW268613   3.442   8.490   1.706  1.2343 -0.7813 -0.9250
24009SOL     OW68614   1.931   4.420   3.540 -1.2054  0.2850 -0.5059
24009SOL    HW168615   2.012   4.479   3.543 -1.4415  0.5590  0.8841
24009SOL    HW268616   1.959   4.326   3.521 -0.5338  0.3550  0.1041
24010SOL     OW68617   9.181   3.808   0.270  0.5790  0.3899  0.6478
24010SOL    HW168618   9.127   3.843   0.193  0.7346  0.5583  0.6127
24010SOL    HW268619   9.129   3.818   0.355  0.3042 -0.0402  0.5273
24012SOL     OW68620   0.607   2.099   7.917  0.3909  0.7581 -0.1419
24012SOL    HW168621   0.643   2.192   7.909 -0.9738  1.1851 -1.4020
24012SOL    HW268622   0.548   2.093   7.998 -0.4732  1.3275 -0.7167
24015SOL     OW68623   7.871   9.994   5.437 -0.2430  0.3954 -0.1196
24015SOL    HW168624   7.911  10.061   5.499 -0.6945  1.5320 -1.0133
24015SOL    HW268625   7.901   9.902   5.461  0.8684  0.9845  0.7594
24016SOL     OW68626   0.207   9.336   6.914 -0.5361 -0.4202  0.2761
24016SOL    HW168627   0.303   9.309   6.923  0.4179  1.9739 -1.9504
24016SOL    HW268628   0.158   9.268   6.860  0.4345 -0.5948 -0.4067
24017SOL     OW68629   3.643   2.031   6.667  0.6117 -0.5205 -0.3680
24017SOL    HW168630   3.594   2.108   6.708  0.1815 -1.2177  0.4607
24017SOL    HW268631   3.733   2.022   6.709  0.7164 -0.3852 -0.5621
24018SOL     OW68632   2.540   0.583   3.031 -0.0984 -0.4469  0.6343
24018SOL    HW168633   2.515   0.493   2.996  0.2976 -0.2349 -0.2161
24018SOL    HW268634   2.631   0.608   2.997 -0.5195  0.5850  0.2462
24019SOL     OW68635   5.819   4.739   2.783 -0.2596 -0.1110  0.8280
24019SOL    HW168636   5.854   4.740   2.877 -0.1058 -1.4886  0.7841
24019SOL    HW268637   5.894   4.755   2.719 -0.1594 -0.4051  0.8723
24021SOL     OW68638   8.419   3.125   5.487 -0.4625 -0.3747 -0.0362
24021SOL    HW168639   8.442   3.151   5.581 -0.2443 -2.5780  0.5631
24021SOL    HW268640   8.482   3.168   5.423 -0.0473  0.4329  0.9122
24022SOL     OW68641   3.739   0.534   4.495  0.8047 -0.6559  0.1407
24022SOL    HW168642   3.829   0.497   4.472  0.8244 -0.0934 -0.6709
24022SOL    HW268643   3.676   0.519   4.419  0.6007  0.2751  0.1257
24023SOL     OW68644   8.684   0.273   1.845 -0.0634 -1.0577  0.4872
24023SOL    HW168645   8.745   0.352   1.835 -0.2750 -0.7313  1.6570
24023SOL    HW268646   8.638   0.255   1.759  1.5307 -1.1716 -0.3520
24024SOL     OW68647   8.906   9.078   0.942 -0.4923 -0.4476 -0.1708
24024SOL    HW168648   8.918   9.129   0.857 -0.9970 -0.4874 -0.2634
24024SOL    HW268649   8.911   8.980   0.923  0.1752 -0.4471 -0.0363
24025SOL     OW68650   6.203   8.962   1.723  0.1874  0.4588  0.0694
24025SOL    HW168651   6.189   8.891   1.792 -0.0512  1.1898  0.7714
24025SOL    HW268652   6.300   8.971   1.703  0.1096 -1.1236 -1.1401
24028SOL     OW68653   7.692   8.303   1.754  0.2885  0.0802 -0.1296
24028SOL    HW168654   7.717   8.263   1.842  1.2166  2.2356  0.6315
24028SOL    HW268655   7.765   8.286   1.687 -0.2713 -1.2803 -0.4039
24029SOL     OW68656   5.710   1.780   6.816 -0.4309  0.3938 -0.1125
24029SOL    HW168657   5.627   1.804   6.865 -1.5080  1.7152 -2.5468
24029SOL    HW268658   5.746   1.860   6.768  2.3626 -0.0957  1.0104
24030SOL     OW68659   4.040   8.103   6.677 -0.4189 -0.3103  0.2135
24030SOL    HW168660   3.998   8.055   6.755  1.2406 -1.3147  0.4998
24030SOL    HW268661   4.031   8.046   6.595  0.7512 -0.7270  0.3677
24031SOL     OW68662   4.464   2.826   7.513  0.4926  0.3081 -0.1561
24031SOL    HW168663   4.445   2.898   7.580 -0.9934 -0.1110 -0.1233
24031SOL    HW268664   4.490   2.742   7.561 -0.0687  0.1525 -0.1291
24032SOL     OW68665   6.625   7.681   5.799 -0.4823 -0.0293  0.4032
24032SOL    HW168666   6.717   7.644   5.813 -0.1339  0.7446  0.1495
24032SOL    HW268667   6.619   7.772   5.840 -1.0560  0.0377  0.1764
24033SOL     OW68668   9.134   5.259   2.404  0.0496 -0.1967  0.1505
24033SOL    HW168669   9.114   5.219   2.493  0.4465 -0.3252  0.1856
24033SOL    HW268670   9.105   5.196   2.332  2.6130 -1.5336  0.2267
24034SOL     OW68671   2.930   3.541   3.270  0.0789  0.1944 -0.2664
24034SOL    HW168672   2.960   3.633   3.293 -0.6175  0.0639  1.1903
24034SOL    HW268673   2.875   3.544   3.186 -0.9448  1.2732  0.4294
24035SOL     OW68674   7.271   5.939   0.752  0.1437  0.5356 -0.0528
24035SOL    HW168675   7.173   5.956   0.747 -0.1828 -0.9933  0.7799
24035SOL    HW268676   7.299   5.926   0.847  0.7145 -1.3472 -0.4412
24036SOL     OW68677   0.745   6.273   5.095 -0.6989 -0.5300 -0.1412
24036SOL    HW168678   0.829   6.238   5.052 -1.7302 -0.3570 -2.3836
24036SOL    HW268679   0.690   6.320   5.026 -2.7968 -0.8970  1.2452
24038SOL     OW68680   0.987   1.225   4.544 -0.7403  0.1635  0.7255
24038SOL    HW168681   0.932   1.308   4.533 -0.2761  0.3954  0.1339
24038SOL    HW268682   0.941   1.148   4.500 -0.1008  0.5677 -0.6656
24040SOL     OW68683   1.165   4.731   2.718  0.4691  0.4930 -0.0768
24040SOL    HW168684   1.118   4.816   2.742  0.2178  0.3490 -0.0552
24040SOL    HW268685   1.102   4.672   2.667  0.6602  0.3410 -0.1386
24041SOL     OW68686   1.020   5.309   7.602  0.7335  0.4173  0.0737
24041SOL    HW168687   1.051   5.305   7.507 -0.0738 -0.5381 -0.1636
24041SOL    HW268688   1.013   5.216   7.639 -1.1716  0.6390  0.3320
24042SOL     OW68689   4.189   1.247   3.922  0.1024  0.1974 -0.0761
24042SOL    HW168690   4.175   1.158   3.878  0.3523  0.0912  0.0596
24042SOL    HW268691   4.105   1.300   3.917  0.3465  0.4730 -1.3347
24043SOL     OW68692   1.733   5.644   1.057  0.2855  0.1259 -0.1259
24043SOL    HW168693   1.646   5.653   1.105  1.1179 -1.9187  1.9091
24043SOL    HW268694   1.730   5.563   0.998  1.9193 -2.0383  2.6413
24044SOL     OW68695   3.268   7.786   6.822  0.0707 -0.1684  0.1114
24044SOL    HW168696   3.333   7.767   6.750  0.8338  0.5213  0.6097
24044SOL    HW268697   3.249   7.703   6.874 -0.6621 -0.7151 -1.0227
24046SOL     OW68698   5.574   1.750   6.322  0.8779  0.5484  0.2429
24046SOL    HW168699   5.637   1.823   6.347  0.0306  1.3079  0.1759
24046SOL    HW268700   5.531   1.713   6.405  0.3452  1.0009  0.1698
24049SOL     OW68701   2.944   7.845   5.196  0.4773 -0.3877 -0.2538
24049SOL    HW168702   2.892   7.930   5.199  0.6326 -0.2932 -0.2286
24049SOL    HW268703   3.014   7.851   5.125 -0.0736 -0.8227 -0.8325
24050SOL     OW68704   5.263   5.834   1.555  0.4086  0.0971  0.0806
24050SOL    HW168705   5.171   5.873   1.557 -0.0992 -1.0043 -1.2124
24050SOL    HW268706   5.327   5.899   1.597 -0.7849  1.3091  0.0738
24051SOL     OW68707   9.904   4.580   7.532  0.7944 -0.0120 -0.3677
24051SOL    HW168708   9.966   4.643   7.578 -1.0460  0.4894  1.4830
24051SOL    HW268709   9.837   4.545   7.597 -0.2612 -1.3138 -2.1132
24053SOL     OW68710   8.686   6.759   7.236  1.0003 -0.0570  0.2511
24053SOL    HW168711   8.714   6.700   7.312  1.6209  0.4835  0.4421
24053SOL    HW268712   8.634   6.705   7.170 -0.1557 -0.3913  1.3954
24054SOL     OW68713   8.657   2.523   6.771 -0.0457 -0.3372 -0.5230
24054SOL    HW168714   8.603   2.469   6.706  0.6164 -0.0158 -1.3461
24054SOL    HW268715   8.656   2.478   6.860  1.0010 -2.0584 -1.3522
24055SOL     OW68716   3.321   4.843   3.127  0.2656  0.2372  0.4295
24055SOL    HW168717   3.248   4.776   3.112 -2.6293  3.7125 -1.6143
24055SOL    HW268718   3.300   4.897   3.209  0.8580  0.8942  0.1499
24056SOL     OW68719   3.028   1.368   2.088 -0.5066 -0.2020  0.3325
24056SOL    HW168720   2.977   1.431   2.147 -1.3962 -0.5507 -0.0530
24056SOL    HW268721   3.125   1.394   2.088 -0.6715  0.4613  1.0820
24057SOL     OW68722   9.286   0.383   5.353 -0.1997  0.2159  0.0122
24057SOL    HW168723   9.319   0.289   5.343 -0.5623  0.1012 -0.1212
24057SOL    HW268724   9.263   0.399   5.449 -0.9771 -0.1201 -0.1091
24058SOL     OW68725   4.580   9.405   3.058  0.1805  0.0760 -0.5553
24058SOL    HW168726   4.504   9.368   3.111  2.8807 -2.8988  1.4051
24058SOL    HW268727   4.618   9.484   3.105  1.0128 -1.0744  0.7321
24060SOL     OW68728   6.078   4.495   0.433  0.2084 -0.2551  0.0963
24060SOL    HW168729   6.029   4.423   0.383 -0.1267 -0.6917  1.0413
24060SOL    HW268730   6.152   4.454   0.487  0.2699  0.1542  0.3270
24061SOL     OW68731   4.459   9.358   4.065 -0.8924  0.2441 -0.0310
24061SOL    HW168732   4.388   9.382   4.131 -1.3976 -2.6276  0.5386
24061SOL    HW268733   4.549   9.375   4.106 -1.1855  3.3999 -0.5696
24063SOL     OW68734   1.312   6.434   6.909 -0.2817  0.2617  0.4581
24063SOL    HW168735   1.270   6.407   6.822 -0.2448  1.4563  0.0638
24063SOL    HW268736   1.337   6.352   6.961  1.7281 -0.4944 -1.6255
24064SOL     OW68737   6.970   6.047   2.770 -0.0610  0.0684  0.2832
24064SOL    HW168738   6.883   6.016   2.733  0.2973 -0.4673 -0.1144
24064SOL    HW268739   7.027   5.967   2.791 -0.5973  0.2937  2.8326
24065SOL     OW68740   4.001   4.286   0.457 -0.7517 -0.1238  0.3881
24065SOL    HW168741   4.050   4.266   0.373 -0.1472  1.2490  0.4072
24065SOL    HW268742   4.066   4.294   0.533 -1.1917 -0.2371  0.7836
24066SOL     OW68743   0.484   6.528   6.983  0.2175 -0.5153  0.5717
24066SOL    HW168744   0.525   6.542   7.074 -0.5048 -0.3222  0.8647
24066SOL    HW268745   0.405   6.588   6.972  0.2114 -0.6521 -0.1300
24067SOL     OW68746   8.234   0.665   1.126  0.4761  0.1726 -0.0749
24067SOL    HW168747   8.307   0.642   1.191  0.6312 -1.6734 -0.8655
24067SOL    HW268748   8.241   0.762   1.100  1.1846  0.5976  1.6710
24068SOL     OW68749   0.065   2.004   2.778 -0.4881  0.8289 -0.1965
24068SOL    HW168750   0.078   2.102   2.765  0.0388  1.0957  2.1828
24068SOL    HW268751   0.014   1.988   2.862  0.4945 -0.9911  0.0697
24069SOL     OW68752   1.813   8.336   3.168 -0.1832 -0.2294  0.5053
24069SOL    HW168753   1.770   8.379   3.089  3.0878  1.3583 -0.5134
24069SOL    HW268754   1.821   8.237   3.153  0.7169  0.1075 -1.3144
24071SOL     OW68755   7.392   2.011   0.940 -0.3943  0.5867  0.0294
24071SOL    HW168756   7.439   2.054   0.863 -1.5721 -0.0037 -1.0245
24071SOL    HW268757   7.293   2.016   0.927 -0.5774 -0.9269  0.7117
24074SOL     OW68758   9.991   4.978   1.215 -0.1280 -0.0549  0.3052
24074SOL    HW168759   9.997   5.035   1.298 -0.5742  3.0301 -1.6932
24074SOL    HW268760  10.082   4.959   1.181 -0.0054  0.8553  0.1014
24077SOL     OW68761   4.910   9.961   5.782  0.7608 -0.0943  0.1887
24077SOL    HW168762   4.851   9.888   5.749  1.8661 -1.1215  0.4839
24077SOL    HW268763   4.853  10.038   5.812 -0.4446 -1.1250  0.6169
24078SOL     OW68764   9.222   4.417   6.083 -0.0902  0.1401 -0.2330
24078SOL    HW168765   9.295   4.439   6.147 -0.6290 -0.3057  0.5560
24078SOL    HW268766   9.259   4.409   5.991  0.4953  2.0150 -0.1773
24079SOL     OW68767   1.411   6.442   7.595  0.2157  0.1371  0.2082
24079SOL    HW168768   1.507   6.465   7.577  0.5253 -1.8263 -0.8368
24079SOL    HW268769   1.376   6.387   7.519 -1.1099 -0.9275  1.5620
24081SOL     OW68770   2.818   8.431   0.975  0.7875 -0.5007 -0.2531
24081SOL    HW168771   2.793   8.420   0.879  0.7066 -1.5647 -0.1084
24081SOL    HW268772   2.876   8.512   0.985  0.4937 -0.1731 -1.1402
24082SOL     OW68773   2.242   5.001   4.610 -0.0806  0.1519 -0.1007
24082SOL    HW168774   2.224   5.041   4.520  1.7814 -0.3435 -0.7099
24082SOL    HW268775   2.305   5.060   4.660 -1.4630  0.6589  1.0783
24085SOL     OW68776   2.885   4.859   7.349 -0.0491  0.7324  0.2324
24085SOL    HW168777   2.979   4.884   7.374 -0.3265 -0.2641  2.3704
24085SOL    HW268778   2.839   4.939   7.310  1.1924  1.6561  0.6051
24086SOL     OW68779   1.413   2.235   1.466 -0.3033  0.3252 -0.3556
24086SOL    HW168780   1.463   2.316   1.433  0.0230  0.3125  0.0889
24086SOL    HW268781   1.431   2.224   1.564 -0.3692 -0.2755 -0.4128
24087SOL     OW68782   5.642   1.189   3.832  0.5396  0.0211 -0.1450
24087SOL    HW168783   5.625   1.269   3.775 -1.4696  1.1499  1.9636
24087SOL    HW268784   5.617   1.209   3.926 -0.7639 -3.3395  0.3090
24088SOL     OW68785   3.359   7.210   3.753 -0.4002  0.0627 -0.0264
24088SOL    HW168786   3.416   7.203   3.835 -0.8689 -0.5493  0.2511
24088SOL    HW268787   3.288   7.140   3.756 -0.8565  0.4950 -0.6163
24089SOL     OW68788   0.364   9.425   6.488  0.0572  0.8147  0.5788
24089SOL    HW168789   0.408   9.513   6.473  0.2888  0.7259  0.7221
24089SOL    HW268790   0.411   9.355   6.434 -0.8623  0.9815 -0.4620
24091SOL     OW68791   5.018   0.013   6.186  0.0098 -0.5279  0.0930
24091SOL    HW168792   5.021  -0.080   6.149  1.4527 -0.7366  0.6849
24091SOL    HW268793   5.050   0.012   6.281  0.9434  0.6946 -0.1888
24092SOL     OW68794   0.735   9.483   6.434  0.6110  0.4490  0.2975
24092SOL    HW168795   0.690   9.559   6.387  1.9337 -0.0452 -1.8575
24092SOL    HW268796   0.799   9.518   6.502 -0.5332  1.2117  0.9823
24093SOL     OW68797   1.307   0.881   1.115 -0.1505  0.2883 -0.1269
24093SOL    HW168798   1.349   0.970   1.131 -1.4128  1.0463 -1.0457
24093SOL    HW268799   1.298   0.833   1.202 -0.1632  1.3571  0.4685
24095SOL     OW68800   7.351   3.510   3.532  0.1901  0.3690 -0.1718
24095SOL    HW168801   7.358   3.590   3.591  0.7006 -0.1927  0.5290
24095SOL    HW268802   7.419   3.442   3.558 -0.5495 -0.4944 -0.4537
24097SOL     OW68803   4.462   8.697   5.580  0.3372  0.1545  0.1241
24097SOL    HW168804   4.456   8.780   5.525 -1.6816 -1.5554 -2.3594
24097SOL    HW268805   4.441   8.618   5.523 -0.7095 -1.8002  3.1170
24098SOL     OW68806   3.132   8.130   5.072 -0.4874 -0.1199  0.2408
24098SOL    HW168807   3.123   8.162   5.166 -1.4947  0.3279  0.0057
24098SOL    HW268808   3.124   8.031   5.069  0.7970 -0.2496  0.7640
24099SOL     OW68809   2.764   2.446   2.702 -0.0769  0.2209  0.5244
24099SOL    HW168810   2.778   2.441   2.801 -0.8979  0.0722  0.6414
24099SOL    HW268811   2.666   2.452   2.683  0.1343  1.5445 -0.2323
24102SOL     OW68812   1.029   1.991   0.822 -0.7399  0.6451 -0.4611
24102SOL    HW168813   1.094   2.066   0.809 -1.2887  0.9410 -1.5603
24102SOL    HW268814   1.027   1.934   0.739 -1.8539  0.6231 -0.4191
24103SOL     OW68815   7.831   2.626   4.370  0.3806  0.2504  0.1125
24103SOL    HW168816   7.839   2.689   4.293 -0.7178 -0.5098 -0.6433
24103SOL    HW268817   7.845   2.676   4.456  1.4270  1.1361 -0.5644
24104SOL     OW68818   0.312   3.636   6.297  0.3038  0.3497 -1.1725
24104SOL    HW168819   0.343   3.701   6.365  1.9540 -1.3631 -0.2302
24104SOL    HW268820   0.371   3.640   6.217  0.2298  0.2175 -1.2345
24106SOL     OW68821   3.699   0.745   7.031 -0.3635 -0.1091  0.0938
24106SOL    HW168822   3.793   0.775   7.018 -0.7136  0.8661 -0.2790
24106SOL    HW268823   3.641   0.825   7.051 -1.4206 -0.4624 -1.4972
24108SOL     OW68824   6.629   1.525   6.588 -0.3415  0.3283  0.1400
24108SOL    HW168825   6.593   1.554   6.500  0.0357  1.0238  0.2131
24108SOL    HW268826   6.718   1.481   6.575  0.8666  2.6060  0.3999
24109SOL     OW68827   5.797   1.060   4.022  0.2052 -0.3168  0.2264
24109SOL    HW168828   5.766   1.084   3.931 -0.3787  3.0980  1.2719
24109SOL    HW268829   5.723   1.073   4.088  1.3336 -0.3598  1.5334
24110SOL     OW68830   8.727   4.730   6.869  0.0935  0.2700 -0.2741
24110SOL    HW168831   8.715   4.774   6.780 -0.2320  1.3085  0.2809
24110SOL    HW268832   8.642   4.735   6.921  0.3879 -0.0244  0.2449
24111SOL     OW68833   5.603   1.852   1.588 -0.3101 -0.4483 -0.0680
24111SOL    HW168834   5.529   1.868   1.523 -0.8241  0.7105  0.7821
24111SOL    HW268835   5.604   1.756   1.615 -1.6312 -0.4270  0.0692
24112SOL     OW68836   9.697   0.476   4.456  0.1041  0.4413 -0.1435
24112SOL    HW168837   9.678   0.574   4.460 -0.3330  0.3640 -0.3354
24112SOL    HW268838   9.629   0.430   4.399  0.2465  0.0097  0.0268
24114SOL     OW68839   3.643   0.348   7.470  0.2447 -0.1887 -0.3994
24114SOL    HW168840   3.627   0.250   7.470  1.6628 -0.4360  0.8237
24114SOL    HW268841   3.715   0.371   7.404  1.3720 -0.2424  0.7915
24115SOL     OW68842   4.017   0.822   4.114  0.1937  0.1346 -0.2075
24115SOL    HW168843   3.970   0.823   4.202  4.1285  1.7511  1.9750
24115SOL    HW268844   3.973   0.886   4.051 -0.6304  1.4451  1.6792
24116SOL     OW68845   8.250   0.800   6.954  0.1734 -0.0445  0.1944
24116SOL    HW168846   8.247   0.890   6.998  1.4794  0.3619 -0.5167
24116SOL    HW268847   8.166   0.787   6.901 -0.3766  0.4226  0.9383
24118SOL     OW68848   7.325   9.989   7.301 -0.0682 -0.0555  0.2839
24118SOL    HW168849   7.295   9.935   7.222  0.6216 -1.0304  0.6731
24118SOL    HW268850   7.307   9.938   7.385  0.0608  0.5748  0.6966
24121SOL     OW68851   0.444   7.324   1.416 -0.1461 -0.5092 -0.6152
24121SOL    HW168852   0.413   7.229   1.412  0.8296 -0.9670  1.7583
24121SOL    HW268853   0.507   7.342   1.340  1.1336 -2.3171 -0.0119
24122SOL     OW68854   2.068   7.377   6.623 -0.2576  0.4175 -0.0171
24122SOL    HW168855   2.052   7.404   6.718  0.1846  0.6579 -0.0072
24122SOL    HW268856   2.014   7.296   6.602  0.2126 -0.0903  0.6750
24123SOL     OW68857   8.851   3.006   0.830 -0.2137 -0.8090  0.9423
24123SOL    HW168858   8.925   2.950   0.866 -0.6968 -1.4430  0.9552
24123SOL    HW268859   8.889   3.089   0.788  0.4136 -0.5570  2.0038
24125SOL     OW68860   6.662   9.363   6.312 -0.5793  0.5716  0.4824
24125SOL    HW168861   6.570   9.392   6.285 -0.1277  0.6719 -1.0261
24125SOL    HW268862   6.724   9.441   6.310 -0.1803  0.2493  0.1965
24126SOL     OW68863   9.330   3.848   4.191  0.0074  0.2623 -0.1760
24126SOL    HW168864   9.275   3.810   4.117  2.0605 -3.0288 -0.0774
24126SOL    HW268865   9.274   3.854   4.274 -0.3874 -2.4939 -0.2110
24127SOL     OW68866   1.101   6.770   2.253 -0.0620  0.8263 -0.7183
24127SOL    HW168867   1.164   6.705   2.209  0.3492  1.0215 -0.4147
24127SOL    HW268868   1.113   6.860   2.212  1.2878  1.3140  0.7275
24129SOL     OW68869   8.382   1.782   2.388  0.5942 -0.2137 -0.2608
24129SOL    HW168870   8.309   1.778   2.455 -0.7354  0.8208 -1.6138
24129SOL    HW268871   8.433   1.868   2.399 -0.6306  0.7039 -1.5707
24133SOL     OW68872   7.568   3.733   0.830  0.3779  0.4570  0.5765
24133SOL    HW168873   7.523   3.694   0.749  0.6162  1.2398  0.0649
24133SOL    HW268874   7.567   3.833   0.824  1.1974  0.5011  1.1015
24135SOL     OW68875   2.543   5.080   0.627  0.1769  0.3767 -0.2989
24135SOL    HW168876   2.445   5.064   0.640  0.3596 -0.0815  0.5016
24135SOL    HW268877   2.567   5.064   0.531 -0.4120 -0.1472 -0.3602
24136SOL     OW68878   9.568   4.057   3.730  0.5532  0.0512 -0.2566
24136SOL    HW168879   9.553   3.991   3.804 -1.2585  0.8304  0.0735
24136SOL    HW268880   9.597   4.144   3.769  0.0066  0.3376 -0.4948
24137SOL     OW68881   0.376   1.149   3.373 -0.0712 -0.3919  0.2183
24137SOL    HW168882   0.369   1.248   3.357 -1.1820 -0.4409  0.3409
24137SOL    HW268883   0.460   1.114   3.331 -0.0629  0.4705 -0.4897
24138SOL     OW68884   0.827   5.610   5.443 -0.4550  0.0602  0.4393
24138SOL    HW168885   0.734   5.644   5.463 -0.6644 -0.6202  0.6123
24138SOL    HW268886   0.881   5.685   5.405 -0.5323  0.9362  2.0263
24140SOL     OW68887   9.247   1.807   5.960 -0.2631  0.0348  0.0573
24140SOL    HW168888   9.276   1.893   5.919  2.0896 -1.2768 -1.1206
24140SOL    HW268889   9.214   1.745   5.889  1.6631 -1.4123  0.3875
24141SOL     OW68890   7.546   2.140   1.916  0.0810 -0.0138  0.1237
24141SOL    HW168891   7.631   2.088   1.916  0.3721  0.3983 -1.8022
24141SOL    HW268892   7.469   2.078   1.904  0.3065 -0.1556 -0.6168
24143SOL     OW68893   8.564   7.725   5.924  0.1728  0.2515  0.0763
24143SOL    HW168894   8.555   7.673   5.839  0.3682  0.3481 -0.0054
24143SOL    HW268895   8.611   7.669   5.992 -2.9474 -1.0621  1.2190
24144SOL     OW68896   1.627   7.687   7.666 -0.1449  0.4500 -0.2061
24144SOL    HW168897   1.667   7.740   7.591 -1.7215 -0.7664 -1.9712
24144SOL    HW268898   1.675   7.600   7.675  1.7822  1.6785  2.0221
24145SOL     OW68899   0.038   7.158   3.064  0.4465  0.3521  0.2976
24145SOL    HW168900  -0.045   7.128   3.015 -0.2859  2.8947 -0.0899
24145SOL    HW268901   0.041   7.115   3.154 -1.4183  0.3758  0.3927
24147SOL     OW68902   3.964   5.030   7.817 -0.3913  0.3071  0.0620
24147SOL    HW168903   4.008   5.101   7.762 -2.2375  0.4485 -1.2795
24147SOL    HW268904   4.032   4.988   7.878  0.6858  3.2720  0.9780
24148SOL     OW68905   7.111   0.545   4.360  0.1778 -0.2279  0.1526
24148SOL    HW168906   7.102   0.469   4.296  0.3576 -0.1583  0.0451
24148SOL    HW268907   7.207   0.554   4.388 -0.2249 -1.5621  2.0264
24149SOL     OW68908   8.535   0.862   2.755  0.1588  0.0589 -0.0760
24149SOL    HW168909   8.541   0.829   2.661 -0.1754 -0.8112  0.1968
24149SOL    HW268910   8.525   0.961   2.755  0.8569  0.1432 -0.9319
24151SOL     OW68911   2.327   4.460   5.688  0.5469  0.0505  0.2431
24151SOL    HW168912   2.271   4.380   5.710  3.9258 -2.8682 -1.3427
24151SOL    HW268913   2.310   4.486   5.593  2.4433 -1.3842 -0.5125
24152SOL     OW68914   3.875   2.639   2.666 -0.2124  0.6252  0.1942
24152SOL    HW168915   3.794   2.688   2.636 -1.0426 -0.6474  0.3067
24152SOL    HW268916   3.915   2.686   2.745  0.1581  2.2041 -0.9045
24153SOL     OW68917   2.645   9.759   2.806  0.2962 -0.1333 -0.5908
24153SOL    HW168918   2.630   9.828   2.734  0.5817 -0.4582 -0.9679
24153SOL    HW268919   2.563   9.704   2.816 -0.0833  0.5330  0.0083
24154SOL     OW68920   1.605   7.163   6.203 -0.1351  0.4192  0.1053
24154SOL    HW168921   1.659   7.086   6.171 -1.9125 -1.7070  1.9772
24154SOL    HW268922   1.576   7.219   6.125  1.2590 -0.7556 -1.2794
24155SOL     OW68923   0.912   6.172   5.531 -0.4257 -0.0022  0.2933
24155SOL    HW168924   0.893   6.179   5.433 -1.1188  0.7929  0.4762
24155SOL    HW268925   1.009   6.186   5.547 -0.0587 -1.5951 -0.4199
24156SOL     OW68926   0.264   9.303   4.303  0.1932  0.5280 -0.3717
24156SOL    HW168927   0.345   9.290   4.360 -0.5010 -0.9384  0.3334
24156SOL    HW268928   0.192   9.345   4.357 -0.5547 -1.1085 -0.0487
24157SOL     OW68929   1.655   8.176   5.917  0.8354  0.3808  0.4929
24157SOL    HW168930   1.672   8.145   6.011 -1.3357  1.5128  1.3027
24157SOL    HW268931   1.606   8.105   5.866  5.5825 -1.9046 -1.1025
24158SOL     OW68932   4.199   9.445   2.439 -0.1123  0.0383 -0.3829
24158SOL    HW168933   4.194   9.544   2.425  1.0311  0.0031 -1.0795
24158SOL    HW268934   4.183   9.398   2.353 -0.5387 -0.3947 -0.0761
24159SOL     OW68935   6.731   3.883   0.354  0.5208  0.1823  0.0774
24159SOL    HW168936   6.644   3.878   0.304 -0.1844 -0.1466  1.2854
24159SOL    HW268937   6.718   3.844   0.446  1.7358  0.9197  0.5738
24160SOL     OW68938   8.395   5.973   3.125 -0.4339  0.2994  0.5486
24160SOL    HW168939   8.347   6.026   3.194  0.6862  0.3710  1.2949
24160SOL    HW268940   8.401   6.026   3.040 -0.2939  0.9286  0.9459
24161SOL     OW68941   1.628   8.188   7.092  0.2121  0.0298  0.3250
24161SOL    HW168942   1.544   8.181   7.039  0.3991 -0.0900  0.0472
24161SOL    HW268943   1.701   8.138   7.046  0.6935  0.9698  0.0479
24162SOL     OW68944   2.783   5.755   7.945  0.4422  0.3782 -0.1522
24162SOL    HW168945   2.796   5.663   7.908  2.6819  1.0091 -1.0169
24162SOL    HW268946   2.806   5.755   8.042  3.2313  0.5925 -0.7702
24164SOL     OW68947   4.452   8.519   5.101 -0.1922  0.4972  0.3057
24164SOL    HW168948   4.533   8.509   5.043  0.4010  0.0665  1.2043
24164SOL    HW268949   4.394   8.438   5.092  0.4609 -0.0735  1.1714
24167SOL     OW68950   9.396   1.478   0.546  0.0196 -0.0622  0.3639
24167SOL    HW168951   9.394   1.577   0.554  1.0557  0.1054 -1.2797
24167SOL    HW268952   9.330   1.449   0.477 -2.1983 -0.7492  2.7078
24169SOL     OW68953   5.090   3.461   0.255  0.3425 -0.0219 -0.1606
24169SOL    HW168954   5.073   3.553   0.218  2.1955  0.3103 -0.2730
24169SOL    HW268955   5.005   3.409   0.257 -0.8246  1.8573  0.3211
24170SOL     OW68956   4.545   5.756   1.335  0.5273  0.1604 -0.5776
24170SOL    HW168957   4.625   5.708   1.296 -1.4794 -1.4939 -2.8204
24170SOL    HW268958   4.486   5.787   1.261 -1.9375 -0.4160  1.0976
24172SOL     OW68959   9.103   6.489   4.185 -0.0775  0.6933 -0.4213
24172SOL    HW168960   9.049   6.414   4.146 -0.0951  1.6463 -2.2736
24172SOL    HW268961   9.101   6.483   4.284 -1.1405 -1.0197 -0.5278
24173SOL     OW68962   8.966   3.657   5.739  0.2730 -0.0401 -0.5306
24173SOL    HW168963   9.060   3.624   5.750  0.4338  0.2574 -0.9704
24173SOL    HW268964   8.929   3.621   5.653  0.0599  0.0211 -0.4632
24174SOL     OW68965   1.643   6.749   4.135  0.0508 -0.5899 -0.2932
24174SOL    HW168966   1.686   6.838   4.153 -0.1319 -0.5464 -0.0588
24174SOL    HW268967   1.675   6.683   4.203  1.0771 -1.0014 -1.1739
24175SOL     OW68968   7.968   1.725   1.758  0.2432  0.0729 -0.1216
24175SOL    HW168969   7.917   1.695   1.677 -0.8978 -0.3548  0.7378
24175SOL    HW268970   8.055   1.676   1.763 -0.3295 -0.9757 -0.2922
24176SOL     OW68971   3.151   1.087   7.334 -0.0601 -0.0586  0.3398
24176SOL    HW168972   3.078   1.036   7.379 -1.3067 -0.7537 -2.4179
24176SOL    HW268973   3.235   1.078   7.388 -1.3891 -1.2469  2.2748
24181SOL     OW68974   9.096   0.348   3.976 -0.5484 -0.0424  0.0597
24181SOL    HW168975   9.125   0.259   4.010 -2.1260 -0.4347  0.4337
24181SOL    HW268976   8.999   0.362   3.998 -0.0191  2.2914  1.1143
24182SOL     OW68977   8.298   3.844   2.026  0.1488  0.3231  0.2754
24182SOL    HW168978   8.375   3.849   1.962  0.0889  0.2875  0.1985
24182SOL    HW268979   8.268   3.937   2.049  0.3080  0.3389  0.4190
24183SOL     OW68980   8.698   5.071   3.075 -0.6404  0.0425 -0.1974
24183SOL    HW168981   8.790   5.080   3.112 -0.6510 -2.0698  0.4120
24183SOL    HW268982   8.652   5.160   3.076  1.2573  1.0470 -0.1970
24184SOL     OW68983   2.300   6.956   6.981  0.2574  0.5648  0.0847
24184SOL    HW168984   2.390   6.916   6.965  0.6298  1.0694  0.9019
24184SOL    HW268985   2.289   7.037   6.924  0.1087  0.1843 -0.4255
24185SOL     OW68986   2.675   3.330   0.909  0.3646  0.7654  0.0058
24185SOL    HW168987   2.661   3.284   0.821 -1.3868  0.2314  0.5503
24185SOL    HW268988   2.713   3.264   0.975  1.5231  1.1225 -0.3023
24186SOL     OW68989   7.665   2.809   3.103 -0.2057 -0.0319 -0.5660
24186SOL    HW168990   7.649   2.856   3.189  1.5766 -1.4913  0.6090
24186SOL    HW268991   7.683   2.876   3.031  0.9598  1.1214  0.7711
24187SOL     OW68992   0.172   1.711   3.807  0.4881 -0.7892  0.2265
24187SOL    HW168993   0.130   1.802   3.803 -0.0435 -0.9800  1.2722
24187SOL    HW268994   0.259   1.718   3.856  1.5663 -0.4387 -1.7196
24188SOL     OW68995   2.040   5.392   3.003 -0.1900 -0.1684 -0.5159
24188SOL    HW168996   2.111   5.452   2.966  1.7259 -1.9846  0.1268
24188SOL    HW268997   2.059   5.373   3.099 -1.1924 -1.2467 -0.5200
24189SOL     OW68998   6.916   3.753   0.171  0.7017  0.6745  0.0391
24189SOL    HW168999   6.865   3.811   0.234 -0.4579  1.2205 -1.3546
24189SOL    HW269000   6.883   3.769   0.077  2.0434 -0.4620 -0.6455
24190SOL     OW69001   1.408   5.297   4.474  0.7604 -0.3248  0.3768
24190SOL    HW169002   1.418   5.379   4.530  0.4836  0.1193 -0.2250
24190SOL    HW269003   1.397   5.217   4.534 -0.8612  0.3143  0.9560
24192SOL     OW69004   3.004   0.632   3.506 -0.0371 -0.2721 -0.0103
24192SOL    HW169005   3.081   0.605   3.564  1.1415  3.2311  0.1472
24192SOL    HW269006   2.999   0.571   3.427  1.8673 -1.5682  0.8336
24193SOL     OW69007   7.782   4.700   0.191 -0.0132 -0.2461  0.2072
24193SOL    HW169008   7.754   4.631   0.124 -2.1315 -0.5410  1.3677
24193SOL    HW269009   7.744   4.677   0.281  0.9713  1.3361  1.0529
24194SOL     OW69010   3.585   6.617   7.365  0.0089  0.1874 -0.1033
24194SOL    HW169011   3.583   6.710   7.402 -1.4866 -0.1618  0.7325
24194SOL    HW269012   3.659   6.566   7.408  1.5803  1.3035 -1.3984
24196SOL     OW69013   8.826   0.510   6.983 -0.2784 -0.6204  0.6075
24196SOL    HW169014   8.781   0.487   6.896 -0.2310 -1.7681  0.8751
24196SOL    HW269015   8.801   0.603   7.010  2.0989  0.8882 -2.1581
24198SOL     OW69016   2.605   8.473   5.852 -0.1448  0.1869 -0.5262
24198SOL    HW169017   2.658   8.405   5.903 -0.4589  1.5132  1.6227
24198SOL    HW269018   2.553   8.428   5.780  1.2191 -1.5808 -0.4345
24200SOL     OW69019   9.449   8.438   0.258 -0.0652 -0.3435 -0.4864
24200SOL    HW169020   9.505   8.406   0.334 -1.0014 -0.1418  0.2986
24200SOL    HW269021   9.408   8.359   0.212 -1.1327 -0.3599  0.4886
24201SOL     OW69022   8.400   2.478   3.376 -0.6643  0.2044  0.5614
24201SOL    HW169023   8.350   2.399   3.341 -1.7408  1.4762 -0.8092
24201SOL    HW269024   8.483   2.491   3.322 -1.0701  0.6885  0.0494
24202SOL     OW69025   4.977   6.802   1.366 -0.2464  0.2465 -0.0102
24202SOL    HW169026   5.007   6.752   1.285 -0.8026 -1.2634  0.6934
24202SOL    HW269027   4.888   6.766   1.396  0.4199  0.1147  1.8429
24204SOL     OW69028   6.577   7.716   3.071 -0.1345 -0.3633 -0.4879
24204SOL    HW169029   6.655   7.708   3.133 -0.8366 -2.0380  0.2066
24204SOL    HW269030   6.508   7.775   3.111 -0.1917 -0.7061 -0.0779
24205SOL     OW69031   4.972   8.569   7.717 -0.4454  0.2525 -0.0314
24205SOL    HW169032   4.966   8.659   7.673  0.7343  0.1139 -0.5041
24205SOL    HW269033   4.996   8.500   7.649 -1.4405 -0.4408  0.3147
24206SOL     OW69034   1.789   0.204   5.303  0.8930 -0.1647  0.3568
24206SOL    HW169035   1.815   0.215   5.399  1.5515  0.2718  0.1306
24206SOL    HW269036   1.701   0.249   5.287 -0.1875 -1.9367  1.2025
24207SOL     OW69037   2.880   9.290   1.191 -0.3775 -0.1758  0.2263
24207SOL    HW169038   2.814   9.228   1.234 -0.6242 -0.6391 -0.7949
24207SOL    HW269039   2.971   9.250   1.195 -0.1950  0.3447  1.4050
24209SOL     OW69040   4.244   6.158   1.144 -0.0974  0.2358 -0.0604
24209SOL    HW169041   4.255   6.184   1.240 -0.8443 -1.5454  0.5328
24209SOL    HW269042   4.210   6.064   1.139 -0.2545  0.3812 -2.0745
24210SOL     OW69043   5.305   4.990   0.698 -0.0171  0.4098 -0.3452
24210SOL    HW169044   5.378   5.004   0.631 -1.4219  0.2411 -1.9409
24210SOL    HW269045   5.270   4.897   0.690  1.1151 -0.2675  1.9890
24212SOL     OW69046   1.987   4.458   5.819 -0.0907 -0.0131 -0.2669
24212SOL    HW169047   2.024   4.373   5.783  0.9490  1.0684 -1.8474
24212SOL    HW269048   1.934   4.440   5.901  2.2825 -1.8664  0.8983
24213SOL     OW69049   4.733   8.935   0.849  0.6425  0.2250 -0.1683
24213SOL    HW169050   4.832   8.931   0.866  0.7105  1.4153 -0.2890
24213SOL    HW269051   4.715   8.985   0.765  0.0129 -1.4217 -1.0276
24215SOL     OW69052   2.950   0.598  10.084  0.3356 -0.1101 -0.9328
24215SOL    HW169053   2.892   0.527  10.123 -0.1525  0.1290 -1.2197
24215SOL    HW269054   2.973   0.574   9.989 -1.0857  0.8351 -1.5512
24216SOL     OW69055   2.949   1.489   7.700  0.8924  0.1580  0.3008
24216SOL    HW169056   2.980   1.468   7.793  1.6151 -0.8678 -0.1520
24216SOL    HW269057   2.889   1.416   7.668 -1.3634  1.7316  0.8561
24217SOL     OW69058   8.187   5.216   2.769 -0.3278  0.1388 -0.3133
24217SOL    HW169059   8.207   5.119   2.753  0.1665  0.3249 -0.8182
24217SOL    HW269060   8.272   5.268   2.768 -0.6264  0.6257 -0.3435
24218SOL     OW69061   8.159   7.838   2.236 -0.2124 -0.1442 -0.6305
24218SOL    HW169062   8.168   7.889   2.322 -1.7339  0.0890 -0.6038
24218SOL    HW269063   8.134   7.744   2.256  0.5922 -0.3955 -0.7768
24219SOL     OW69064   5.079   5.977   0.144  0.4783  0.1177  0.2857
24219SOL    HW169065   5.160   5.948   0.196 -0.3053  1.6839  2.4747
24219SOL    HW269066   5.090   6.073   0.117 -0.3520  0.1354  0.0075
24220SOL     OW69067   8.468   4.534   3.938 -0.0293  0.3954  0.2108
24220SOL    HW169068   8.420   4.488   3.863  0.0316  2.1227 -0.9117
24220SOL    HW269069   8.436   4.497   4.025 -2.2137  0.3518 -0.5698
24221SOL     OW69070   1.095   7.533   7.532 -0.0741  0.4062 -0.2606
24221SOL    HW169071   1.004   7.553   7.570  0.2443  1.8304 -0.2384
24221SOL    HW269072   1.154   7.498   7.605  0.2604  2.2513  0.3706
24222SOL     OW69073   0.829   7.434   6.536  0.1241  0.1787  0.1266
24222SOL    HW169074   0.789   7.380   6.463  0.1391  0.3643 -0.0191
24222SOL    HW269075   0.758   7.491   6.578  0.3074  0.7594 -0.3554
24223SOL     OW69076   1.612   9.738   4.533 -0.4147 -0.1801 -0.0836
24223SOL    HW169077   1.638   9.789   4.451  1.5005  0.3576  0.8527
24223SOL    HW269078   1.600   9.801   4.610  1.0853 -1.0169  0.8571
24225SOL     OW69079   9.388   2.387   6.322  0.2281 -0.0549 -0.4262
24225SOL    HW169080   9.396   2.470   6.377 -1.1180  0.2687 -0.7053
24225SOL    HW269081   9.293   2.375   6.293  0.2031 -2.2279  0.4375
24226SOL     OW69082   0.496   8.035   5.558  0.3296 -0.1568  0.2850
24226SOL    HW169083   0.499   7.997   5.466  0.6480  0.4510  0.0458
24226SOL    HW269084   0.495   7.960   5.625  0.2052 -0.5926 -0.2027
24228SOL     OW69085   4.183   9.275   1.446 -0.1255 -0.0894  0.4919
24228SOL    HW169086   4.244   9.196   1.449 -0.5078 -0.3616  1.3946
24228SOL    HW269087   4.218   9.346   1.506  1.1641  1.1348 -1.6779
24229SOL     OW69088   4.939   3.645   0.463  0.2066  0.4865  0.0435
24229SOL    HW169089   4.917   3.699   0.382 -0.4650  0.9665  0.5303
24229SOL    HW269090   4.945   3.705   0.543 -0.0672 -0.0855  0.5083
24230SOL     OW69091   0.133   5.440   6.630 -0.1992  0.0934 -0.1014
24230SOL    HW169092   0.081   5.519   6.660 -0.5417 -0.2479  0.2030
24230SOL    HW269093   0.226   5.445   6.666  0.9897  2.3733 -3.2876
24234SOL     OW69094   1.729   8.482   3.651  0.0732  0.1903  0.0345
24234SOL    HW169095   1.810   8.513   3.701  1.7697 -2.6605 -0.8212
24234SOL    HW269096   1.735   8.512   3.555 -0.5309  1.0487  0.2564
24235SOL     OW69097   0.522   8.367   1.383  0.1859 -0.4317  0.2385
24235SOL    HW169098   0.517   8.286   1.441 -1.2589 -0.6858 -0.2086
24235SOL    HW269099   0.466   8.440   1.423  1.4002  0.3134  0.5872
24236SOL     OW69100   3.515   4.008   7.678 -0.2206  0.1062  0.5544
24236SOL    HW169101   3.481   3.964   7.761  0.7194  0.2117  0.9944
24236SOL    HW269102   3.600   3.964   7.650  0.9526  1.9083  1.2256
24237SOL     OW69103   2.186   0.743   2.461 -0.0628 -0.3040 -0.3518
24237SOL    HW169104   2.209   0.822   2.405 -0.5753 -0.0163 -0.1541
24237SOL    HW269105   2.155   0.773   2.551 -1.2838 -0.6869 -0.6368
24239SOL     OW69106   3.722   1.154   0.117 -0.3354 -0.3231  0.7072
24239SOL    HW169107   3.697   1.060   0.094  1.0391 -0.4318 -0.3874
24239SOL    HW269108   3.656   1.216   0.076 -1.4435 -0.8013  1.7126
24240SOL     OW69109   7.477   2.671   1.162  0.4017 -0.4657 -0.2707
24240SOL    HW169110   7.510   2.748   1.217 -0.4718 -0.2242 -0.0793
24240SOL    HW269111   7.434   2.706   1.078 -0.9701 -0.6788  0.3253
24241SOL     OW69112   5.275   8.025   5.125  0.3712  0.6436 -0.2192
24241SOL    HW169113   5.214   8.104   5.122  0.4453  0.6783 -0.8483
24241SOL    HW269114   5.367   8.055   5.152 -0.0126  0.5074  1.3124
24242SOL     OW69115   1.076   5.754   7.004 -0.0411  0.9987 -0.3749
24242SOL    HW169116   1.080   5.704   7.091  0.4750  1.8636  0.1118
24242SOL    HW269117   0.990   5.735   6.958  1.0545 -2.1043 -1.2764
24243SOL     OW69118   8.580   5.597   5.228  0.0613  0.0291 -0.6539
24243SOL    HW169119   8.530   5.676   5.264  0.6518 -0.1673  0.6256
24243SOL    HW269120   8.574   5.596   5.128 -1.0419  0.9626 -0.6039
24244SOL     OW69121   1.344   3.719   1.309 -0.2303  0.3738  0.1885
24244SOL    HW169122   1.394   3.806   1.306  1.2606 -0.5209 -1.7173
24244SOL    HW269123   1.286   3.717   1.391  0.5833  2.6800  0.8618
24245SOL     OW69124   9.942   7.473   4.791 -0.3271  0.0740  0.1415
24245SOL    HW169125   9.941   7.374   4.802 -0.3305  0.0969  0.3473
24245SOL    HW269126   9.904   7.516   4.873 -2.4282  0.1732 -0.8396
24246SOL     OW69127   0.163   2.685   7.651 -0.6148 -0.1102 -0.1294
24246SOL    HW169128   0.123   2.647   7.734 -2.7515  1.9202 -0.1931
24246SOL    HW269129   0.258   2.713   7.670 -0.6439 -0.9012  1.2369
24248SOL     OW69130   5.993   8.813   3.070 -0.5289 -0.5020  0.1325
24248SOL    HW169131   5.897   8.789   3.084 -1.1088  1.3419 -0.6476
24248SOL    HW269132   6.000   8.893   3.011  1.4352  0.3761  1.5022
24249SOL     OW69133   4.611   4.410   5.544  0.3548  0.2630  0.0950
24249SOL    HW169134   4.682   4.342   5.529  1.0470  1.0764 -0.3962
24249SOL    HW269135   4.556   4.384   5.623  1.0229 -0.5226  0.3101
24250SOL     OW69136   9.183   4.089   0.443 -0.0627 -0.1157  0.0253
24250SOL    HW169137   9.136   4.134   0.367 -0.6614 -0.3845  0.2312
24250SOL    HW269138   9.279   4.116   0.443  0.0000 -0.3030 -0.9730
24251SOL     OW69139   2.487   3.678   7.207  0.5738 -0.3119  0.1092
24251SOL    HW169140   2.432   3.694   7.125 -0.4265  0.0467  0.8409
24251SOL    HW269141   2.463   3.590   7.247  2.0643 -1.1231 -0.7626
24253SOL     OW69142   6.260   6.234   0.234 -0.3345  0.0064 -0.0743
24253SOL    HW169143   6.278   6.288   0.152  1.6159 -2.2340 -1.1883
24253SOL    HW269144   6.345   6.224   0.286 -0.3496 -2.9608 -0.5427
24254SOL     OW69145   0.439   7.573   7.282 -0.0777  0.4066  0.0294
24254SOL    HW169146   0.501   7.639   7.240 -0.7420  1.6086  0.9290
24254SOL    HW269147   0.468   7.555   7.376 -1.3434  1.3167  0.6049
24255SOL     OW69148   7.993   1.285   7.515 -0.1189  0.0151  0.5967
24255SOL    HW169149   8.036   1.375   7.507  0.8771 -0.5412 -0.3989
24255SOL    HW269150   7.991   1.257   7.612  0.0565  0.8620  0.8456
24256SOL     OW69151   2.772   1.692   5.981 -0.4469 -0.0171  0.1393
24256SOL    HW169152   2.672   1.700   5.985 -0.4456  0.8898 -1.0975
24256SOL    HW269153   2.799   1.658   5.891  0.4130  0.8196  0.0714
24257SOL     OW69154   5.425   2.072   4.660 -0.3207  0.1153  0.1294
24257SOL    HW169155   5.436   1.982   4.618  0.3799 -0.5453  1.6898
24257SOL    HW269156   5.330   2.102   4.650 -0.5697 -0.7979 -0.3727
24258SOL     OW69157   9.357   3.954   2.791 -0.2131  0.1395  0.5323
24258SOL    HW169158   9.367   3.947   2.890  0.9900  3.1423  0.6885
24258SOL    HW269159   9.265   3.986   2.769 -1.0542 -2.2063  0.5593
24259SOL     OW69160   1.965   9.132   4.526  0.1772  0.1208 -0.4772
24259SOL    HW169161   1.935   9.038   4.510 -1.8753  0.6106  0.3548
24259SOL    HW269162   2.050   9.149   4.475  0.7253 -2.2477 -0.4177
24260SOL     OW69163   0.737   7.815   1.980 -0.8888  0.1187  0.3118
24260SOL    HW169164   0.775   7.907   1.986  0.4673 -0.4611  0.6085
24260SOL    HW269165   0.759   7.764   2.063 -2.4745 -0.1614  0.5805
24261SOL     OW69166   1.975   7.096   3.270 -0.0999  0.1787  0.2147
24261SOL    HW169167   1.933   7.006   3.269 -0.9290  0.5615  0.5494
24261SOL    HW269168   2.071   7.089   3.241 -0.8886 -0.4342 -2.3403
24262SOL     OW69169   7.187   4.918   1.382  0.0378  0.1267 -0.3084
24262SOL    HW169170   7.174   4.858   1.303  2.6322  1.2839 -1.6609
24262SOL    HW269171   7.166   4.867   1.466  0.1107 -2.0180 -1.5630
24264SOL     OW69172   3.942   5.504   0.477 -0.7306  0.2561 -0.1151
24264SOL    HW169173   3.887   5.568   0.531 -1.4150 -0.6836  0.3423
24264SOL    HW269174   3.881   5.437   0.434 -0.1246  0.5859 -1.4985
24265SOL     OW69175   2.995   2.322   2.309  0.8135 -0.2771 -0.1642
24265SOL    HW169176   2.966   2.263   2.233 -0.2957 -1.1109  0.8863
24265SOL    HW269177   2.916   2.342   2.367  1.4734  1.1123  0.2578
24266SOL     OW69178   9.694   6.066   1.408  0.3324  1.1591 -0.2280
24266SOL    HW169179   9.649   6.065   1.319  0.8015 -0.6930 -0.4596
24266SOL    HW269180   9.741   5.979   1.423 -1.0587  0.8090  2.5027
24267SOL     OW69181   2.812   3.576   3.034 -0.5500 -0.3428  0.6814
24267SOL    HW169182   2.822   3.653   2.971 -1.5878  0.9031  2.0103
24267SOL    HW269183   2.853   3.494   2.994  0.4125  0.8613 -0.8174
24268SOL     OW69184   8.327   3.518   2.416 -0.3125 -0.0627 -0.6616
24268SOL    HW169185   8.354   3.576   2.340 -0.7186  0.4895 -0.3950
24268SOL    HW269186   8.228   3.528   2.432  0.0652  1.1865  1.0550
24270SOL     OW69187   1.913   7.206   6.075 -0.1130 -0.3360  0.0006
24270SOL    HW169188   1.823   7.198   6.032 -0.8474  2.3677  0.9375
24270SOL    HW269189   1.923   7.297   6.115  2.8547 -0.7687  0.3722
24272SOL     OW69190   3.448   7.639   0.388  0.3607 -0.0134 -0.6407
24272SOL    HW169191   3.436   7.548   0.349 -0.3435 -0.4954  0.6809
24272SOL    HW269192   3.498   7.632   0.474  1.5083  0.9945 -1.2096
24274SOL     OW69193   9.146   0.674   3.234 -0.1140 -0.0442  0.1333
24274SOL    HW169194   9.184   0.680   3.326 -1.5770 -0.0008  0.7426
24274SOL    HW269195   9.101   0.586   3.221  3.1706 -1.5531 -1.7835
24276SOL     OW69196   5.736   1.924   4.906  0.2005 -0.1234 -0.3327
24276SOL    HW169197   5.744   1.853   4.976 -1.5959 -0.7091 -0.7054
24276SOL    HW269198   5.736   2.014   4.950  2.3741 -0.3181  0.1451
24277SOL     OW69199   3.319   7.980   6.576  0.2601 -0.2691  0.1522
24277SOL    HW169200   3.348   8.075   6.563 -0.4715  0.0636  0.8814
24277SOL    HW269201   3.314   7.961   6.674 -2.0674 -0.2812  0.0404
24278SOL     OW69202   5.356   1.908   0.826 -0.2967  0.0866  0.2094
24278SOL    HW169203   5.446   1.942   0.853  0.3844 -1.6921  0.2647
24278SOL    HW269204   5.362   1.810   0.805 -2.4602 -0.3686  1.4697
24279SOL     OW69205   9.061   5.785   1.395 -0.4441 -0.2227 -0.7664
24279SOL    HW169206   8.990   5.746   1.454 -0.8835  0.4060 -0.8725
24279SOL    HW269207   9.040   5.765   1.299 -0.1928 -0.5032 -0.7598
24280SOL     OW69208   3.504   0.919   4.863 -0.1608  0.1088  0.4378
24280SOL    HW169209   3.522   0.860   4.942 -0.3673 -1.6602 -0.8032
24280SOL    HW269210   3.406   0.938   4.858 -0.4460 -1.6132 -0.6525
24281SOL     OW69211   1.428   0.352   4.713 -0.1443 -0.3033  0.1093
24281SOL    HW169212   1.501   0.409   4.677  0.1160 -0.5333  0.2717
24281SOL    HW269213   1.353   0.348   4.647 -2.4183  4.4480  2.2301
24285SOL     OW69214   9.375   5.600   4.860  0.5299 -0.4808  0.6677
24285SOL    HW169215   9.353   5.508   4.829 -0.0388  0.0520 -0.5491
24285SOL    HW269216   9.302   5.663   4.834  0.2535  0.0920  2.6918
24286SOL     OW69217   0.896   8.364   2.844 -0.7467  0.4835  0.0888
24286SOL    HW169218   0.806   8.370   2.887 -0.6956 -0.1727  0.3034
24286SOL    HW269219   0.887   8.318   2.756 -0.5920  0.2009  0.2185
24287SOL     OW69220   4.514   9.343   2.164 -0.1675 -0.4423 -0.1913
24287SOL    HW169221   4.611   9.359   2.147 -0.5840  2.5704  0.0621
24287SOL    HW269222   4.502   9.310   2.258  0.5111  0.1208  0.0986
24288SOL     OW69223   2.939   3.188   3.583  0.4178  0.4233 -0.1310
24288SOL    HW169224   2.959   3.229   3.493  2.2058 -0.3118 -0.0928
24288SOL    HW269225   2.958   3.255   3.655 -0.3976  0.8027 -0.2687
24289SOL     OW69226   2.860   0.711   6.573  0.2418  0.0303  0.3579
24289SOL    HW169227   2.790   0.749   6.512  1.5105  1.3870 -0.2519
24289SOL    HW269228   2.815   0.659   6.645 -1.6779  4.0489  2.2210
24290SOL     OW69229   7.599   1.934   2.425  0.3996 -0.1041  0.3990
24290SOL    HW169230   7.697   1.916   2.416  0.5049  0.7760 -0.3014
24290SOL    HW269231   7.582   1.977   2.513  0.5432 -0.9009  0.8229
24291SOL     OW69232   3.977   7.889   5.670 -0.0022 -0.4887  0.1166
24291SOL    HW169233   3.893   7.840   5.647  0.0444  0.2661 -1.7309
24291SOL    HW269234   3.959   7.953   5.745 -1.0300 -0.4382 -0.1769
24293SOL     OW69235   8.099   7.770   4.236  0.0173 -0.4690 -0.1794
24293SOL    HW169236   8.153   7.693   4.269  0.7381  1.8041  4.4247
24293SOL    HW269237   8.160   7.842   4.202  0.0454  1.6455  3.9895
24294SOL     OW69238   8.663   9.897   4.186 -0.0956 -0.3009  0.3566
24294SOL    HW169239   8.596   9.828   4.159  0.6702 -0.8162 -0.2750
24294SOL    HW269240   8.710   9.867   4.269 -2.6974  1.4514  2.5494
24295SOL     OW69241   8.561   7.487   4.055  0.4225  0.1497  0.0907
24295SOL    HW169242   8.512   7.557   4.004 -1.4693 -0.4548  1.0482
24295SOL    HW269243   8.594   7.416   3.993  1.4746  1.3572 -0.7539
24296SOL     OW69244   3.900   9.157   2.042 -0.4110  0.4461 -0.1636
24296SOL    HW169245   3.878   9.189   2.134  0.3589  2.7365 -0.7449
24296SOL    HW269246   3.817   9.155   1.986 -0.3509  2.3279 -0.3594
24297SOL     OW69247   2.450   6.144   5.555  0.5010 -0.5061  0.0504
24297SOL    HW169248   2.400   6.222   5.595  0.0336 -0.4619 -0.6041
24297SOL    HW269249   2.450   6.153   5.455  1.9833 -0.4136  0.0488
24298SOL     OW69250   4.579   3.069   2.072 -0.3137  0.5046  0.2083
24298SOL    HW169251   4.501   3.037   2.019 -0.0803  0.8897 -0.3721
24298SOL    HW269252   4.642   2.993   2.089 -2.1366 -0.4550  3.0513
24302SOL     OW69253   8.692   1.591   6.261  0.1518 -0.2617  0.7757
24302SOL    HW169254   8.753   1.642   6.201 -2.0684  0.6063 -0.8309
24302SOL    HW269255   8.701   1.493   6.243 -0.7236  0.0097 -1.2539
24303SOL     OW69256   8.034   6.957   4.356  0.4302  0.0714 -0.2524
24303SOL    HW169257   8.062   6.897   4.431  0.7769  0.5943  0.0368
24303SOL    HW269258   8.108   6.966   4.290  0.6341  0.7516  0.0686
24305SOL     OW69259   6.884   9.185   7.794  0.6743  0.6979 -0.1205
24305SOL    HW169260   6.803   9.210   7.740  0.5869  2.9771  0.9706
24305SOL    HW269261   6.870   9.096   7.837  0.7887 -1.2000 -3.8629
24307SOL     OW69262   5.917   9.051   3.704 -0.1929 -0.7345  0.9732
24307SOL    HW169263   5.970   8.967   3.717  1.1677 -0.5241 -2.7330
24307SOL    HW269264   5.976   9.130   3.724  0.3683 -0.5573 -1.2291
24308SOL     OW69265   6.748   1.980   6.128 -0.4769  0.0158  0.4910
24308SOL    HW169266   6.650   1.998   6.123 -0.3453  1.3829  2.2520
24308SOL    HW269267   6.786   1.977   6.036 -2.2197 -0.9086 -0.2374
24312SOL     OW69268   9.423   3.006   1.125 -0.3042  0.1788 -0.0518
24312SOL    HW169269   9.357   3.081   1.137 -0.7399 -0.4316  1.5332
24312SOL    HW269270   9.496   3.016   1.193  0.3836 -0.0502 -0.7591
24313SOL     OW69271   3.256   4.135   2.538 -0.1448 -0.8258  0.0774
24313SOL    HW169272   3.340   4.180   2.510 -0.5812 -0.2446 -0.3178
24313SOL    HW269273   3.189   4.204   2.567  0.0226 -1.3660  1.7844
24315SOL     OW69274   6.065   1.290   1.463 -0.6585  0.3041 -0.3101
24315SOL    HW169275   5.976   1.253   1.437 -0.4519  0.4119 -1.1908
24315SOL    HW269276   6.138   1.229   1.431 -0.4558 -0.4605  1.5595
24316SOL     OW69277   6.667   7.073   3.573 -0.0822 -0.6707 -0.4775
24316SOL    HW169278   6.727   7.089   3.495 -0.4093 -1.1118 -0.8301
24316SOL    HW269279   6.581   7.122   3.560  0.0047 -0.4509 -0.2209
24318SOL     OW69280   9.734   8.187   7.726 -0.2659  0.1193  0.0266
24318SOL    HW169281   9.803   8.227   7.666 -0.2553  2.5346  1.6064
24318SOL    HW269282   9.777   8.161   7.813 -0.9869 -0.0585  0.3290
24320SOL     OW69283   3.706   8.712   0.655  0.5251 -0.9961  0.2874
24320SOL    HW169284   3.768   8.710   0.734  0.6686 -3.1227  0.1608
24320SOL    HW269285   3.728   8.636   0.594 -2.0965 -1.6767  0.1331
24321SOL     OW69286   9.064   4.501   2.756 -0.1759 -0.0661 -0.0665
24321SOL    HW169287   9.038   4.453   2.672 -0.6419 -0.8508  0.5172
24321SOL    HW269288   9.063   4.436   2.832 -2.1483  1.1535  0.9726
24322SOL     OW69289   6.824   2.991   5.175  0.0716  0.3034  0.1394
24322SOL    HW169290   6.842   3.038   5.261  0.4567 -0.1954  0.3310
24322SOL    HW269291   6.904   2.997   5.116 -0.3270  0.9846 -0.3469
24324SOL     OW69292   3.570   6.188   4.746  0.0986 -0.0918  0.2551
24324SOL    HW169293   3.621   6.246   4.683  1.8808  0.7065  2.3624
24324SOL    HW269294   3.477   6.223   4.756  1.2015  2.5669  1.6362
24325SOL     OW69295   4.976   8.613   0.746 -0.2967  0.0319  0.6707
24325SOL    HW169296   5.001   8.700   0.788 -1.9067  1.5171 -1.3193
24325SOL    HW269297   4.956   8.546   0.817  1.1994  1.1944  2.2316
24326SOL     OW69298   2.127   0.834   2.704  0.1719 -0.2048  0.0270
24326SOL    HW169299   2.050   0.820   2.767 -0.4529  0.1671 -0.6464
24326SOL    HW269300   2.165   0.925   2.718 -0.2178  0.0260 -0.3972
24327SOL     OW69301   3.715   2.718   0.106 -0.2249 -0.6116 -0.3351
24327SOL    HW169302   3.655   2.788   0.145 -0.5384  0.1206 -2.0813
24327SOL    HW269303   3.717   2.638   0.166  0.7280  1.1712  2.0765
24328SOL     OW69304   7.001   9.596   6.699 -0.0109  0.2765  0.0761
24328SOL    HW169305   7.046   9.669   6.751  0.7440  0.3535 -0.6605
24328SOL    HW269306   7.059   9.571   6.621 -0.5098 -0.7505  0.0278
24329SOL     OW69307   2.005   9.467   0.760 -0.5568  0.0610  0.1185
24329SOL    HW169308   2.088   9.422   0.792 -1.4272 -1.7555 -0.0938
24329SOL    HW269309   2.028   9.540   0.696  0.7357 -2.2565 -2.0894
24330SOL     OW69310   8.634   9.484   2.612 -0.3228  0.3220 -0.4577
24330SOL    HW169311   8.632   9.510   2.515 -0.0968 -0.0735 -0.5703
24330SOL    HW269312   8.724   9.504   2.650 -0.7588  1.5006 -0.0430
24333SOL     OW69313   7.514   7.304   2.473  0.1601  0.2541 -0.0002
24333SOL    HW169314   7.416   7.307   2.454 -0.1456  0.7517  1.6322
24333SOL    HW269315   7.554   7.394   2.455  0.4369 -0.0873 -1.1857
24334SOL     OW69316   0.520   3.926   4.288  0.1653  0.0747 -0.3168
24334SOL    HW169317   0.454   3.875   4.233 -0.3873  1.9270 -1.4242
24334SOL    HW269318   0.482   3.943   4.378 -0.9892  1.3378 -1.0295
24335SOL     OW69319   2.656   0.044   7.672 -0.3225 -0.0449 -0.5763
24335SOL    HW169320   2.590   0.062   7.599 -1.8485  2.5868  1.3457
24335SOL    HW269321   2.742   0.091   7.652 -0.2694 -0.4742 -1.3460
24337SOL     OW69322   3.836   2.868   7.199  0.4211 -0.3272  0.1955
24337SOL    HW169323   3.884   2.840   7.282  0.2311  0.8452  0.7101
24337SOL    HW269324   3.817   2.966   7.203 -1.0961 -0.5790 -0.4774
24338SOL     OW69325   1.514   6.721   0.196 -0.4842  0.5209  0.6628
24338SOL    HW169326   1.457   6.646   0.229 -3.7014  0.9495 -3.5487
24338SOL    HW269327   1.579   6.685   0.128 -1.2418  1.3685 -0.5046
24339SOL     OW69328   8.193   5.233   3.730 -0.3698 -0.6399 -0.4683
24339SOL    HW169329   8.284   5.252   3.767 -0.5227  0.1966 -0.5082
24339SOL    HW269330   8.201   5.201   3.635 -0.0922 -0.9488 -0.3396
24340SOL     OW69331   8.586   3.124   4.070 -0.0366  0.3349  0.9356
24340SOL    HW169332   8.639   3.050   4.109  1.4054  0.4835 -0.7011
24340SOL    HW269333   8.563   3.103   3.975  2.3431  2.9381 -0.2916
24342SOL     OW69334   9.948   9.834   5.956 -0.1449 -0.7481 -0.5498
24342SOL    HW169335   9.998   9.866   5.875  0.7938 -0.8606 -0.0184
24342SOL    HW269336   9.933   9.736   5.948  1.2797 -1.0313  0.1127
24343SOL     OW69337   7.404   9.166   3.803  0.3779 -0.4333 -0.0800
24343SOL    HW169338   7.398   9.073   3.839 -0.4900 -0.6898 -0.8623
24343SOL    HW269339   7.341   9.176   3.726 -0.7883  1.2825  1.0422
24344SOL     OW69340   2.404   3.863   7.408  0.5068  0.4809 -0.2332
24344SOL    HW169341   2.353   3.937   7.364  0.1023 -0.5120 -1.4961
24344SOL    HW269342   2.426   3.793   7.339 -0.1875 -1.1541  1.1733
24345SOL     OW69343   6.656   9.462   2.339  0.1798  0.1865  0.1646
24345SOL    HW169344   6.656   9.367   2.368  1.1930  0.2422  0.3639
24345SOL    HW269345   6.693   9.469   2.246  0.5945  0.4451  0.3496
24346SOL     OW69346   1.276   0.407   5.291 -0.7397 -0.2552  0.3113
24346SOL    HW169347   1.236   0.421   5.201  0.0408 -0.3803 -0.0638
24346SOL    HW269348   1.213   0.440   5.362 -1.9646 -1.4793 -0.1969
24348SOL     OW69349   0.807   8.635   2.151  0.4363  0.0505 -0.4785
24348SOL    HW169350   0.819   8.540   2.182 -0.0189 -0.1297 -0.8333
24348SOL    HW269351   0.762   8.634   2.061 -2.4540  0.6891  0.9130
24351SOL     OW69352   2.160   2.985   6.080 -0.2496  0.3862 -0.2628
24351SOL    HW169353   2.106   2.906   6.049  0.8134 -0.1075 -0.8737
24351SOL    HW269354   2.255   2.973   6.053  0.3213  0.9069  1.4123
24352SOL     OW69355   7.703   8.019   7.528  0.4370  0.5090  0.1147
24352SOL    HW169356   7.608   8.015   7.557  0.8174 -0.6845  1.2651
24352SOL    HW269357   7.711   8.072   7.444 -1.5688 -1.4885 -1.3837
24353SOL     OW69358   9.251   1.581   1.157  0.3001  0.1736  0.1328
24353SOL    HW169359   9.287   1.496   1.196  0.8363  0.0276 -0.6894
24353SOL    HW269360   9.214   1.638   1.231  1.7197  0.0929  0.9290
24354SOL     OW69361   8.803   8.752   2.855 -0.0121  0.4282 -0.1439
24354SOL    HW169362   8.746   8.696   2.915 -0.0380  1.1658  0.5390
24354SOL    HW269363   8.878   8.697   2.819  0.0979  0.0089  0.7055
24355SOL     OW69364   1.410   1.227   2.559  0.2871  0.1960  0.4141
24355SOL    HW169365   1.355   1.257   2.481 -0.6897 -1.8175  0.3014
24355SOL    HW269366   1.453   1.306   2.601  0.0836  1.4188 -1.6029
24356SOL     OW69367   7.603   6.169   2.992  0.1712 -0.3027  0.1601
24356SOL    HW169368   7.615   6.070   2.985  0.1396 -0.4373  1.8266
24356SOL    HW269369   7.565   6.192   3.081 -2.2135  1.0082 -1.1591
24357SOL     OW69370   0.628   5.722   4.333  0.1698 -0.1552 -0.4036
24357SOL    HW169371   0.705   5.689   4.278 -1.0881 -1.8933 -1.1858
24357SOL    HW269372   0.654   5.726   4.429  0.8930 -1.9296 -0.5011
24359SOL     OW69373   6.736   7.766   6.519 -0.7231  0.1557 -0.6609
24359SOL    HW169374   6.731   7.673   6.554 -0.7548  0.6368  0.6214
24359SOL    HW269375   6.644   7.803   6.508 -0.7104  0.0485 -1.1571
24360SOL     OW69376   5.442   3.432   7.034  0.7507  0.1123 -0.1711
24360SOL    HW169377   5.503   3.507   7.009 -1.7891  2.1019 -0.6327
24360SOL    HW269378   5.451   3.411   7.131  1.7762  0.7574 -0.1264
24362SOL     OW69379   8.899   4.118   5.113  0.1032 -0.4499  0.0944
24362SOL    HW169380   8.809   4.154   5.088  0.0355 -0.0920  0.8376
24362SOL    HW269381   8.899   4.095   5.211  0.7605 -0.6184  0.0514
24363SOL     OW69382   4.225   1.312   4.797 -0.0383  0.2249  0.2790
24363SOL    HW169383   4.321   1.284   4.786  0.7940  2.9822  0.0601
24363SOL    HW269384   4.170   1.232   4.820  2.1931 -1.5455 -0.2527
24364SOL     OW69385   4.318   0.677   4.642  0.6949 -0.1123 -0.7364
24364SOL    HW169386   4.265   0.704   4.722  0.7689  2.0626 -1.3876
24364SOL    HW269387   4.276   0.598   4.598  0.1558 -0.7607  0.9391
24366SOL     OW69388   6.864   1.877   5.008 -0.0294  0.5289 -0.3914
24366SOL    HW169389   6.768   1.857   5.029  0.6578 -1.5196  0.9491
24366SOL    HW269390   6.918   1.794   5.020  1.7387  1.3784 -2.2967
24367SOL     OW69391   9.521   4.434   6.580  0.1348 -0.0861  0.0436
24367SOL    HW169392   9.593   4.374   6.545 -0.1893 -0.0685 -0.6531
24367SOL    HW269393   9.479   4.484   6.505 -0.6543 -0.1426  0.4343
24368SOL     OW69394   2.521   0.581   5.327  0.5553 -0.4094  0.2727
24368SOL    HW169395   2.477   0.658   5.374  1.3047 -0.8200  1.6551
24368SOL    HW269396   2.513   0.499   5.383  2.5476 -0.6290  0.2471
24369SOL     OW69397   0.985   2.236   4.662 -0.4694  0.2888  0.2481
24369SOL    HW169398   0.959   2.318   4.713 -1.4512  0.4731 -0.5442
24369SOL    HW269399   0.998   2.259   4.566 -0.1264 -0.3673  0.1352
24370SOL     OW69400   0.416   4.813   1.063  0.9127 -0.6092  0.7715
24370SOL    HW169401   0.472   4.886   1.024 -0.7731  0.0585 -0.5151
24370SOL    HW269402   0.406   4.739   0.996 -1.1299  0.0736  0.2561
24371SOL     OW69403   2.604   0.473   1.732 -0.3465 -0.0959 -0.4339
24371SOL    HW169404   2.608   0.386   1.781 -2.5469 -0.0020 -0.0566
24371SOL    HW269405   2.649   0.544   1.786 -1.6459 -0.2596  0.8773
24372SOL     OW69406   1.035   1.452   0.741  0.3608  0.1795 -0.3527
24372SOL    HW169407   1.099   1.428   0.815  1.1573 -0.0295 -1.0991
24372SOL    HW269408   0.952   1.398   0.751  0.6583 -0.2047  0.1173
24373SOL     OW69409   4.186   0.036   4.148 -0.4165 -0.2516 -0.1283
24373SOL    HW169410   4.238  -0.046   4.124 -3.5269 -2.3549 -0.0093
24373SOL    HW269411   4.213   0.068   4.239  3.3320  1.0175 -1.6054
24374SOL     OW69412   8.779   3.113   3.625  0.2384 -0.6039 -0.1804
24374SOL    HW169413   8.845   3.188   3.627 -0.1661 -0.2332 -0.6597
24374SOL    HW269414   8.745   3.101   3.532 -0.6052 -0.5833  0.1202
24375SOL     OW69415   7.993   2.009   4.208 -0.3017 -0.0603  0.6397
24375SOL    HW169416   7.990   2.016   4.308 -1.1400  0.2261  0.5958
24375SOL    HW269417   8.049   1.930   4.182 -0.9499 -0.7574  1.3490
24376SOL     OW69418   2.071   7.179   0.689 -0.0762 -0.4516  0.0345
24376SOL    HW169419   2.091   7.158   0.785  0.6316 -0.7675 -0.1761
24376SOL    HW269420   1.973   7.175   0.673 -0.2258 -0.0874  0.8210
24377SOL     OW69421   6.823   2.964   0.493  0.2976 -0.7165  0.0036
24377SOL    HW169422   6.899   2.909   0.458  0.9846  0.7106 -0.8063
24377SOL    HW269423   6.842   3.061   0.477 -1.2121 -0.2763  0.7644
24379SOL     OW69424   8.903   7.779   7.213 -0.3033  0.0252 -0.0718
24379SOL    HW169425   8.933   7.807   7.304 -1.6398  1.0265  0.0786
24379SOL    HW269426   8.920   7.853   7.148 -1.0321  0.0273 -0.2680
24380SOL     OW69427   9.084   7.918   1.633  0.4833  0.0635  0.2457
24380SOL    HW169428   9.041   7.937   1.722  1.9074  0.6204  0.8366
24380SOL    HW269429   9.166   7.975   1.623  0.9528 -0.8008 -0.9543
24381SOL     OW69430   7.311   6.176   2.442  0.2654 -0.3713  0.3918
24381SOL    HW169431   7.339   6.231   2.521  0.9667 -0.0224 -0.0922
24381SOL    HW269432   7.392   6.150   2.389 -0.4099  2.0644 -1.9601
24382SOL     OW69433   1.627   9.830   4.792 -0.1059  0.3058  0.4319
24382SOL    HW169434   1.653   9.738   4.822 -0.5920 -0.4184 -1.2945
24382SOL    HW269435   1.684   9.898   4.839  0.9102 -0.9266  1.0114
24383SOL     OW69436   4.976   0.546   6.148  0.6795 -0.1302 -0.5944
24383SOL    HW169437   5.058   0.599   6.173 -0.5872  1.6272 -0.0132
24383SOL    HW269438   4.954   0.482   6.221 -0.2163  1.5932  0.7069
24385SOL     OW69439   3.693   5.745   5.987  0.5088 -0.3833 -0.1611
24385SOL    HW169440   3.644   5.744   6.074  1.4064 -0.0046  0.3543
24385SOL    HW269441   3.688   5.654   5.945  1.5275 -1.0463  1.1103
24386SOL     OW69442   5.478   4.783   1.837  0.6770 -0.2986  0.0600
24386SOL    HW169443   5.508   4.869   1.795 -1.5480 -0.3061 -1.6427
24386SOL    HW269444   5.516   4.775   1.929  2.4056  1.6292 -0.4657
24387SOL     OW69445   0.924   3.418   4.313  0.8075 -0.2028 -0.3385
24387SOL    HW169446   0.953   3.514   4.319 -1.4697  0.4293  0.9678
24387SOL    HW269447   0.844   3.411   4.253  1.7287 -1.5051 -1.4663
24389SOL     OW69448   9.632   3.432   2.045 -0.2241 -0.5179  0.3392
24389SOL    HW169449   9.667   3.498   2.112  1.3660 -1.5077  0.5052
24389SOL    HW269450   9.589   3.355   2.093  1.2275 -1.4005  0.2726
24390SOL     OW69451   1.120   3.731   0.706  0.2445  0.4705  0.1070
24390SOL    HW169452   1.034   3.706   0.752 -0.8869  0.8321 -1.7695
24390SOL    HW269453   1.134   3.672   0.627  0.9240  1.4287 -0.4929
24392SOL     OW69454   9.532   0.768   0.283 -0.4879  0.5907  0.6024
24392SOL    HW169455   9.575   0.679   0.302  1.5523  1.2509 -0.7167
24392SOL    HW269456   9.460   0.785   0.351  0.4315 -1.1635  2.0854
24393SOL     OW69457   2.299   6.671   0.825  0.2915 -0.1545  0.0174
24393SOL    HW169458   2.225   6.711   0.880 -0.0300  0.7880 -1.0874
24393SOL    HW269459   2.290   6.571   0.824 -0.2200 -0.1164  0.9387
24394SOL     OW69460   3.794   7.871   0.626  0.0737  0.0280 -0.2773
24394SOL    HW169461   3.778   7.953   0.571  0.0480  1.7016  2.1388
24394SOL    HW269462   3.891   7.866   0.651  0.1364 -0.8528 -0.6811
24395SOL     OW69463   7.108   6.842   3.485  0.2383 -0.8157 -0.2295
24395SOL    HW169464   7.015   6.861   3.516 -0.3321 -1.2830 -1.6109
24395SOL    HW269465   7.129   6.745   3.498 -0.1304 -1.0892 -1.5861
24396SOL     OW69466   3.207   7.566   3.236 -0.1592  0.2581 -0.4234
24396SOL    HW169467   3.296   7.523   3.219 -0.4521 -0.9925  1.0877
24396SOL    HW269468   3.149   7.503   3.287 -1.7778  1.2308 -1.0312
24398SOL     OW69469   9.136   6.795   1.408 -0.2397  0.1718  0.4699
24398SOL    HW169470   9.068   6.750   1.350 -1.3558  0.6494  1.4173
24398SOL    HW269471   9.201   6.727   1.441 -1.1232 -0.5218  0.7831
24399SOL     OW69472   4.297   3.136   5.649  0.1248  0.1151  0.0734
24399SOL    HW169473   4.245   3.065   5.601 -1.2457  0.3261  1.2093
24399SOL    HW269474   4.313   3.213   5.586  1.1850 -0.9753 -1.0115
24400SOL     OW69475   9.984   2.287   7.917  0.2282  0.7910  0.8004
24400SOL    HW169476  10.026   2.202   7.885  0.2559  0.3932  1.8784
24400SOL    HW269477   9.973   2.350   7.840 -0.4350 -0.4509 -0.1411
24401SOL     OW69478   0.131   9.156   6.496  0.2618 -0.0479 -0.3017
24401SOL    HW169479   0.228   9.180   6.508  0.2050  0.8157 -1.4790
24401SOL    HW269480   0.107   9.162   6.399 -1.3980  1.3632  0.1761
24402SOL     OW69481   1.583   2.684   2.416  0.6597 -0.2023  0.2707
24402SOL    HW169482   1.573   2.621   2.339 -1.2103  0.0248  0.3086
24402SOL    HW269483   1.586   2.632   2.501  2.3190 -0.4263  0.0970
24403SOL     OW69484   7.225   0.486   4.096 -0.2870  0.4146 -0.1503
24403SOL    HW169485   7.234   0.416   4.167 -1.9186  0.7532  0.4190
24403SOL    HW269486   7.202   0.441   4.009 -2.3845  0.2660  0.4320
24404SOL     OW69487   1.717   3.892   4.594 -0.5500 -0.2912  0.2570
24404SOL    HW169488   1.760   3.885   4.684  4.1627 -0.3989 -1.8587
24404SOL    HW269489   1.702   3.800   4.558  1.1246 -0.2567 -0.5898
24405SOL     OW69490   4.795   4.313   5.849  0.4041  0.0068 -0.3652
24405SOL    HW169491   4.703   4.291   5.882  0.4337  1.6527  0.8527
24405SOL    HW269492   4.863   4.278   5.914  0.5796  0.4604 -0.3063
24406SOL     OW69493   9.198   3.479   7.331 -0.2239  0.7642  0.1759
24406SOL    HW169494   9.241   3.500   7.243 -0.5866  1.1568  0.0870
24406SOL    HW269495   9.102   3.457   7.316 -0.4271  1.3933  0.5343
24407SOL     OW69496   0.758   4.833   7.942  0.2428 -0.1529  0.3589
24407SOL    HW169497   0.846   4.787   7.932  0.2064 -0.2453  0.4568
24407SOL    HW269498   0.721   4.814   8.033  0.0190 -0.2962  0.2378
24408SOL     OW69499   2.193   8.995   0.128  0.1555  0.0716  0.3720
24408SOL    HW169500   2.111   8.940   0.110  1.2605 -1.6230  0.3868
24408SOL    HW269501   2.215   9.049   0.046  0.9680 -2.0803 -0.8860
24409SOL     OW69502   8.339   4.845   0.193  0.2550  0.1599 -0.8031
24409SOL    HW169503   8.354   4.751   0.163  3.4329  0.1769  0.4904
24409SOL    HW269504   8.323   4.846   0.292 -0.4306  0.9272 -0.9137
24410SOL     OW69505   0.909   7.791   5.042  0.1862  0.3212  0.7710
24410SOL    HW169506   0.942   7.707   4.998  0.4689  0.5859  0.4791
24410SOL    HW269507   0.865   7.849   4.974 -0.5009  0.1641  1.0765
24411SOL     OW69508   3.408   5.492   2.994 -0.3230  0.2540 -0.2051
24411SOL    HW169509   3.314   5.476   3.023 -0.7658 -1.1324 -2.2810
24411SOL    HW269510   3.417   5.467   2.897  1.7651  1.9735 -0.4882
24412SOL     OW69511   4.020   9.371   6.014  0.6109 -0.0097 -0.3222
24412SOL    HW169512   4.071   9.376   6.100  0.3778 -0.9703 -0.1216
24412SOL    HW269513   4.066   9.425   5.944  0.0476  1.9350  0.7792
24413SOL     OW69514   6.658   9.788   3.707  0.1508  0.2564  0.3092
24413SOL    HW169515   6.560   9.772   3.721 -0.2722  1.0419 -1.5471
24413SOL    HW269516   6.679   9.884   3.726 -0.1615  0.9805 -2.7612
24414SOL     OW69517   7.823   3.688   3.627 -0.1124  0.1091  0.1510
24414SOL    HW169518   7.795   3.602   3.670 -0.2396 -0.2298 -0.5941
24414SOL    HW269519   7.910   3.675   3.580  0.2150  0.5776  0.6231
24415SOL     OW69520   9.531   8.705   2.923 -0.2657 -0.2254  0.0592
24415SOL    HW169521   9.472   8.771   2.878 -0.3643 -1.6276 -1.9319
24415SOL    HW269522   9.590   8.752   2.989 -1.9522  1.4878  0.3773
24416SOL     OW69523   2.725   1.702   7.588  0.4177 -0.0537 -0.3006
24416SOL    HW169524   2.799   1.764   7.563  0.1452  1.2218  1.9161
24416SOL    HW269525   2.642   1.729   7.539  1.4002 -1.6603 -3.0071
24418SOL     OW69526   6.947   7.800   2.899  0.2927 -0.0378  0.1818
24418SOL    HW169527   7.034   7.769   2.937 -0.1615  1.0023  2.1518
24418SOL    HW269528   6.879   7.728   2.908 -0.1492  0.6455  2.5885
24419SOL     OW69529   0.509   8.561   4.203 -0.1729 -0.1686 -0.1942
24419SOL    HW169530   0.468   8.519   4.122  0.2170 -2.3622  0.7168
24419SOL    HW269531   0.545   8.490   4.263  0.1357  1.4609  1.6057
24420SOL     OW69532   3.002   9.271   4.952 -0.0579  0.2475 -0.0434
24420SOL    HW169533   3.073   9.238   5.014  0.5491  1.2895 -0.1746
24420SOL    HW269534   3.007   9.371   4.946 -3.0383  0.5984  1.8069
24421SOL     OW69535   8.672   1.070   2.983 -0.0730  0.2185  0.0248
24421SOL    HW169536   8.667   0.978   3.020 -1.3824 -0.1174 -0.9406
24421SOL    HW269537   8.665   1.067   2.883 -1.1261  1.4158  0.0442
24422SOL     OW69538   0.724   1.727   2.513 -0.3037  0.5879 -0.1190
24422SOL    HW169539   0.726   1.637   2.558 -0.3488  0.2643 -0.7451
24422SOL    HW269540   0.753   1.798   2.577 -2.4465  0.4219  1.0725
24424SOL     OW69541   6.170   9.846   5.932 -0.4328 -0.7676  0.2470
24424SOL    HW169542   6.268   9.857   5.947 -0.7974  1.0971  1.4730
24424SOL    HW269543   6.120   9.873   6.014 -2.0501  0.1066 -0.9816
24426SOL     OW69544   0.509   9.662   6.388 -0.0501  0.5702  1.0132
24426SOL    HW169545   0.476   9.756   6.404  0.7246  1.2310 -1.0714
24426SOL    HW269546   0.570   9.662   6.308  0.2940 -1.6480  1.2638
24427SOL     OW69547   3.093   9.884   1.474  0.1294  0.4991  0.2997
24427SOL    HW169548   3.178   9.935   1.475  2.0150 -2.4591 -1.3694
24427SOL    HW269549   3.082   9.839   1.385 -3.0350  0.5966  0.5801
24428SOL     OW69550   5.018   4.987   0.716 -0.0786 -0.7864  0.3006
24428SOL    HW169551   4.981   5.054   0.780  0.6326 -0.3204  0.2393
24428SOL    HW269552   5.093   5.029   0.665 -1.5972 -0.6671 -1.8962
24429SOL     OW69553   4.190   0.849   2.766  0.7438 -0.1927 -0.2990
24429SOL    HW169554   4.253   0.777   2.794  1.7465  0.1734 -1.5431
24429SOL    HW269555   4.175   0.912   2.841  0.8582 -0.9900  0.4013
24430SOL     OW69556   7.490   7.100   7.510 -0.3539  0.1338  0.2772
24430SOL    HW169557   7.419   7.081   7.578 -1.2661 -0.0706 -0.7150
24430SOL    HW269558   7.528   7.192   7.526 -1.0031  0.3336  0.6780
24431SOL     OW69559   9.121   8.449   7.113  0.0860  0.2232  0.7047
24431SOL    HW169560   9.162   8.358   7.118  0.7268  0.4866  0.3728
24431SOL    HW269561   9.022   8.441   7.107  0.2446 -0.5649 -1.8288
24433SOL     OW69562   9.939   7.173   4.557  0.4847  0.4393  0.7296
24433SOL    HW169563  10.023   7.121   4.571  0.3582 -0.2188 -0.7828
24433SOL    HW269564   9.874   7.154   4.631  0.0903 -2.2912 -0.2480
24435SOL     OW69565   3.656   0.038   5.185 -0.1615  0.1221  0.2199
24435SOL    HW169566   3.572   0.068   5.139  1.1208  0.8164 -1.7433
24435SOL    HW269567   3.733   0.045   5.122  1.0209 -2.7195  1.2543
24436SOL     OW69568   8.925   8.260   7.753  0.5317  1.0593 -0.6160
24436SOL    HW169569   9.008   8.293   7.706  0.7953  0.6499 -0.4397
24436SOL    HW269570   8.945   8.173   7.797 -0.6124 -0.1819 -2.4854
24437SOL     OW69571   9.228   4.641   1.171 -0.4478 -0.2285  0.1024
24437SOL    HW169572   9.219   4.574   1.097 -0.6377  0.8532 -0.8681
24437SOL    HW269573   9.137   4.667   1.203 -0.4676  1.5042 -1.3053
24438SOL     OW69574   1.184   7.243   5.632  0.2956 -0.3340 -0.7824
24438SOL    HW169575   1.257   7.281   5.575  1.4383 -1.8061 -0.3359
24438SOL    HW269576   1.097   7.245   5.582  1.0173 -0.3362 -2.0429
24439SOL     OW69577   2.394   2.831   1.458 -0.3838 -0.2686  0.0738
24439SOL    HW169578   2.357   2.891   1.388 -1.0415 -1.4766 -0.6259
24439SOL    HW269579   2.329   2.758   1.479  0.6201 -1.0728  0.5038
24440SOL     OW69580   0.569   6.445   0.240 -0.0473  0.2565  0.0631
24440SOL    HW169581   0.496   6.465   0.306 -0.1684 -1.4182  0.4566
24440SOL    HW269582   0.542   6.480   0.150  0.2432  2.8164  0.9069
24441SOL     OW69583   7.711   6.389   4.111 -0.3201 -0.0485  0.3116
24441SOL    HW169584   7.651   6.463   4.140  1.2786  1.1351  0.6514
24441SOL    HW269585   7.707   6.315   4.179 -1.1907  0.1236  0.4568
24442SOL     OW69586   1.038   9.334   7.210 -0.4992 -0.2062 -0.5451
24442SOL    HW169587   1.029   9.429   7.240  1.5634 -0.4662  1.0314
24442SOL    HW269588   1.061   9.332   7.113 -0.2942  0.9032 -0.5311
24443SOL     OW69589   2.729   2.005   2.975 -0.1452 -0.4909 -0.3106
24443SOL    HW169590   2.770   2.030   3.063 -0.2860 -1.8588  0.1687
24443SOL    HW269591   2.777   2.051   2.901  2.4015 -2.1725  0.2313
24444SOL     OW69592   0.974   4.138   2.336  0.0391  0.2259  0.0152
24444SOL    HW169593   0.877   4.143   2.313 -0.2351  0.6863  1.2501
24444SOL    HW269594   1.028   4.136   2.251 -1.0686 -0.7744 -0.6900
24445SOL     OW69595   7.181   3.908   0.344  0.2255  0.0664 -0.0344
24445SOL    HW169596   7.205   3.846   0.419  1.3995 -0.4584 -0.8392
24445SOL    HW269597   7.229   3.881   0.261 -0.1602  1.3541 -0.6924
24446SOL     OW69598   8.036   5.129   4.299  0.0349  0.2296  0.2989
24446SOL    HW169599   7.975   5.065   4.346  2.3426 -2.2485 -0.0093
24446SOL    HW269600   8.124   5.130   4.345  0.4361  2.2766 -0.4722
24447SOL     OW69601   1.250   6.577   2.131  0.1050 -0.2329 -0.0501
24447SOL    HW169602   1.270   6.494   2.183  2.2727 -0.1668 -0.7247
24447SOL    HW269603   1.220   6.552   2.039 -1.6966 -0.3087  0.5534
24448SOL     OW69604   3.583   9.807   3.572  0.2043 -0.0826  0.1394
24448SOL    HW169605   3.622   9.894   3.543  1.8779 -0.9300 -0.2115
24448SOL    HW269606   3.501   9.788   3.518  0.3593  0.8336 -0.4255
24449SOL     OW69607   9.882   5.116   2.820  0.0470  0.5574 -0.0777
24449SOL    HW169608   9.819   5.075   2.753  1.1536 -0.6582 -0.3949
24449SOL    HW269609   9.964   5.148   2.773  0.0860  1.2792  0.4726
24450SOL     OW69610   1.625   0.885   6.894 -0.4918 -0.0212 -0.3708
24450SOL    HW169611   1.677   0.950   6.839 -1.3492  0.4049 -0.6843
24450SOL    HW269612   1.647   0.898   6.991 -2.5688  2.4816 -0.1991
24451SOL     OW69613   0.001   5.665   6.736  0.1817  0.0086 -0.0306
24451SOL    HW169614   0.084   5.693   6.782  0.3299 -0.1055 -0.2271
24451SOL    HW269615  -0.043   5.745   6.694  0.0941  0.0979  0.2277
24452SOL     OW69616   8.363   8.851   0.262 -0.0784  0.0073 -0.2087
24452SOL    HW169617   8.382   8.768   0.209 -0.4713 -0.9720  1.1692
24452SOL    HW269618   8.326   8.922   0.201  1.3098 -0.4312 -1.6046
24453SOL     OW69619   1.938   5.952   4.003 -0.1759 -0.3105  0.4941
24453SOL    HW169620   1.880   6.032   4.015 -0.7767 -0.6097 -0.4072
24453SOL    HW269621   1.974   5.923   4.092  3.5398  3.4928  0.3814
24454SOL     OW69622   0.326   7.053   0.768  0.4350 -0.0446  0.1563
24454SOL    HW169623   0.269   7.133   0.783  1.6291  0.7658  0.4150
24454SOL    HW269624   0.403   7.055   0.831  1.2314 -0.6789 -0.7861
24456SOL     OW69625   9.288   5.988   1.241  0.2692 -0.0680  0.3159
24456SOL    HW169626   9.221   5.994   1.316  1.8410  0.1390  1.7481
24456SOL    HW269627   9.360   5.924   1.266  1.1728  0.5186 -0.7383
24457SOL     OW69628   9.914   9.562   5.877 -0.8480 -0.9674 -0.1125
24457SOL    HW169629   9.817   9.589   5.873 -0.6657  0.1052  1.9603
24457SOL    HW269630   9.953   9.564   5.785 -2.1665  1.0223 -0.6670
24458SOL     OW69631   8.815   6.592   4.406  0.3133 -0.0299 -0.5522
24458SOL    HW169632   8.729   6.575   4.357  0.5133 -0.3332 -0.7999
24458SOL    HW269633   8.867   6.507   4.413 -0.0491 -0.1389  0.8419
24459SOL     OW69634   3.479   0.817   2.199 -0.4684  0.1247 -0.0485
24459SOL    HW169635   3.473   0.904   2.150  1.3896  0.0386 -0.4673
24459SOL    HW269636   3.572   0.780   2.191 -0.8474 -1.1985  1.3217
24461SOL     OW69637   7.033   1.660   4.973 -0.5163  0.1072  0.2116
24461SOL    HW169638   7.107   1.697   5.028 -1.3746  3.7903 -0.9616
24461SOL    HW269639   7.057   1.568   4.942  1.9996 -0.1493  2.7299
24463SOL     OW69640   8.254   3.140   2.184  0.3241 -0.5948 -0.1272
24463SOL    HW169641   8.216   3.195   2.110  1.6665 -2.1014 -1.9935
24463SOL    HW269642   8.311   3.197   2.242 -0.3866  0.5160 -0.5056
24465SOL     OW69643   2.263   2.599   3.689  0.5838 -0.3232  0.3122
24465SOL    HW169644   2.253   2.603   3.589  0.3939  0.6641  0.3621
24465SOL    HW269645   2.321   2.521   3.714  1.3653 -0.0552 -0.6280
24466SOL     OW69646   0.079   0.434   4.873  0.1221  0.9208  0.5046
24466SOL    HW169647   0.077   0.532   4.892  2.5103  1.1544 -0.2738
24466SOL    HW269648   0.098   0.419   4.776 -0.7717 -0.3319  0.5017
24468SOL     OW69649   6.521   0.001   6.734 -0.6813  0.2056 -0.3735
24468SOL    HW169650   6.422   0.010   6.741 -0.8996 -0.4718 -2.2256
24468SOL    HW269651   6.565   0.072   6.789 -2.1717  0.3055  0.7397
24469SOL     OW69652   9.070   8.672   6.701 -0.0520 -0.6249  0.2680
24469SOL    HW169653   9.168   8.665   6.714  0.6034  0.6837 -3.3395
24469SOL    HW269654   9.024   8.670   6.790  3.1061 -2.3872  1.9481
24470SOL     OW69655   0.091   7.815   5.271 -0.5261  0.2972 -0.0850
24470SOL    HW169656   0.020   7.810   5.341 -2.0662 -1.7704 -1.7439
24470SOL    HW269657   0.061   7.875   5.197 -0.2222  0.0425 -0.4181
24472SOL     OW69658   1.777   6.963   1.146 -0.2287 -0.0237 -0.0700
24472SOL    HW169659   1.813   6.950   1.239 -0.4878  0.5993  0.1214
24472SOL    HW269660   1.795   6.881   1.092 -1.4749 -1.0306  0.9963
24473SOL     OW69661   4.751   3.122   4.637  0.5522 -0.1471 -0.5023
24473SOL    HW169662   4.706   3.210   4.649 -0.8774 -1.1831  2.2274
24473SOL    HW269663   4.824   3.113   4.705 -2.1527 -2.7694  2.2032
24474SOL     OW69664   9.040   1.928   3.301  0.2585  0.0337  0.0299
24474SOL    HW169665   9.107   1.999   3.322  1.5411 -0.4863 -2.1132
24474SOL    HW269666   8.952   1.970   3.281 -0.3668  0.6678  3.7897
24476SOL     OW69667   9.515   4.437   3.112  0.4798 -0.4984 -0.2207
24476SOL    HW169668   9.557   4.459   3.200 -0.4888 -1.1235  0.4136
24476SOL    HW269669   9.553   4.496   3.041  0.7655  0.4947  0.7422
24477SOL     OW69670   2.706   8.938   3.714 -0.5903 -0.5156 -0.4289
24477SOL    HW169671   2.658   8.999   3.651  0.5904  1.1129  0.1976
24477SOL    HW269672   2.751   8.866   3.663 -1.5784 -0.5754 -1.2373
24478SOL     OW69673   7.966   1.130   4.600 -0.4606 -0.0597 -1.0208
24478SOL    HW169674   7.950   1.092   4.690 -0.7628  2.7980  0.1960
24478SOL    HW269675   7.881   1.171   4.566  0.0444  0.2703 -1.9037
24479SOL     OW69676   8.294   7.036   4.951 -0.2691 -0.5709  0.9222
24479SOL    HW169677   8.284   7.068   5.045  1.9867 -1.4622  1.4962
24479SOL    HW269678   8.310   7.114   4.891 -2.3534  0.0611  1.1551
24480SOL     OW69679   1.374   5.877   1.209 -0.2049  0.5869  0.3604
24480SOL    HW169680   1.347   5.891   1.114 -1.0665 -0.2557  0.4681
24480SOL    HW269681   1.292   5.863   1.265  0.3223  0.6092  1.1472
24482SOL     OW69682   3.128   6.542   2.706 -0.1802  0.3692  0.1409
24482SOL    HW169683   3.205   6.490   2.744 -0.9601  0.3238  1.6734
24482SOL    HW269684   3.163   6.611   2.642  1.0379 -0.4510 -0.0979
24483SOL     OW69685   4.565   5.245   1.400  0.1142  0.2647  0.6468
24483SOL    HW169686   4.576   5.338   1.434 -0.1354  1.3204 -2.0063
24483SOL    HW269687   4.578   5.244   1.300 -3.0911 -1.9423  0.1588
24484SOL     OW69688   2.198   7.464   6.383 -0.5470 -0.0150 -0.6595
24484SOL    HW169689   2.148   7.449   6.468 -1.5668  0.4557 -1.1762
24484SOL    HW269690   2.296   7.454   6.401 -0.7709 -0.2864  0.4911
24485SOL     OW69691   1.236   3.537   0.529  0.2584  0.1561 -0.0051
24485SOL    HW169692   1.283   3.475   0.592  0.3061 -2.9269 -2.9615
24485SOL    HW269693   1.145   3.502   0.509 -0.0401  1.4931 -1.0582
24486SOL     OW69694   5.371   8.742   5.847 -0.9380 -0.3876 -0.3809
24486SOL    HW169695   5.409   8.832   5.872 -3.1089  0.2139  0.8882
24486SOL    HW269696   5.361   8.687   5.929 -2.3316 -0.7166 -0.7730
24487SOL     OW69697   0.639   0.120   4.462  0.0140 -0.4910  0.6737
24487SOL    HW169698   0.680   0.072   4.540  0.7961  0.9994  1.1958
24487SOL    HW269699   0.561   0.174   4.493  0.2389 -0.0035  0.3853
24488SOL     OW69700   2.499   6.158   4.301  0.1405 -0.0521  0.1724
24488SOL    HW169701   2.430   6.166   4.373 -1.6757  1.4808 -1.6919
24488SOL    HW269702   2.461   6.106   4.224  2.2409 -2.1391  0.5028
24489SOL     OW69703   2.080   4.920   3.841  0.5511  0.8695  0.0756
24489SOL    HW169704   2.058   4.843   3.781  1.7031  0.8692 -0.3603
24489SOL    HW269705   2.000   4.980   3.850 -0.7602 -1.0131  1.4109
24490SOL     OW69706   8.461   3.510   3.468  0.2092  0.3375 -0.4981
24490SOL    HW169707   8.456   3.430   3.409  0.1669 -0.2412  0.2909
24490SOL    HW269708   8.405   3.495   3.550  2.6161 -0.0376  1.1117
24491SOL     OW69709   0.468   2.167   4.870 -0.0900  0.7065  0.1169
24491SOL    HW169710   0.387   2.177   4.928  0.5771  0.9238  1.0273
24491SOL    HW269711   0.548   2.147   4.927  0.4633  0.2985 -0.7899
24492SOL     OW69712   6.908   1.354   6.144 -0.2001  0.1126  0.0485
24492SOL    HW169713   6.903   1.427   6.076  0.9915  1.0612  0.9711
24492SOL    HW269714   6.949   1.389   6.228  2.2157 -2.1119 -0.1421
24493SOL     OW69715   3.782   6.743   7.826 -0.3952 -0.5917  0.2365
24493SOL    HW169716   3.728   6.662   7.847 -0.5457 -0.2043  1.4101
24493SOL    HW269717   3.842   6.763   7.904  0.6403 -0.3815 -0.6040
24494SOL     OW69718   8.681   4.815   2.243 -0.6823 -0.4125 -0.4448
24494SOL    HW169719   8.704   4.744   2.310  0.6898  0.2306 -0.2324
24494SOL    HW269720   8.638   4.772   2.163  1.0591 -1.6097 -0.7645
24495SOL     OW69721   6.475   0.227   1.234 -0.2210 -0.0626 -0.3422
24495SOL    HW169722   6.557   0.212   1.289 -0.7944  0.3615  0.6400
24495SOL    HW269723   6.444   0.140   1.197 -1.1611 -0.7263  1.9301
24496SOL     OW69724   8.046   3.610   3.485  0.1700  0.0021  0.2710
24496SOL    HW169725   8.104   3.691   3.492 -0.8981  0.8498 -0.5857
24496SOL    HW269726   8.102   3.528   3.500  1.4624  0.8362  0.1115
24497SOL     OW69727   7.093   4.861   1.740 -0.0638  0.9872  0.0942
24497SOL    HW169728   7.022   4.929   1.722 -1.8659 -0.8717 -0.0787
24497SOL    HW269729   7.112   4.809   1.657 -0.8008 -0.6127  0.8966
24498SOL     OW69730   1.033   9.257   5.305  0.1506 -0.0017 -0.4776
24498SOL    HW169731   0.961   9.187   5.305  0.3861 -0.2601  1.6875
24498SOL    HW269732   1.089   9.247   5.222  0.0608 -2.2448 -0.2939
24500SOL     OW69733   2.612   1.149   6.627 -0.0055 -0.3030 -0.1854
24500SOL    HW169734   2.526   1.169   6.672  0.3023 -0.1426  0.3285
24500SOL    HW269735   2.680   1.220   6.649  0.8900 -1.5455  1.1252
24501SOL     OW69736   1.933   7.238   5.682 -0.0851 -0.1757 -0.2008
24501SOL    HW169737   1.959   7.235   5.585 -0.0231  0.7605 -0.2179
24501SOL    HW269738   1.995   7.179   5.735 -0.4085 -1.0495 -0.7939
24502SOL     OW69739   7.919   1.979   1.423  0.2332 -0.6638 -0.0367
24502SOL    HW169740   8.018   1.988   1.425  0.2607 -0.7380 -1.2029
24502SOL    HW269741   7.893   1.886   1.451  0.3964 -0.1022  2.0632
24503SOL     OW69742   4.148   7.840   0.375  0.4415  0.1058  0.3642
24503SOL    HW169743   4.224   7.881   0.325  0.3308 -0.1589 -0.0318
24503SOL    HW269744   4.101   7.774   0.315 -0.1904  0.3825  0.5471
24504SOL     OW69745   0.544   0.347   3.309  0.1953 -0.1250 -0.0911
24504SOL    HW169746   0.495   0.350   3.396  1.4720  0.7063  0.6112
24504SOL    HW269747   0.538   0.437   3.265  3.7021  0.9800  1.4928
24505SOL     OW69748   7.879   9.762   3.948 -0.2563 -0.1367  0.4053
24505SOL    HW169749   7.963   9.762   3.895 -0.0413 -0.5423  0.7368
24505SOL    HW269750   7.880   9.839   4.012 -1.1903  1.2415 -1.2141
24507SOL     OW69751   5.108   9.245   1.098  0.1107 -0.1703  0.0994
24507SOL    HW169752   5.035   9.277   1.038 -1.1955 -1.3157  1.0236
24507SOL    HW269753   5.131   9.150   1.075  1.7263  0.3638 -0.5596
24508SOL     OW69754   5.401   8.167   5.513 -0.2899 -0.0828 -0.5597
24508SOL    HW169755   5.457   8.172   5.430 -0.8331  0.0459 -0.9187
24508SOL    HW269756   5.316   8.118   5.493  0.2877 -1.4786  0.3217
24509SOL     OW69757   2.213   4.565   5.477 -0.4038  0.0277  0.7761
24509SOL    HW169758   2.140   4.580   5.544 -2.0540 -0.8849 -0.7850
24509SOL    HW269759   2.216   4.642   5.414 -0.3166 -0.1571  0.5553
24510SOL     OW69760   0.465   7.221   2.529  0.0142  0.4146  0.0730
24510SOL    HW169761   0.508   7.147   2.476 -0.6042  0.3629 -0.3607
24510SOL    HW269762   0.535   7.287   2.556  0.3474  0.4092 -0.7505
24511SOL     OW69763   3.736   2.700   6.315  0.6754 -0.8049  0.3357
24511SOL    HW169764   3.706   2.667   6.404  0.9443 -0.8892  0.3954
24511SOL    HW269765   3.686   2.652   6.243 -1.3493  1.0089  0.4750
24513SOL     OW69766   2.876   4.125   6.398 -0.3343 -0.0383  0.2905
24513SOL    HW169767   2.934   4.120   6.317 -0.6082 -1.1947  0.1579
24513SOL    HW269768   2.801   4.188   6.382  0.7910  1.3420  0.4012
24514SOL     OW69769   3.373   9.081   3.808  0.1087 -0.0773 -0.0611
24514SOL    HW169770   3.363   8.982   3.804  1.1142 -0.1542 -0.9343
24514SOL    HW269771   3.378   9.118   3.715 -1.5728  0.9390  0.2415
24515SOL     OW69772   9.247   3.484   2.237 -0.3500 -0.3542 -0.3020
24515SOL    HW169773   9.321   3.533   2.282  0.0833 -1.2812  0.0158
24515SOL    HW269774   9.245   3.389   2.270 -0.7630 -0.7298 -1.3768
24517SOL     OW69775   9.911   6.915   3.255  0.4359 -0.3394  0.2921
24517SOL    HW169776   9.824   6.964   3.259  1.1272  0.9826 -0.3943
24517SOL    HW269777   9.925   6.880   3.162  1.7623  1.6226 -0.2874
24518SOL     OW69778   4.209   9.826   4.983  0.9723  0.6260 -0.1291
24518SOL    HW169779   4.254   9.742   5.015  0.3379 -0.7770 -2.7475
24518SOL    HW269780   4.209   9.894   5.056  3.6556 -0.7949  1.2633
24519SOL     OW69781   4.920   8.281   1.604  0.4794 -0.4367  0.8250
24519SOL    HW169782   4.821   8.265   1.608  0.0725  1.7400  0.3001
24519SOL    HW269783   4.946   8.348   1.672  0.8328  2.3370 -1.9144
24520SOL     OW69784   3.163   0.191   2.886 -0.3250  0.1844  0.4865
24520SOL    HW169785   3.229   0.261   2.912  1.0586 -1.7113  2.2257
24520SOL    HW269786   3.169   0.175   2.788  1.3053  0.5337  0.5154
24522SOL     OW69787   4.276   0.671   5.746  0.6234  0.4047  0.1008
24522SOL    HW169788   4.346   0.615   5.790 -0.2202 -0.6722  0.0868
24522SOL    HW269789   4.253   0.748   5.806  0.2447 -0.4612  1.0904
24524SOL     OW69790   2.109   1.629   5.578 -0.0439  0.2333  0.4855
24524SOL    HW169791   2.034   1.689   5.606 -1.0832 -0.1635 -1.3487
24524SOL    HW269792   2.136   1.651   5.484  1.2683 -0.4933  0.6739
24525SOL     OW69793   0.920   2.446   6.781  0.2836 -0.1808  0.4745
24525SOL    HW169794   1.004   2.440   6.726 -0.4388 -0.9442 -0.5759
24525SOL    HW269795   0.893   2.542   6.790  0.2991 -0.0533 -0.7070
24526SOL     OW69796   5.679   6.385   1.527  0.4759  0.0929  0.3724
24526SOL    HW169797   5.671   6.289   1.555 -0.0227  0.4027  1.3231
24526SOL    HW269798   5.724   6.437   1.600  1.2887  0.4668 -0.3973
24528SOL     OW69799   0.137   8.433   2.114 -0.1591 -0.2241 -0.0412
24528SOL    HW169800   0.124   8.532   2.104 -0.4524 -0.4037 -1.6364
24528SOL    HW269801   0.229   8.415   2.149  0.5286  0.5625 -1.4000
24529SOL     OW69802   4.188   4.601   5.874  0.0587 -0.5006  0.0710
24529SOL    HW169803   4.186   4.698   5.852 -0.3760 -0.4208  0.4401
24529SOL    HW269804   4.102   4.575   5.919  1.1507 -0.5171  2.2042
24530SOL     OW69805   8.539   9.851   2.383  0.6614  0.3248  0.3705
24530SOL    HW169806   8.495   9.910   2.450  0.1620  0.4028 -0.0177
24530SOL    HW269807   8.616   9.900   2.340  0.5979  0.4924  0.4466
24531SOL     OW69808   6.447   8.927   3.719 -0.0665 -0.6055 -0.4007
24531SOL    HW169809   6.502   8.844   3.710  0.8366 -0.0178 -0.3294
24531SOL    HW269810   6.478   8.995   3.653 -1.0151 -0.4350 -0.6765
24533SOL     OW69811   9.690   5.291   7.884 -0.0992  0.1110  0.1841
24533SOL    HW169812   9.661   5.275   7.979  2.3232 -0.0613  0.9278
24533SOL    HW269813   9.761   5.361   7.882  0.5952 -0.6221 -1.4095
24534SOL     OW69814   7.376   6.925   6.135 -0.7573 -0.3002  0.2543
24534SOL    HW169815   7.464   6.878   6.130 -0.4906  0.1478  0.6940
24534SOL    HW269816   7.367   6.969   6.224 -0.6898  1.0931 -0.4199
24535SOL     OW69817   9.515   1.668   6.736 -0.5925  0.1985  0.7058
24535SOL    HW169818   9.581   1.643   6.807 -0.2098 -1.4659 -0.2026
24535SOL    HW269819   9.544   1.752   6.691  1.8363 -1.3972 -0.8013
24536SOL     OW69820   1.018   2.080   6.104  0.9688 -0.5207 -0.5130
24536SOL    HW169821   0.955   2.059   6.179 -0.8402  0.9538 -1.5758
24536SOL    HW269822   1.107   2.039   6.123  0.3885 -0.6359  2.1782
24538SOL     OW69823   3.949   9.894   1.728  0.3279 -0.2240  0.4076
24538SOL    HW169824   3.985   9.825   1.790  0.6066 -0.0207  0.4701
24538SOL    HW269825   3.922   9.850   1.642  1.4951 -0.2551  0.0441
24540SOL     OW69826   8.303   1.756   7.487  0.5794 -0.2011  0.4327
24540SOL    HW169827   8.337   1.783   7.397  0.8084 -1.1193  0.2354
24540SOL    HW269828   8.264   1.836   7.533  0.6338  0.3193 -0.3994
24541SOL     OW69829   1.863   3.352   0.305  0.0076  0.3359 -0.3302
24541SOL    HW169830   1.765   3.369   0.318 -0.3772 -0.5839 -1.8678
24541SOL    HW269831   1.899   3.298   0.381 -0.9674 -0.4361 -0.4204
24542SOL     OW69832   5.790   6.283   1.252 -0.2017 -0.3014  0.6555
24542SOL    HW169833   5.766   6.197   1.297 -1.2605  0.9519  2.5657
24542SOL    HW269834   5.788   6.357   1.319 -1.0167  1.5074 -1.3237
24545SOL     OW69835   9.873   5.383   4.319 -0.2831  0.0646  0.4415
24545SOL    HW169836   9.884   5.400   4.221 -1.8371  0.7360  0.3738
24545SOL    HW269837   9.850   5.288   4.335 -0.3055  0.0200  0.1386
24546SOL     OW69838   6.367   1.601   5.627  0.2728 -0.5648  0.0317
24546SOL    HW169839   6.437   1.596   5.556  0.7893  2.7003  0.2046
24546SOL    HW269840   6.281   1.565   5.592  1.3926 -2.2283 -1.0635
24547SOL     OW69841   4.931   6.673   0.416 -0.3030  0.7680 -0.1022
24547SOL    HW169842   4.840   6.715   0.413 -0.6020  0.1732  0.5414
24547SOL    HW269843   4.968   6.680   0.509 -0.3377 -0.3691 -0.0012
24550SOL     OW69844   9.065   2.686   0.728  0.0510  0.1895  1.0293
24550SOL    HW169845   9.070   2.761   0.794  1.8256 -0.2570  1.4430
24550SOL    HW269846   9.135   2.700   0.657 -1.3854  0.3154 -0.3921
24552SOL     OW69847   2.363   8.373   3.794  0.2483 -0.2046  0.0728
24552SOL    HW169848   2.277   8.357   3.843  1.6255  0.2356  2.6938
24552SOL    HW269849   2.427   8.298   3.811  0.8002  0.0138 -0.9717
24553SOL     OW69850   2.055   4.567   7.813  0.2198 -0.2828 -0.0730
24553SOL    HW169851   2.129   4.513   7.775  0.4589  0.9491 -1.4335
24553SOL    HW269852   2.089   4.657   7.840 -0.8992  0.5971 -1.4815
24554SOL     OW69853   9.981   3.440   2.711 -0.0243 -0.1701  0.2824
24554SOL    HW169854  10.018   3.452   2.619  1.5547 -2.0570  0.6316
24554SOL    HW269855   9.974   3.342   2.731 -1.1050  0.2174  1.8794
24555SOL     OW69856   8.196   8.003   2.468 -0.2923 -0.5729  0.4669
24555SOL    HW169857   8.245   8.032   2.550 -0.7545 -0.2425  0.6301
24555SOL    HW269858   8.101   7.983   2.492 -0.4187 -0.5110  0.0149
24556SOL     OW69859   0.098   7.380   0.201  0.3432  0.7599 -0.0322
24556SOL    HW169860   0.113   7.282   0.218  2.1413  1.2066  1.0099
24556SOL    HW269861   0.173   7.417   0.147  0.0340  1.7238  0.1906
24557SOL     OW69862   3.344   0.484   4.390 -0.5926 -0.1749  0.4402
24557SOL    HW169863   3.432   0.447   4.362 -0.6185  1.0183 -1.3169
24557SOL    HW269864   3.355   0.536   4.474  0.5554  0.6728 -0.2200
24558SOL     OW69865   7.106   7.793   4.908 -0.0107  0.1101 -0.0567
24558SOL    HW169866   7.016   7.814   4.944 -1.5574 -1.4868 -2.8711
24558SOL    HW269867   7.124   7.695   4.918  0.8146  0.1785 -0.7691
24559SOL     OW69868   4.196   3.059   2.994  0.0325  0.5951  0.1834
24559SOL    HW169869   4.182   3.150   3.033 -2.2758  1.1020 -1.6955
24559SOL    HW269870   4.195   3.064   2.894  0.4108 -1.4238  0.0415
24560SOL     OW69871   2.219   9.083   5.920 -0.6448  0.0712 -0.2834
24560SOL    HW169872   2.134   9.031   5.929 -2.3210  2.2787 -2.5431
24560SOL    HW269873   2.280   9.062   5.997 -2.8082 -2.2905  0.8522
24563SOL     OW69874   7.019   7.596   5.205 -0.4052 -0.4650 -0.2311
24563SOL    HW169875   6.975   7.539   5.136  1.5999 -0.8586 -1.2329
24563SOL    HW269876   6.950   7.637   5.263 -2.0771 -1.0554 -1.7490
24565SOL     OW69877   9.756   8.858   6.766 -0.5860 -0.2485  0.9014
24565SOL    HW169878   9.817   8.932   6.739  0.5139 -1.6123 -0.4628
24565SOL    HW269879   9.747   8.793   6.690 -0.7328 -2.0270  2.4104
24566SOL     OW69880   4.886   0.808   7.438 -0.2063  0.1480 -0.3836
24566SOL    HW169881   4.896   0.907   7.452  0.0441  0.0555  0.1051
24566SOL    HW269882   4.790   0.783   7.446 -0.4042  0.5016 -1.5097
24567SOL     OW69883   2.639   4.134   5.709  0.8756  0.3627 -0.4352
24567SOL    HW169884   2.686   4.211   5.752  1.6165 -0.5443  0.3839
24567SOL    HW269885   2.617   4.065   5.777 -2.4019  1.1130 -0.6496
24568SOL     OW69886   0.388   3.370   7.102  0.1100  0.0140  0.0773
24568SOL    HW169887   0.363   3.338   7.193  0.6464  0.6914  0.4713
24568SOL    HW269888   0.308   3.369   7.043 -0.2382 -0.4323  0.5590
24569SOL     OW69889   1.718   9.662   1.750 -0.1426 -0.5495  0.4051
24569SOL    HW169890   1.658   9.691   1.676 -0.6556  0.4162  1.1806
24569SOL    HW269891   1.670   9.595   1.807 -0.3533 -0.0546  0.8120
24570SOL     OW69892   9.697   2.126   1.930  0.2262  0.2871  0.1965
24570SOL    HW169893   9.641   2.077   1.997  0.5510 -0.1352  0.1582
24570SOL    HW269894   9.746   2.061   1.873 -0.3112  0.6480 -0.6773
24571SOL     OW69895   7.857   0.551   1.741 -0.6886  0.4908 -0.2047
24571SOL    HW169896   7.828   0.463   1.779 -0.0508  0.0034 -0.8299
24571SOL    HW269897   7.904   0.536   1.654 -0.4072  1.4385 -0.2242
24572SOL     OW69898   9.095   2.988   0.198 -0.2300 -0.3922 -0.4370
24572SOL    HW169899   8.999   2.963   0.212 -0.5486  0.4035 -1.1875
24572SOL    HW269900   9.112   3.002   0.101  0.2489  1.0896 -0.1561
24574SOL     OW69901   0.121   6.273   0.990  0.0490 -0.1970  0.0647
24574SOL    HW169902   0.022   6.279   0.997  0.0670  0.9221 -0.5581
24574SOL    HW269903   0.145   6.219   0.909 -0.0493  1.7098 -1.2647
24575SOL     OW69904   0.787   7.325   3.407  0.1290 -0.1382  0.3483
24575SOL    HW169905   0.878   7.353   3.377 -0.1531  0.2154 -0.1863
24575SOL    HW269906   0.775   7.346   3.504  0.3648  0.4643  0.2470
24576SOL     OW69907   8.605   8.224   3.141 -0.3683  0.0293  0.2645
24576SOL    HW169908   8.681   8.283   3.169  1.0781 -1.0559 -1.2624
24576SOL    HW269909   8.531   8.232   3.207  1.3479  0.5717  2.1849
24577SOL     OW69910   4.988   6.770   2.685 -0.0101  0.4574  0.2684
24577SOL    HW169911   5.032   6.852   2.647 -1.0244  1.3040  0.8898
24577SOL    HW269912   4.940   6.722   2.612 -1.8256  1.9992  0.4100
24578SOL     OW69913   1.919   9.771   0.659  0.5522  0.1463 -0.8681
24578SOL    HW169914   1.865   9.687   0.653  0.4755  0.2329 -1.4290
24578SOL    HW269915   1.926   9.812   0.568  0.1305  1.0312 -0.5079
24579SOL     OW69916   3.672   8.177   4.235  0.2094  0.3202 -0.2149
24579SOL    HW169917   3.630   8.257   4.192  1.7778  1.6771  0.7057
24579SOL    HW269918   3.770   8.192   4.245  0.8546 -2.5417 -1.7499
24580SOL     OW69919   7.986   0.608   6.600  0.3312 -0.2505 -0.3234
24580SOL    HW169920   7.967   0.521   6.645  1.0626 -0.6937 -0.8518
24580SOL    HW269921   8.021   0.591   6.508 -1.6176  0.6500 -1.2589
24581SOL     OW69922   0.672   5.692   0.350  0.1037 -0.3615 -0.7863
24581SOL    HW169923   0.580   5.704   0.387  0.2290 -1.1190 -0.2189
24581SOL    HW269924   0.721   5.779   0.351 -0.8710  0.1927 -1.7892
24582SOL     OW69925   1.714   4.558   4.241  0.2459  0.5475 -0.4088
24582SOL    HW169926   1.779   4.585   4.170  0.0637 -1.0529 -1.1963
24582SOL    HW269927   1.711   4.459   4.247 -0.0056  0.6540  1.6014
24584SOL     OW69928   5.924   9.441   6.394  0.2930 -0.2662 -0.3626
24584SOL    HW169929   5.922   9.503   6.315 -1.0342 -0.2683 -0.3335
24584SOL    HW269930   5.948   9.493   6.476  1.0047 -0.1427 -0.6394
24587SOL     OW69931   2.718   1.499   2.905 -0.0881  0.3243  0.4798
24587SOL    HW169932   2.622   1.478   2.886  0.1182 -1.7277  1.5465
24587SOL    HW269933   2.728   1.597   2.924 -2.0622  0.4613  0.9304
24588SOL     OW69934   2.396   2.076   2.258 -0.3783 -0.1306 -0.2041
24588SOL    HW169935   2.338   2.117   2.328  0.8281  0.7871  0.2670
24588SOL    HW269936   2.486   2.056   2.297  0.0528 -0.3248 -1.2910
24589SOL     OW69937   9.881   3.052   3.308  0.2986 -0.2933  0.0419
24589SOL    HW169938   9.826   3.071   3.389  1.0650  0.5076  0.3751
24589SOL    HW269939   9.949   2.982   3.330 -0.3031 -0.9875 -0.2612
24590SOL     OW69940   3.721   7.903   6.293 -0.7047 -0.5050 -0.4421
24590SOL    HW169941   3.715   7.803   6.294 -2.3782 -0.4149 -0.2810
24590SOL    HW269942   3.785   7.932   6.222 -0.2140 -1.6809 -0.4923
24591SOL     OW69943   6.160   7.012   4.236  0.5585 -0.0954 -0.2275
24591SOL    HW169944   6.193   6.994   4.329  1.3700  0.4578 -0.4084
24591SOL    HW269945   6.231   6.988   4.170  0.1157 -0.1390 -0.6858
24592SOL     OW69946   1.462   2.197   0.719 -0.1232 -0.1671  0.1455
24592SOL    HW169947   1.466   2.223   0.623  2.4883 -0.0271  0.2498
24592SOL    HW269948   1.367   2.182   0.746 -1.0376  1.5925 -1.9611
24593SOL     OW69949   4.092   5.655   7.040  0.0872 -0.4503 -0.1379
24593SOL    HW169950   4.175   5.600   7.049  1.5027  1.4711 -1.0898
24593SOL    HW269951   4.115   5.752   7.050 -2.4431 -0.0121  2.1016
24594SOL     OW69952   7.405   4.955   0.111 -0.6291  0.0398  0.0111
24594SOL    HW169953   7.410   4.938   0.209  1.4679 -0.7674 -0.2078
24594SOL    HW269954   7.320   4.915   0.075  0.2021 -2.6789  0.9484
24595SOL     OW69955   8.559   9.514   6.030 -0.2427  0.4002  0.2976
24595SOL    HW169956   8.565   9.484   5.935  0.5678 -0.1226  0.5117
24595SOL    HW269957   8.581   9.437   6.091 -1.6308  0.4889  0.9365
24596SOL     OW69958   9.123   7.630   2.157 -0.0063 -0.4199 -0.0076
24596SOL    HW169959   9.169   7.649   2.070 -0.0470 -3.0316 -0.6553
24596SOL    HW269960   9.046   7.568   2.141 -0.8588  0.1439  1.7298
24597SOL     OW69961   9.496   7.208   4.586 -0.4660  0.1341  0.2176
24597SOL    HW169962   9.408   7.255   4.577 -0.4747  0.5172  1.9460
24597SOL    HW269963   9.517   7.197   4.684  2.2938  1.7414 -0.1548
24598SOL     OW69964   3.582   1.842   2.160  0.3854 -0.5590 -0.3427
24598SOL    HW169965   3.656   1.871   2.220 -0.1160 -1.8780  0.9634
24598SOL    HW269966   3.509   1.801   2.215 -1.0449  0.1445 -1.6592
24599SOL     OW69967   5.121   5.459   1.906 -0.9994 -0.0808  0.6531
24599SOL    HW169968   5.058   5.411   1.966 -1.9782 -1.2209 -1.2431
24599SOL    HW269969   5.074   5.489   1.823  0.3463  1.3473  0.3636
24600SOL     OW69970   0.974   3.865   0.417  0.2472 -0.2317  0.2586
24600SOL    HW169971   0.989   3.897   0.510 -0.2972  1.0576 -0.0832
24600SOL    HW269972   0.881   3.887   0.388  1.5158  2.7029 -1.8487
24603SOL     OW69973   8.161   2.166   5.238  0.1099  0.5286  0.0857
24603SOL    HW169974   8.138   2.070   5.219 -0.2429  0.5991  0.1658
24603SOL    HW269975   8.248   2.188   5.193  0.0985  0.2244 -0.0921
24604SOL     OW69976   9.023   4.534   0.233 -0.0224  0.0155  0.5998
24604SOL    HW169977   9.037   4.576   0.322 -1.1951 -1.0657  1.3183
24604SOL    HW269978   8.933   4.559   0.198 -0.6623 -1.7309  0.9629
24605SOL     OW69979   3.046   4.469   7.261  0.2933  0.1735  0.1278
24605SOL    HW169980   3.008   4.494   7.350  0.4549  2.8055 -0.5019
24605SOL    HW269981   3.131   4.519   7.246  0.3878 -0.4208 -1.4054
24606SOL     OW69982   4.535   7.603   5.964  0.5332 -0.2561  0.1243
24606SOL    HW169983   4.566   7.668   6.033 -1.3827 -0.7207  1.4831
24606SOL    HW269984   4.494   7.524   6.009 -0.5756 -0.6662 -1.5477
24607SOL     OW69985   8.738   1.955   4.706 -0.1964 -0.1254  0.1581
24607SOL    HW169986   8.707   1.874   4.755 -1.6615  0.8075  0.7943
24607SOL    HW269987   8.670   1.980   4.637 -0.1645  1.0588  0.5505
24608SOL     OW69988   4.841   4.544   5.691 -0.1727  0.6561  0.0990
24608SOL    HW169989   4.804   4.629   5.729 -0.7947  1.0540 -1.3340
24608SOL    HW269990   4.822   4.469   5.753 -0.2887  1.4458  1.0310
24609SOL     OW69991   6.617   2.799   1.534 -0.4962  0.3460 -0.5259
24609SOL    HW169992   6.645   2.893   1.551 -0.9099  0.8559 -2.5504
24609SOL    HW269993   6.619   2.780   1.436 -2.2491 -1.1716 -0.3126
24610SOL     OW69994   8.658   4.795   7.555 -0.3813  0.2455 -0.4398
24610SOL    HW169995   8.599   4.733   7.504  0.0005  0.6605 -1.4065
24610SOL    HW269996   8.750   4.757   7.560 -0.3719  0.2944 -0.2220
24611SOL     OW69997   9.429   7.069   4.034  0.0434 -0.5012 -0.0513
24611SOL    HW169998   9.335   7.040   4.017 -0.1922  0.3497 -0.2620
24611SOL    HW269999   9.436   7.109   4.125  0.2619 -0.7971  0.0643
24612SOL     OW70000   2.893   7.627   6.242  0.0343  0.5129 -0.1577
24612SOL    HW170001   2.987   7.594   6.244  0.5209  1.6841 -2.3261
24612SOL    HW270002   2.887   7.708   6.185 -2.1112  1.0960  0.8262
24613SOL     OW70003   0.246   1.338   0.264  0.5985  0.3784 -0.3153
24613SOL    HW170004   0.337   1.311   0.233  0.6637  1.9941 -1.5818
24613SOL    HW270005   0.254   1.393   0.347  0.6525 -0.8543  0.5155
24614SOL     OW70006   1.621   2.812   3.702  0.6795 -0.0579  0.5483
24614SOL    HW170007   1.585   2.819   3.609  2.0787  0.1005  0.0054
24614SOL    HW270008   1.713   2.851   3.705  0.4423  0.4171  2.1175
24615SOL     OW70009   9.000   0.713   6.699  0.2180  0.1404  0.4859
24615SOL    HW170010   8.970   0.631   6.650 -1.2960  1.4547 -0.8300
24615SOL    HW270011   9.093   0.737   6.668 -0.1161  0.0647 -0.6147
24616SOL     OW70012   2.641   4.889   5.438 -0.4065 -0.2780 -0.2534
24616SOL    HW170013   2.708   4.956   5.467 -1.0337 -0.0852  0.7562
24616SOL    HW270014   2.626   4.898   5.339 -1.6537  2.1388  0.1209
24617SOL     OW70015   2.185   7.571   0.391  0.3082  0.2989 -0.3127
24617SOL    HW170016   2.134   7.653   0.417 -1.3478 -1.1053  0.9928
24617SOL    HW270017   2.211   7.521   0.474  1.8858 -0.1454 -1.0751
24618SOL     OW70018   0.791   9.950   4.654  0.2330  0.7756  0.9351
24618SOL    HW170019   0.871   9.916   4.704  0.0135 -1.3705 -0.1421
24618SOL    HW270020   0.709   9.908   4.692 -0.1579  1.0874  0.4249
24619SOL     OW70021   8.963   5.884   3.754  0.1600 -0.4249  0.1240
24619SOL    HW170022   8.930   5.951   3.687  0.6108  1.9966  2.2618
24619SOL    HW270023   9.061   5.896   3.766  0.1480 -1.1300  0.9163
24620SOL     OW70024   5.455   3.693   1.601  0.5673  0.1877 -0.2476
24620SOL    HW170025   5.538   3.731   1.640 -0.7823  1.8828  1.0379
24620SOL    HW270026   5.375   3.725   1.652 -0.8641 -1.8401 -1.0974
24621SOL     OW70027   2.326   8.935   0.977 -0.5640  0.6560 -0.4211
24621SOL    HW170028   2.420   8.924   0.944  0.1337 -0.4121  1.8033
24621SOL    HW270029   2.268   8.866   0.935 -0.3926  1.4482 -1.9601
24622SOL     OW70030   8.639   0.151   4.080 -0.0747  0.3689  0.0106
24622SOL    HW170031   8.558   0.156   4.021  1.0412 -1.2991 -1.7245
24622SOL    HW270032   8.644   0.061   4.123  0.4200  0.7452  0.7479
24623SOL     OW70033   7.921   9.979   4.677  0.1270  0.2150  0.0124
24623SOL    HW170034   7.827   9.969   4.647 -0.1337  0.1691  0.8387
24623SOL    HW270035   7.961   9.888   4.694 -0.0005  0.2724  0.6348
24624SOL     OW70036   2.286   5.935   5.600 -0.5036  0.6388  0.4632
24624SOL    HW170037   2.209   5.936   5.537 -0.9343 -1.7380  0.9031
24624SOL    HW270038   2.325   6.027   5.607 -0.5014  0.9812 -3.1676
24625SOL     OW70039   4.052   6.057   3.860  0.1161 -0.7311 -0.1810
24625SOL    HW170040   4.015   6.005   3.937  1.2306  1.2085  1.7278
24625SOL    HW270041   4.086   6.145   3.893  1.5306 -0.2671 -2.7460
24628SOL     OW70042   9.549   1.009   6.332 -0.7069  0.1749  0.5132
24628SOL    HW170043   9.535   1.053   6.421  1.4064  0.1707  0.8603
24628SOL    HW270044   9.598   0.923   6.344 -0.4263  0.1617 -0.6578
24630SOL     OW70045   8.944   2.682   4.795  0.2713 -0.0844 -0.6237
24630SOL    HW170046   9.033   2.651   4.828 -0.8233 -0.8023  1.7412
24630SOL    HW270047   8.916   2.627   4.717  1.0974 -1.0176 -0.2670
24631SOL     OW70048   3.343   9.669   5.156 -0.2723  0.1505  0.2364
24631SOL    HW170049   3.338   9.578   5.197 -0.4190  0.1615  0.2421
24631SOL    HW270050   3.439   9.693   5.140 -0.2696 -0.3955 -0.6248
24632SOL     OW70051   2.577   4.180   1.747 -0.0834 -0.0998 -0.0646
24632SOL    HW170052   2.542   4.231   1.668 -0.7396 -0.7668 -0.2052
24632SOL    HW270053   2.510   4.112   1.776 -0.2442  0.7362  1.6317
24633SOL     OW70054   3.569   4.635   4.142 -0.0359  0.1504  0.2241
24633SOL    HW170055   3.497   4.567   4.126  0.3046 -0.1618  0.0277
24633SOL    HW270056   3.539   4.698   4.213 -0.6647  0.2501 -0.1277
24635SOL     OW70057   2.727   8.368   0.701 -0.0753 -0.0605 -0.0866
24635SOL    HW170058   2.654   8.300   0.701  2.0825 -2.4404  1.4900
24635SOL    HW270059   2.804   8.336   0.645  0.7522  1.3318  0.2157
24636SOL     OW70060   0.379   9.546   3.093  0.0032  0.0017 -0.1058
24636SOL    HW170061   0.399   9.644   3.086 -1.0259  0.1302 -1.5047
24636SOL    HW270062   0.394   9.503   3.004 -1.4281 -0.7472  0.0022
24637SOL     OW70063   9.865   0.892   6.976 -0.0766  0.1849 -0.1846
24637SOL    HW170064   9.783   0.876   7.031 -1.5806  1.7928 -1.8866
24637SOL    HW270065   9.841   0.894   6.879  2.5027 -2.3372 -0.9498
24639SOL     OW70066   2.335   2.721   7.373  0.1430 -0.4958 -0.4634
24639SOL    HW170067   2.315   2.630   7.407 -0.4740  0.0342  0.6248
24639SOL    HW270068   2.269   2.786   7.410  1.3180  0.5941 -0.2057
24641SOL     OW70069   0.110   1.148   5.722 -0.1725  0.0613  0.4569
24641SOL    HW170070   0.077   1.198   5.802 -1.6297 -1.2709  0.7148
24641SOL    HW270071   0.093   1.202   5.639 -1.2636  0.2287  0.7782
24642SOL     OW70072   3.131   5.272   6.365  0.4241 -0.6074  0.0356
24642SOL    HW170073   3.168   5.363   6.343 -1.4019  0.1664  0.0811
24642SOL    HW270074   3.045   5.258   6.317  0.1298 -1.8855  0.8938
24643SOL     OW70075   1.541   4.290   1.085 -0.2031 -0.2531  0.3980
24643SOL    HW170076   1.505   4.359   1.148  2.0760  1.1331  0.2097
24643SOL    HW270077   1.630   4.258   1.117 -1.1965 -3.1142  0.4552
24644SOL     OW70078   6.749   1.846   2.119 -0.2329 -0.0525  0.0645
24644SOL    HW170079   6.759   1.848   2.219  1.7967 -0.3475 -0.1150
24644SOL    HW270080   6.838   1.830   2.077 -1.6201 -4.0255 -1.6412
24645SOL     OW70081   2.195   3.585   0.608  0.2598 -0.5952 -0.4010
24645SOL    HW170082   2.117   3.620   0.660  0.9999  0.7385 -0.1671
24645SOL    HW270083   2.212   3.490   0.633  0.5308 -0.0229  1.7217
24646SOL     OW70084   8.972   5.408   1.012  0.5583 -0.3907 -0.2326
24646SOL    HW170085   8.911   5.406   0.932  0.5079  0.3810 -0.2231
24646SOL    HW270086   9.028   5.326   1.013 -1.2750 -1.6597  0.3832
24647SOL     OW70087   3.712   2.098   4.140 -0.7954 -0.0281  0.1449
24647SOL    HW170088   3.665   2.113   4.054  0.1471 -2.3891 -0.8109
24647SOL    HW270089   3.794   2.043   4.125 -0.3737 -0.1106  2.4719
24648SOL     OW70090   4.343   4.705   6.559  0.4278  0.3043 -0.9277
24648SOL    HW170091   4.245   4.717   6.547  0.4131 -0.5044 -1.7030
24648SOL    HW270092   4.369   4.732   6.651 -0.0493  3.2519 -1.6131
24650SOL     OW70093   3.891   9.362   4.755 -0.1284 -0.0624  0.2490
24650SOL    HW170094   3.970   9.396   4.703  0.0539 -1.3314 -0.3179
24650SOL    HW270095   3.880   9.264   4.739 -1.1699 -0.1110  1.1895
24651SOL     OW70096   2.029   5.713   4.672 -0.1765 -0.2085 -0.0606
24651SOL    HW170097   2.099   5.784   4.680 -0.6801  0.3541 -0.5790
24651SOL    HW270098   1.979   5.704   4.758 -1.1834  1.2007 -0.4776
24653SOL     OW70099   9.789   0.270   7.736  0.2249 -0.5119 -0.6497
24653SOL    HW170100   9.758   0.233   7.823 -0.8949  0.0384 -0.7947
24653SOL    HW270101   9.889   0.271   7.733  0.3410 -4.5816 -1.1079
24654SOL     OW70102   7.231   1.286   6.359  0.5193 -0.0576 -0.0171
24654SOL    HW170103   7.159   1.225   6.328  0.7344 -0.2349 -0.1721
24654SOL    HW270104   7.224   1.373   6.311  1.6961 -0.8162 -1.6188
24657SOL     OW70105   7.880   8.302   6.886  0.6910  0.0308  0.2516
24657SOL    HW170106   7.963   8.342   6.924 -0.0481  2.1952 -0.3781
24657SOL    HW270107   7.901   8.212   6.847  3.1446  1.4310 -1.7492
24658SOL     OW70108   9.336   4.812   7.532 -0.0482  0.5711  0.3355
24658SOL    HW170109   9.240   4.838   7.545  0.1031  0.0446  2.7243
24658SOL    HW270110   9.390   4.842   7.610  1.5985  0.1447 -0.6135
24659SOL     OW70111   6.132   2.076   1.182  0.0606 -0.2677 -0.7330
24659SOL    HW170112   6.185   1.996   1.154  0.9857  0.1264 -0.1141
24659SOL    HW270113   6.173   2.159   1.145 -0.2809  0.0175 -0.4829
24660SOL     OW70114   1.060   1.576   0.286  0.0205  0.2248  0.4414
24660SOL    HW170115   0.991   1.639   0.321 -0.2895  1.0859 -1.6352
24660SOL    HW270116   1.077   1.504   0.353 -2.5196  0.2802  1.1737
24663SOL     OW70117   9.694   3.565   5.860 -0.4536 -0.2763  0.0186
24663SOL    HW170118   9.727   3.499   5.927 -0.2552 -0.0675  0.1281
24663SOL    HW270119   9.690   3.522   5.770 -0.0942 -0.3710  0.0465
24666SOL     OW70120   0.869   1.981   2.589 -0.3641 -0.1981 -0.3305
24666SOL    HW170121   0.798   2.051   2.595 -2.6378 -2.4076 -1.0352
24666SOL    HW270122   0.890   1.962   2.493  1.3796  0.5953 -0.1352
24667SOL     OW70123   1.444   0.414   7.666 -0.1118  0.2801 -0.0328
24667SOL    HW170124   1.486   0.387   7.580  0.9260 -0.2324  0.6244
24667SOL    HW270125   1.379   0.488   7.650 -0.2025 -0.0702 -1.3022
24668SOL     OW70126   6.028   7.333   4.325 -0.2609 -0.5321  0.4532
24668SOL    HW170127   5.996   7.240   4.306 -0.5868 -0.0670 -1.3455
24668SOL    HW270128   6.107   7.354   4.267  0.5503 -0.0869  1.6935
24669SOL     OW70129   8.550   7.747   2.228 -0.2690 -0.2307  0.7225
24669SOL    HW170130   8.500   7.813   2.172 -1.5970 -0.4464  1.6117
24669SOL    HW270131   8.647   7.749   2.205 -0.6017  0.6403 -0.6145
24670SOL     OW70132   0.623   7.250   3.187 -0.0671 -0.2849  0.3431
24670SOL    HW170133   0.692   7.289   3.247 -0.4349 -1.2145  1.3672
24670SOL    HW270134   0.551   7.318   3.171  0.0021 -0.0585  0.9875
24672SOL     OW70135   7.249   4.729   2.239 -0.6093 -0.2285 -0.3775
24672SOL    HW170136   7.232   4.766   2.147  0.3112  0.1767 -0.3870
24672SOL    HW270137   7.309   4.650   2.232 -0.0630  0.1592 -0.0721
24673SOL     OW70138   3.172   3.210   0.501 -0.1843 -0.0668 -0.2530
24673SOL    HW170139   3.083   3.167   0.490 -0.3934  0.4020 -0.4103
24673SOL    HW270140   3.165   3.308   0.480  0.2163  0.1079  0.4205
24674SOL     OW70141   3.563   2.290   3.682 -0.0001  0.0256 -0.2213
24674SOL    HW170142   3.477   2.267   3.636 -0.2557  1.5583 -0.5363
24674SOL    HW270143   3.584   2.387   3.668  1.5923 -0.2421  0.1727
24675SOL     OW70144   7.666   1.501   4.299 -0.0511  0.0492 -0.5343
24675SOL    HW170145   7.732   1.454   4.240  1.7037  1.4953  0.2027
24675SOL    HW270146   7.700   1.594   4.318 -1.5006  0.2332  1.2405
24676SOL     OW70147   9.931   0.762   6.098 -0.3724  0.4012  0.0892
24676SOL    HW170148   9.978   0.851   6.099  1.2876 -0.4521  1.1351
24676SOL    HW270149   9.978   0.701   6.034 -1.2847  0.1637 -0.3559
24677SOL     OW70150   3.396   1.727   6.166 -0.2546 -0.4214  0.2623
24677SOL    HW170151   3.364   1.639   6.201  0.5923 -0.3027  1.3371
24677SOL    HW270152   3.394   1.795   6.239  0.9679 -0.0354 -0.0589
24678SOL     OW70153   5.951   8.416   3.360 -0.0877 -0.1952 -0.1599
24678SOL    HW170154   6.003   8.343   3.317  1.4612  0.2304  0.9225
24678SOL    HW270155   5.912   8.384   3.446  0.0623  0.0599  0.0057
24680SOL     OW70156   7.134   0.505   1.061 -0.1628  0.1126 -0.1026
24680SOL    HW170157   7.114   0.516   1.159 -1.9471 -2.5759 -0.1176
24680SOL    HW270158   7.220   0.456   1.050  0.1797  0.6580  0.0847
24681SOL     OW70159   1.163   5.276   5.242 -0.2793 -0.1772  0.2146
24681SOL    HW170160   1.225   5.215   5.292  0.7644  0.3306 -0.4383
24681SOL    HW270161   1.105   5.221   5.181  1.3797 -0.4629 -1.1542
24682SOL     OW70162   3.878   2.989   1.656 -0.4466 -0.4328  0.6354
24682SOL    HW170163   3.972   2.954   1.656 -0.2758 -0.0073 -0.6344
24682SOL    HW270164   3.831   2.958   1.738  0.9268 -0.3317  1.4785
24684SOL     OW70165   8.449   8.278   4.453 -0.1807 -0.9174 -0.2368
24684SOL    HW170166   8.367   8.271   4.396  0.4605  0.3210 -1.3605
24684SOL    HW270167   8.423   8.292   4.548 -1.2739 -1.4357 -0.4495
24685SOL     OW70168   4.930   8.429   2.398 -0.2654 -0.1630 -0.1817
24685SOL    HW170169   4.944   8.336   2.431  0.6873 -0.4954 -1.4706
24685SOL    HW270170   4.979   8.441   2.311  3.4909  2.9053  2.2179
24687SOL     OW70171   9.534   5.469   5.775 -0.8274  0.4996  0.4298
24687SOL    HW170172   9.449   5.475   5.722 -1.3427 -0.7426  1.0838
24687SOL    HW270173   9.519   5.410   5.855  0.6007  0.4241  0.6566
24688SOL     OW70174   9.923   4.925   7.755 -0.7218  0.1373 -0.0895
24688SOL    HW170175   9.976   4.857   7.806 -0.1411  0.4359 -0.2930
24688SOL    HW270176   9.850   4.961   7.814 -2.0506 -1.8136 -0.4917
24690SOL     OW70177   9.058   1.855   4.408  0.0971 -0.3871 -0.0278
24690SOL    HW170178   9.098   1.766   4.388  0.0220 -0.0519 -1.7500
24690SOL    HW270179   9.115   1.927   4.367 -1.1159  0.2083 -0.7071
24691SOL     OW70180   1.468   9.281   1.677  0.4024  0.3367 -0.3168
24691SOL    HW170181   1.376   9.250   1.701  1.0657  0.7966  3.1064
24691SOL    HW270182   1.470   9.309   1.581 -1.6355 -4.8349 -2.0324
24692SOL     OW70183   0.551   0.908   1.630 -0.0883  1.1003 -0.1704
24692SOL    HW170184   0.627   0.892   1.568 -0.0874  1.1665 -0.1863
24692SOL    HW270185   0.483   0.966   1.586 -0.6984  0.0969 -0.5884
24694SOL     OW70186   1.422   9.485   7.887 -0.2569  0.3720 -0.3590
24694SOL    HW170187   1.476   9.541   7.825 -0.9283 -0.6138 -1.8754
24694SOL    HW270188   1.364   9.424   7.834  0.2616 -1.5721  1.2409
24695SOL     OW70189   6.978   3.182   4.001  0.2065 -0.0167 -0.5580
24695SOL    HW170190   6.926   3.097   4.006 -0.0169  0.0882 -1.1368
24695SOL    HW270191   6.979   3.225   4.091 -0.1250 -0.3653 -0.3862
24696SOL     OW70192   1.970   2.678   6.164 -0.0245  0.4425 -0.0736
24696SOL    HW170193   2.061   2.713   6.185  0.0847 -0.1751  0.5081
24696SOL    HW270194   1.901   2.741   6.201  0.1247  2.2640 -2.7476
24697SOL     OW70195   3.511   0.770   7.793  0.3086 -0.3039  0.2922
24697SOL    HW170196   3.483   0.783   7.888  0.1038 -0.8071  0.3001
24697SOL    HW270197   3.460   0.694   7.753 -0.2940  0.5161 -0.5111
24698SOL     OW70198   1.219   7.887   7.899  0.5565 -0.2151  0.0708
24698SOL    HW170199   1.233   7.820   7.972  0.2447 -0.8586 -0.4532
24698SOL    HW270200   1.303   7.896   7.846  0.9355  0.6086  0.7929
24699SOL     OW70201   1.851   9.617   7.204 -0.3331  0.1833  0.1101
24699SOL    HW170202   1.937   9.652   7.168  0.4120  0.6650  2.2945
24699SOL    HW270203   1.777   9.638   7.139  1.1807 -0.3871 -1.8474
24700SOL     OW70204   9.526   7.398   3.187 -0.4314 -0.2718  0.2092
24700SOL    HW170205   9.461   7.350   3.128 -1.0129 -1.6964  1.9563
24700SOL    HW270206   9.483   7.482   3.221 -1.2278 -0.9716  0.9832
24701SOL     OW70207   6.691   5.486   2.502  0.9926  0.7048  0.1113
24701SOL    HW170208   6.668   5.583   2.496  2.1822  0.9723 -0.2700
24701SOL    HW270209   6.703   5.449   2.410 -0.0700  0.0394  0.2316
24702SOL     OW70210   0.887   2.043   1.913 -0.8514 -0.5481  0.1248
24702SOL    HW170211   0.856   1.989   1.835  0.0207 -1.7985  0.6309
24702SOL    HW270212   0.952   2.112   1.882 -1.6632 -0.0527 -0.4721
24703SOL     OW70213   6.106   8.111   3.501 -0.5452  0.1539  0.9177
24703SOL    HW170214   6.016   8.127   3.542 -0.9467  0.7285 -0.1949
24703SOL    HW270215   6.174   8.105   3.574 -1.1296  2.0320  1.6507
24705SOL     OW70216   0.877   4.093   1.816  0.6377 -0.0328 -0.1894
24705SOL    HW170217   0.866   4.124   1.721  0.8846 -0.4523 -0.3555
24705SOL    HW270218   0.974   4.096   1.840  0.6993 -1.0195 -0.3188
24706SOL     OW70219   3.256   7.041   5.546  0.2536  0.0956 -0.0481
24706SOL    HW170220   3.308   7.124   5.563  0.0896  0.3013 -0.5560
24706SOL    HW270221   3.273   7.008   5.453 -1.4409  0.8315 -0.6516
24707SOL     OW70222   5.259   4.987   7.506 -0.6085 -0.7094 -0.3626
24707SOL    HW170223   5.186   4.932   7.546 -0.5302 -2.1652 -2.1490
24707SOL    HW270224   5.237   5.007   7.411  2.3665 -3.2313 -1.6800
24708SOL     OW70225   2.175   5.580   5.613 -0.7173 -0.1452  0.3472
24708SOL    HW170226   2.094   5.585   5.554 -1.0819 -2.4137  0.6082
24708SOL    HW270227   2.152   5.617   5.703 -0.7823  1.3584 -0.2792
24709SOL     OW70228   3.119   0.086   6.261 -1.1789  0.3789  0.0068
24709SOL    HW170229   3.177   0.013   6.223 -1.7527  0.1356 -0.4042
24709SOL    HW270230   3.177   0.153   6.308 -0.7396 -0.8565  1.2635
24710SOL     OW70231   3.657   2.720   7.516  0.5678  0.3845 -0.6529
24710SOL    HW170232   3.606   2.803   7.540  0.6571  0.3954 -0.4979
24710SOL    HW270233   3.755   2.742   7.508  0.9792 -0.2369  2.0987
24711SOL     OW70234   1.456   4.631   3.578  0.1903  0.3019  0.9891
24711SOL    HW170235   1.368   4.606   3.619  1.1078  1.1108  3.5548
24711SOL    HW270236   1.525   4.564   3.605  0.5660  0.1839 -0.2447
24712SOL     OW70237   4.673   5.888   2.172 -0.2455  0.3899  0.0910
24712SOL    HW170238   4.625   5.802   2.152  0.1601  0.1470  0.1597
24712SOL    HW270239   4.689   5.896   2.270  1.0446 -0.1668 -0.0649
24713SOL     OW70240   1.549   3.022   7.157  0.5072 -0.2009  0.2352
24713SOL    HW170241   1.498   3.000   7.241 -1.6825  1.2056 -0.6688
24713SOL    HW270242   1.612   2.948   7.136 -0.8619 -1.8252  1.6665
24714SOL     OW70243   9.052   6.194   6.802  0.4448 -0.3974  0.0093
24714SOL    HW170244   9.089   6.224   6.891  0.0683  1.7173 -0.5043
24714SOL    HW270245   9.095   6.108   6.775  2.1373  0.0285  1.2483
24715SOL     OW70246   4.594   0.940   7.835  0.0425 -0.3930  0.1283
24715SOL    HW170247   4.550   0.897   7.913  0.5154 -1.4342 -0.1734
24715SOL    HW270248   4.692   0.920   7.837  0.4424  1.4975  0.5314
24716SOL     OW70249   3.187   1.491   5.308 -0.2166  0.3165 -0.3563
24716SOL    HW170250   3.167   1.519   5.214 -1.5369  0.9802  0.1020
24716SOL    HW270251   3.223   1.569   5.359  0.6274 -0.0785 -0.3367
24717SOL     OW70252   5.906   0.029   1.544 -0.0174 -0.2315 -0.0279
24717SOL    HW170253   6.001   0.062   1.538  0.0619 -0.3357  0.5893
24717SOL    HW270254   5.845   0.094   1.500  0.3666 -0.2656 -0.6124
24718SOL     OW70255   2.079   4.620   4.262  0.2245  0.6228  0.3027
24718SOL    HW170256   2.121   4.705   4.229  2.7180 -0.4785  0.5276
24718SOL    HW270257   2.049   4.632   4.356 -1.1407  1.8069 -0.2599
24719SOL     OW70258   6.329   3.559   2.098 -0.5106  0.0084 -0.1415
24719SOL    HW170259   6.286   3.477   2.136  1.2852 -0.3044  1.2779
24719SOL    HW270260   6.421   3.537   2.065  0.5805  1.7288  1.6121
24720SOL     OW70261   0.648   7.510   6.253 -0.1227  0.0600  0.1616
24720SOL    HW170262   0.676   7.599   6.290 -6.2572  2.9008 -1.3860
24720SOL    HW270263   0.633   7.446   6.329 -0.5598  1.9657  1.7376
24721SOL     OW70264   6.258   7.515   5.509 -0.3440  0.4903  0.1565
24721SOL    HW170265   6.252   7.426   5.554 -1.3613  0.8245  0.7101
24721SOL    HW270266   6.195   7.517   5.432 -0.3299  0.7348  0.1516
24722SOL     OW70267   4.247   1.671   6.041 -0.5965 -0.2195  0.6051
24722SOL    HW170268   4.290   1.624   6.118 -0.2098 -0.0376  0.4961
24722SOL    HW270269   4.148   1.674   6.056 -0.5862 -0.7439  0.7916
24723SOL     OW70270   7.545   6.099   6.733 -0.1437 -0.2156 -0.6720
24723SOL    HW170271   7.587   6.101   6.823  0.0618  1.4001 -0.7846
24723SOL    HW270272   7.460   6.048   6.737  0.3492 -0.9834  0.2164
24725SOL     OW70273   8.310   0.154   0.697  0.0618  0.3261 -0.2078
24725SOL    HW170274   8.363   0.208   0.762 -0.0494  0.8756 -0.5770
24725SOL    HW270275   8.366   0.078   0.664 -0.3000 -0.7161  1.4964
24727SOL     OW70276   2.708   2.208   3.889 -0.8372 -0.0589  0.0415
24727SOL    HW170277   2.717   2.306   3.908 -0.3587  0.0379 -0.7041
24727SOL    HW270278   2.795   2.162   3.908 -1.2221 -0.4445  0.9600
24728SOL     OW70279   3.064   7.614   0.738  0.2002 -0.0283 -0.0748
24728SOL    HW170280   2.972   7.636   0.704 -0.3320 -0.8550  0.7988
24728SOL    HW270281   3.132   7.668   0.688 -0.6551 -0.3604 -1.6462
24730SOL     OW70282   6.946   6.843   6.963 -0.2230  0.3707  0.0002
24730SOL    HW170283   6.951   6.752   6.922 -0.6293  0.0213  0.7038
24730SOL    HW270284   7.038   6.876   6.983 -0.0410  0.4240 -0.9225
24732SOL     OW70285   0.818   4.758   5.134  0.8073 -0.0421 -0.3891
24732SOL    HW170286   0.755   4.791   5.064  2.1706  0.7957 -1.2393
24732SOL    HW270287   0.801   4.661   5.152 -0.9532  0.2679 -0.3444
24733SOL     OW70288   0.187   6.127   7.710 -0.3085  0.1301 -0.0971
24733SOL    HW170289   0.206   6.182   7.629 -1.7222 -1.0433 -1.2430
24733SOL    HW270290   0.252   6.051   7.715  0.4715  0.8208  0.4857
24734SOL     OW70291   8.304   7.875   5.583 -0.7935 -0.0620 -0.1717
24734SOL    HW170292   8.373   7.890   5.513  0.3292 -1.1918  0.6514
24734SOL    HW270293   8.218   7.847   5.541 -0.2641 -0.2584 -1.1235
24735SOL     OW70294   1.453   4.789   6.275 -0.4224  0.2800  0.0026
24735SOL    HW170295   1.521   4.859   6.297 -2.5276  2.4362 -0.1419
24735SOL    HW270296   1.485   4.736   6.196  1.4668  0.6729  0.4735
24736SOL     OW70297   8.876   7.132   6.889 -0.1150  0.7140  0.1812
24736SOL    HW170298   8.919   7.075   6.818  0.2126  1.2696 -0.0688
24736SOL    HW270299   8.921   7.116   6.976 -0.8852 -0.3943  0.3907
24739SOL     OW70300   0.806   2.287   6.983  0.2035  0.0651 -0.0362
24739SOL    HW170301   0.847   2.353   6.920  1.4941  1.2204  1.9649
24739SOL    HW270302   0.877   2.224   7.016 -0.1630  0.3538  1.3289
24740SOL     OW70303   9.188   9.276   4.920 -0.0502 -0.4522 -0.0290
24740SOL    HW170304   9.256   9.275   4.993 -0.6284 -1.0428  0.5079
24740SOL    HW270305   9.134   9.360   4.925  0.3292 -0.1960 -0.1769
24741SOL     OW70306   7.989   6.065   1.525 -0.5386 -0.2683 -0.2755
24741SOL    HW170307   8.010   5.996   1.594  1.2246 -0.9929 -1.5309
24741SOL    HW270308   7.948   6.022   1.445  0.8529  0.1024 -1.1905
24742SOL     OW70309   7.733   1.774   3.387  0.3921 -0.7918 -0.1850
24742SOL    HW170310   7.657   1.782   3.324 -0.0329  1.6597  0.6023
24742SOL    HW270311   7.698   1.757   3.480  0.8796 -1.1275 -0.0573
24743SOL     OW70312   7.753   0.568   5.072 -0.1188  0.4623  0.1727
24743SOL    HW170313   7.777   0.483   5.118  0.4864  0.0657 -0.8520
24743SOL    HW270314   7.712   0.548   4.983  1.6048  1.2365 -0.8255
24745SOL     OW70315   4.668   7.995   0.652  0.3691  0.0158 -0.1458
24745SOL    HW170316   4.725   8.076   0.637  1.4745 -0.7852 -0.3767
24745SOL    HW270317   4.605   7.984   0.575 -0.3788  1.1283  0.2940
24746SOL     OW70318   8.023   4.928   3.329  0.8979 -0.2233 -0.8112
24746SOL    HW170319   8.079   5.011   3.337  0.6177 -0.0284 -0.8627
24746SOL    HW270320   8.083   4.848   3.329  1.1027 -0.0709  0.1583
24749SOL     OW70321   5.578   8.418   5.990 -0.1650  0.0320 -0.1313
24749SOL    HW170322   5.616   8.361   5.917 -0.8136 -1.3815  0.6129
24749SOL    HW270323   5.645   8.425   6.064  1.1619  2.8359 -1.5235
24750SOL     OW70324   7.670   5.842   5.524 -0.2461 -0.0681 -0.2728
24750SOL    HW170325   7.690   5.752   5.562  0.2409  0.7581  1.4678
24750SOL    HW270326   7.575   5.867   5.546  0.0916  0.4869  0.6029
24751SOL     OW70327   0.197   9.813   6.981  0.3528 -0.0871 -0.0768
24751SOL    HW170328   0.284   9.847   7.016  0.4291 -1.6832  1.3224
24751SOL    HW270329   0.214   9.751   6.904  0.4110  0.1000 -0.2158
24752SOL     OW70330   4.294   5.498   2.598  0.2794  0.2154 -0.0199
24752SOL    HW170331   4.325   5.546   2.680  0.3960  1.6837 -0.9073
24752SOL    HW270332   4.201   5.528   2.575 -0.9559 -2.4234  1.2824
24753SOL     OW70333   6.677   3.635   1.168 -0.2075  0.5034  0.0923
24753SOL    HW170334   6.580   3.616   1.151 -0.6342  1.6249  1.2046
24753SOL    HW270335   6.698   3.614   1.263  0.8782 -0.6507 -0.3984
24754SOL     OW70336   1.209   4.941   4.125 -1.0050 -0.1793  0.5422
24754SOL    HW170337   1.274   4.984   4.187 -0.8011  2.1114 -1.1915
24754SOL    HW270338   1.156   4.871   4.174  0.5494  0.1503  2.7378
24755SOL     OW70339   2.547   2.517   3.206  0.1206 -0.2312 -0.3121
24755SOL    HW170340   2.587   2.430   3.235 -0.2853 -0.8043 -1.4476
24755SOL    HW270341   2.503   2.561   3.285  0.1469 -1.1503  0.2232
24756SOL     OW70342   3.613   8.882   4.867  0.3370  0.0030 -0.3107
24756SOL    HW170343   3.708   8.899   4.892  0.1538  0.4851  0.0432
24756SOL    HW270344   3.569   8.967   4.840 -0.0137 -0.2092 -0.4144
24757SOL     OW70345   5.762   1.393   7.402  0.5268  0.4687 -0.2085
24757SOL    HW170346   5.795   1.301   7.377 -0.2995  0.1259 -0.0590
24757SOL    HW270347   5.777   1.455   7.325 -2.2245 -0.6440 -1.7382
24758SOL     OW70348   4.329   0.273   3.009 -0.1256 -0.2129  0.1079
24758SOL    HW170349   4.367   0.310   2.924  1.7409 -1.6535  0.2830
24758SOL    HW270350   4.375   0.317   3.087  0.3930 -1.1488  0.3345
24760SOL     OW70351   7.868   0.729   0.005 -0.0205  0.0782 -0.1152
24760SOL    HW170352   7.791   0.665   0.006 -1.0208  1.2556 -0.4047
24760SOL    HW270353   7.938   0.696  -0.058 -1.5191  0.3836 -1.9847
24761SOL     OW70354   7.856   5.994   6.748  0.1527  0.0538  0.0454
24761SOL    HW170355   7.884   6.051   6.671 -1.1357  0.0595 -0.4225
24761SOL    HW270356   7.829   6.052   6.825  0.9016  0.0504  0.3165
24763SOL     OW70357   1.843   2.641   5.768 -0.2133  0.5175 -0.2892
24763SOL    HW170358   1.810   2.604   5.681 -0.5404  0.4126 -0.1253
24763SOL    HW270359   1.805   2.732   5.783 -1.8527 -0.3050  0.7141
24764SOL     OW70360   8.833   7.529   4.939 -0.4810 -0.5448 -0.1489
24764SOL    HW170361   8.893   7.567   4.868 -0.5795 -0.0010  0.0554
24764SOL    HW270362   8.827   7.430   4.928  0.7035 -0.6401  0.0188
24767SOL     OW70363   7.085   7.906   6.949  0.0540 -0.6976 -0.0453
24767SOL    HW170364   7.156   7.964   6.908 -0.5471 -0.0524 -0.1797
24767SOL    HW270365   7.014   7.886   6.881  1.5995 -3.8773 -0.8471
24768SOL     OW70366   5.964   1.443   1.189  0.3985 -0.2875 -0.2207
24768SOL    HW170367   6.058   1.419   1.211 -0.2823 -2.9840 -0.0802
24768SOL    HW270368   5.949   1.433   1.091 -0.2541 -1.8223  0.0222
24770SOL     OW70369   8.166   9.743   1.697  0.1152  0.1627 -0.1371
24770SOL    HW170370   8.153   9.685   1.777  0.0895 -1.2147 -1.1223
24770SOL    HW270371   8.219   9.693   1.629 -2.1414  0.3029 -2.0571
24771SOL     OW70372   2.474   1.864   0.421  0.0878 -0.8761  0.5553
24771SOL    HW170373   2.387   1.846   0.467  0.5813  0.5451  2.0992
24771SOL    HW270374   2.549   1.846   0.484  0.7973  0.7138  0.1828
24772SOL     OW70375   1.678   5.445   7.907  0.0504  0.3931  0.0044
24772SOL    HW170376   1.711   5.511   7.839  0.9788  3.7323  3.5083
24772SOL    HW270377   1.585   5.469   7.935  0.3467  0.1903  1.2086
24773SOL     OW70378   8.089   2.216   3.362 -0.4010 -0.5897  0.2155
24773SOL    HW170379   8.176   2.214   3.312 -1.2048 -0.2540 -1.2173
24773SOL    HW270380   8.044   2.304   3.348 -1.4037 -1.0955  0.1801
24774SOL     OW70381   8.837   9.410   7.448  0.1706 -0.1526 -0.1204
24774SOL    HW170382   8.828   9.491   7.506 -2.8390 -0.8278  0.4227
24774SOL    HW270383   8.808   9.431   7.355 -1.0833 -0.7107  0.1360
24775SOL     OW70384   3.398   1.777   3.473 -0.3920  0.5132  0.0402
24775SOL    HW170385   3.470   1.717   3.507 -0.4904  0.9294  1.0009
24775SOL    HW270386   3.419   1.805   3.379  0.1675 -0.1942 -0.0481
24776SOL     OW70387   6.645   4.096   2.872  0.0342  0.4639 -0.1370
24776SOL    HW170388   6.681   4.041   2.947 -1.8581 -0.9907 -0.2529
24776SOL    HW270389   6.558   4.058   2.841 -0.7719  2.8640 -0.9986
24778SOL     OW70390   4.502   8.008   0.893 -0.1538 -0.3569 -0.0769
24778SOL    HW170391   4.531   8.004   0.989 -0.2061 -1.2083 -0.0954
24778SOL    HW270392   4.578   7.983   0.834 -0.6309 -1.6296 -0.1681
24779SOL     OW70393   9.543   6.131   1.186 -0.2118  0.6392 -0.1918
24779SOL    HW170394   9.560   6.220   1.228 -1.4695 -0.3023  2.3930
24779SOL    HW270395   9.445   6.117   1.175 -0.1244 -1.0611  0.9136
24780SOL     OW70396   4.748   2.606   0.737  0.1995  0.0924  0.3829
24780SOL    HW170397   4.800   2.555   0.806  0.5675  1.5154  1.1645
24780SOL    HW270398   4.663   2.558   0.717  0.9243 -1.2705  0.4882
24781SOL     OW70399   9.482   9.136   1.830 -0.3704  0.7942 -0.4679
24781SOL    HW170400   9.499   9.096   1.920 -0.6458  0.8517 -0.3916
24781SOL    HW270401   9.415   9.210   1.838 -1.3134  0.0009 -0.8932
24783SOL     OW70402   1.535   1.547   0.747  0.2093  0.0257 -0.1163
24783SOL    HW170403   1.543   1.460   0.697 -0.2514 -1.0045  1.5592
24783SOL    HW270404   1.599   1.547   0.824  0.1892  1.1755 -0.0949
24785SOL     OW70405   9.191   5.362   7.329  0.1760 -0.1406 -0.0525
24785SOL    HW170406   9.231   5.386   7.240 -1.3290 -1.9886 -1.2688
24785SOL    HW270407   9.212   5.266   7.350  0.0257  0.1161  1.3202
24786SOL     OW70408   1.513   8.881   7.636  0.0864  0.5162 -0.1114
24786SOL    HW170409   1.494   8.977   7.617 -0.1540  0.6784  0.9065
24786SOL    HW270410   1.595   8.852   7.587 -0.4958  0.9170 -1.3515
24787SOL     OW70411   1.501   6.903   6.290 -0.2307 -0.0199 -0.4062
24787SOL    HW170412   1.401   6.900   6.295 -0.1382 -0.1850  1.9839
24787SOL    HW270413   1.532   6.998   6.293 -0.3352  0.0623 -1.8016
24789SOL     OW70414   2.186   8.473   5.198  0.1086 -0.3707 -0.1125
24789SOL    HW170415   2.253   8.488   5.125 -0.8093  2.0816 -0.5109
24789SOL    HW270416   2.120   8.548   5.198 -2.6519 -2.7001  0.2676
24790SOL     OW70417   6.726   1.224   2.087  0.0889 -0.4271  0.1121
24790SOL    HW170418   6.754   1.191   2.178  1.0235 -0.9787 -0.3707
24790SOL    HW270419   6.789   1.296   2.057 -0.7825  0.4194  0.3087
24791SOL     OW70420   6.794   0.047   7.053  0.8458 -0.5767  0.3915
24791SOL    HW170421   6.871  -0.001   7.095 -0.7363 -1.6893  2.0967
24791SOL    HW270422   6.710   0.023   7.101 -0.6443  0.2317 -1.7460
24792SOL     OW70423   4.374   0.219   7.846  0.4525 -0.5399  0.5324
24792SOL    HW170424   4.287   0.219   7.797  1.5139 -1.8075 -1.4427
24792SOL    HW270425   4.431   0.144   7.813  1.8670 -0.4212  2.5960
24793SOL     OW70426   7.270   6.583   4.983 -0.5316  0.2321 -0.4037
24793SOL    HW170427   7.324   6.545   4.907  0.0974  0.8504 -0.2729
24793SOL    HW270428   7.190   6.526   4.999  0.0658 -0.6782 -0.6341
24794SOL     OW70429   8.412   5.361   2.689  0.0737  0.0743 -0.0051
24794SOL    HW170430   8.504   5.339   2.654 -0.9250 -0.1960 -2.5758
24794SOL    HW270431   8.372   5.434   2.634 -0.8660  0.8887  1.7467
24795SOL     OW70432   2.183   3.178   3.222 -0.4399  0.1097  0.4309
24795SOL    HW170433   2.105   3.219   3.269 -0.4208 -1.4271  1.8329
24795SOL    HW270434   2.237   3.250   3.178 -2.7068  1.1698 -0.6808
24796SOL     OW70435   6.665   3.075   4.095  0.2269 -0.0420 -0.3126
24796SOL    HW170436   6.660   3.131   4.012  1.8673  0.2042 -0.2652
24796SOL    HW270437   6.642   2.980   4.072 -2.4194  0.5677 -0.4160
24797SOL     OW70438   9.185   8.254   4.664  0.3806  0.3400 -0.5723
24797SOL    HW170439   9.254   8.187   4.637 -0.7118 -0.9810 -0.1906
24797SOL    HW270440   9.206   8.290   4.755  1.2260  0.8784 -0.9746
24798SOL     OW70441   9.179   2.619   6.663  0.2889 -0.1501 -0.3523
24798SOL    HW170442   9.120   2.688   6.620  0.5164 -0.6734 -1.5189
24798SOL    HW270443   9.161   2.618   6.762 -0.5602  0.7551 -0.4785
24799SOL     OW70444   2.334   7.172   1.189  0.4472  0.6074  0.1101
24799SOL    HW170445   2.428   7.136   1.185  0.4839  0.7644 -0.4106
24799SOL    HW270446   2.326   7.252   1.131 -0.1524  0.2753 -0.2748
24800SOL     OW70447   0.367   2.754   3.672 -0.2343 -0.3001  0.8827
24800SOL    HW170448   0.382   2.681   3.606 -0.4997 -0.0587  0.5580
24800SOL    HW270449   0.328   2.834   3.626 -1.1636 -0.4113  1.4572
24801SOL     OW70450   5.855   0.591   1.014 -0.1004  0.5630  0.0268
24801SOL    HW170451   5.819   0.673   1.060 -1.5197 -0.6467  1.1100
24801SOL    HW270452   5.903   0.534   1.080  0.2942  0.1827 -0.5872
24802SOL     OW70453   2.441   2.402   3.790 -0.0211 -0.1662  0.2659
24802SOL    HW170454   2.453   2.316   3.740  1.3614  0.8080 -1.1182
24802SOL    HW270455   2.529   2.449   3.797 -0.5044  0.4577  2.2838
24804SOL     OW70456   4.263   2.571   7.597  0.1505 -0.0504  0.4861
24804SOL    HW170457   4.300   2.586   7.506  1.1260 -0.9422  0.7144
24804SOL    HW270458   4.240   2.474   7.608  1.3548 -0.2136  1.6502
24805SOL     OW70459   3.579   8.953   1.184  0.2382  0.1490 -0.1325
24805SOL    HW170460   3.574   8.953   1.284 -0.0325  2.3791 -0.1419
24805SOL    HW270461   3.605   8.861   1.153  1.6013 -0.2422  2.0410
24806SOL     OW70462   9.746   1.785   6.034 -0.0578  0.7055 -0.7774
24806SOL    HW170463   9.746   1.870   6.086 -0.9637 -0.9486  2.0667
24806SOL    HW270464   9.839   1.750   6.026  0.2575  1.7160 -1.5324
24808SOL     OW70465   0.264   4.135   3.449  0.1980 -0.1992  0.0073
24808SOL    HW170466   0.220   4.191   3.378 -0.8185 -1.1678 -0.1397
24808SOL    HW270467   0.306   4.055   3.407  0.9753  0.0429  0.3147
24809SOL     OW70468   9.350   5.061   0.825  0.3118 -0.5880 -0.5037
24809SOL    HW170469   9.340   4.974   0.872 -1.2082  0.8594  1.9617
24809SOL    HW270470   9.425   5.055   0.758  1.2725 -3.2638  0.7646
24810SOL     OW70471   3.814   2.002   0.658  0.1904  0.6110 -0.5146
24810SOL    HW170472   3.868   2.076   0.620  0.4630  0.3456 -0.6409
24810SOL    HW270473   3.800   2.017   0.756  0.0619  0.9405 -0.5853
24811SOL     OW70474   7.692   4.419   1.185 -0.2266 -0.4034 -0.0092
24811SOL    HW170475   7.734   4.408   1.274 -1.1929 -0.9325  0.3873
24811SOL    HW270476   7.644   4.335   1.159  0.3077 -0.3703 -1.1617
24812SOL     OW70477   4.746   3.327   5.862 -0.2478  0.6057 -0.4654
24812SOL    HW170478   4.805   3.394   5.817  0.6742  0.0913 -0.0565
24812SOL    HW270479   4.754   3.239   5.814  0.7534  0.0527  0.7094
24813SOL     OW70480   1.643   1.382   3.930  0.1750 -0.3930  0.1435
24813SOL    HW170481   1.733   1.416   3.902 -0.2447  0.8363  0.2607
24813SOL    HW270482   1.597   1.451   3.985 -1.1135 -0.7392 -0.4773
24814SOL     OW70483   7.345   8.753   6.783 -0.5207 -0.0681  0.2156
24814SOL    HW170484   7.347   8.763   6.684  0.1544 -0.6930  0.1651
24814SOL    HW270485   7.421   8.695   6.813 -1.6246 -1.1669  0.9415
24815SOL     OW70486   5.835   0.594   5.566  0.4489  0.2731  0.3441
24815SOL    HW170487   5.785   0.592   5.479 -1.1137 -0.9033  1.2345
24815SOL    HW270488   5.923   0.549   5.555  1.7364  3.1015 -1.4685
24816SOL     OW70489   5.449   0.338   5.647 -0.1458  0.3414  0.4536
24816SOL    HW170490   5.457   0.427   5.692 -0.8786  1.7795 -2.1696
24816SOL    HW270491   5.368   0.338   5.589 -0.8618 -2.5042  1.3631
24817SOL     OW70492   9.551   5.440   0.786 -0.0668 -0.3381  0.0759
24817SOL    HW170493   9.480   5.413   0.851  1.0735 -0.4197  1.3351
24817SOL    HW270494   9.582   5.533   0.808  0.2087 -0.3033 -0.4509
24818SOL     OW70495   3.797   5.344   0.272 -0.2099  0.1879 -0.1618
24818SOL    HW170496   3.764   5.376   0.183 -0.0849  2.8756  0.7180
24818SOL    HW270497   3.723   5.296   0.319 -1.0922  1.0976 -0.6015
24819SOL     OW70498   2.595   5.974   7.076 -0.0862  0.2828  0.3213
24819SOL    HW170499   2.648   5.890   7.081 -2.2673 -1.0565  1.4100
24819SOL    HW270500   2.644   6.041   7.019  2.3657 -1.1640  0.6700
24821SOL     OW70501   3.801   0.378   5.524  0.1673  0.0314 -0.3256
24821SOL    HW170502   3.704   0.381   5.546  0.2447  1.6091 -0.1540
24821SOL    HW270503   3.820   0.298   5.467 -1.2741 -0.1424 -0.5704
24822SOL     OW70504   8.457   0.991   1.432  0.2083 -0.1312  0.8472
24822SOL    HW170505   8.419   0.952   1.516 -0.7616  1.6147  1.2440
24822SOL    HW270506   8.556   0.999   1.442  0.3270 -1.6551  1.0835
24823SOL     OW70507   6.422   8.333   3.333 -0.1846  0.3552  0.1106
24823SOL    HW170508   6.422   8.424   3.374 -0.7782  0.1036  0.6828
24823SOL    HW270509   6.415   8.264   3.405 -1.7067 -0.0797 -0.4278
24824SOL     OW70510   6.787   8.404   4.386 -0.7477 -0.8688 -0.4011
24824SOL    HW170511   6.691   8.427   4.375 -0.6714 -0.6995 -0.7213
24824SOL    HW270512   6.796   8.319   4.438 -1.0512 -0.5642  0.1456
24825SOL     OW70513   2.307   8.067   6.434 -1.0747  0.1089 -0.1374
24825SOL    HW170514   2.306   7.974   6.473 -0.5410 -0.4662 -1.4581
24825SOL    HW270515   2.288   8.133   6.506 -2.4302 -1.0889  0.6360
24826SOL     OW70516   3.244   6.732   2.549  0.4088  0.1172 -0.0906
24826SOL    HW170517   3.275   6.756   2.457  0.3410  2.5755  0.4933
24826SOL    HW270518   3.295   6.785   2.617 -0.8884 -0.2053  1.1697
24827SOL     OW70519   8.484   7.320   5.978 -0.2880  0.0974  0.1840
24827SOL    HW170520   8.456   7.228   5.951 -0.4900  0.4249 -0.7357
24827SOL    HW270521   8.446   7.387   5.914  1.6800  0.6418 -0.4514
24828SOL     OW70522   8.954   6.698   1.223 -0.1763  0.1709 -0.1628
24828SOL    HW170523   8.926   6.788   1.189  0.8317  0.3248 -0.6072
24828SOL    HW270524   8.905   6.678   1.308 -0.8324  0.8892 -0.3628
24829SOL     OW70525   1.886   5.631   1.328 -0.4139 -0.0625 -0.2089
24829SOL    HW170526   1.795   5.629   1.287 -0.0857  1.7153 -1.0453
24829SOL    HW270527   1.948   5.681   1.268  1.1380 -1.3050  0.3351
24830SOL     OW70528   0.593   2.633   5.720 -0.2992 -0.2742 -0.0995
24830SOL    HW170529   0.670   2.679   5.676 -1.0869 -0.0486 -1.2763
24830SOL    HW270530   0.544   2.578   5.652 -0.8158 -0.8858  0.7657
24831SOL     OW70531   4.152   4.204   3.649 -0.5575  0.4756  0.3126
24831SOL    HW170532   4.153   4.104   3.650  3.0657  0.4430  1.7298
24831SOL    HW270533   4.124   4.237   3.558  0.9942 -1.8752 -1.0694
24832SOL     OW70534   0.447   7.507   4.199  0.2074  0.7260  0.3523
24832SOL    HW170535   0.501   7.555   4.131  1.1242 -0.5563  0.1568
24832SOL    HW270536   0.357   7.550   4.207  0.7016  1.9211 -0.4344
24833SOL     OW70537   0.428   0.043   4.256  0.0498  0.4416 -0.2516
24833SOL    HW170538   0.423  -0.052   4.226 -0.9919  0.8148 -1.2637
24833SOL    HW270539   0.520   0.060   4.294  0.5037 -0.7357 -0.7721
24834SOL     OW70540   2.490   1.874   7.877 -0.6116 -0.2714 -0.1575
24834SOL    HW170541   2.501   1.920   7.965  0.8301 -0.2992 -0.3246
24834SOL    HW270542   2.420   1.921   7.823 -0.9530  0.1932  0.6892
24835SOL     OW70543   2.374   4.030   2.124  0.3765  0.5109 -0.3564
24835SOL    HW170544   2.403   4.115   2.169 -2.0168  1.4738 -0.5644
24835SOL    HW270545   2.280   4.010   2.149  0.2277 -0.9578 -2.0143
24836SOL     OW70546   5.099   4.470   1.110 -0.1840 -0.3390  0.0130
24836SOL    HW170547   5.132   4.561   1.085 -2.3899  0.2437 -0.8607
24836SOL    HW270548   5.175   4.405   1.107  1.3657  1.4261  0.4634
24837SOL     OW70549   3.836   8.441   4.504  0.4341 -0.1667 -0.4828
24837SOL    HW170550   3.824   8.488   4.416 -0.4106 -0.6885 -0.6538
24837SOL    HW270551   3.909   8.373   4.495  0.9626  0.3997 -0.5224
24839SOL     OW70552   3.072   1.123   6.365  0.8251 -0.7698 -0.2883
24839SOL    HW170553   2.982   1.081   6.379  0.4448 -0.0169 -0.4095
24839SOL    HW270554   3.130   1.106   6.444 -0.2031  0.6842  0.8027
24840SOL     OW70555   1.856   5.826   4.476  0.3441 -0.1296 -0.0288
24840SOL    HW170556   1.931   5.762   4.494 -1.3029 -2.3004 -0.7694
24840SOL    HW270557   1.803   5.840   4.559 -0.1993 -0.9118 -0.2433
24844SOL     OW70558   0.059   9.498   5.198 -0.4912 -0.0326 -0.3148
24844SOL    HW170559   0.097   9.424   5.254 -2.0154  0.1161  0.9545
24844SOL    HW270560   0.067   9.585   5.247  1.0677  0.6122 -1.6959
24845SOL     OW70561   6.876   7.990   6.398 -0.1290  0.2291  0.3643
24845SOL    HW170562   6.830   7.991   6.309  0.4694 -1.8829  0.0190
24845SOL    HW270563   6.820   7.942   6.465 -0.2039  1.0956  0.9296
24846SOL     OW70564   9.831   3.637   2.839 -0.4581 -0.0617 -0.3517
24846SOL    HW170565   9.740   3.596   2.833  0.3769 -1.9340 -0.7496
24846SOL    HW270566   9.899   3.569   2.812  1.1089  1.1064  0.5832
24847SOL     OW70567   9.216   0.954   1.055  0.3608  0.4231 -0.2601
24847SOL    HW170568   9.246   0.993   0.968  1.5948 -1.0218 -0.5073
24847SOL    HW270569   9.277   0.879   1.081 -0.1233  0.6927  1.7524
24848SOL     OW70570   8.872   9.216   3.806 -0.3071  0.2465 -0.0179
24848SOL    HW170571   8.929   9.261   3.875  3.8960  0.5300 -3.5118
24848SOL    HW270572   8.813   9.283   3.761  1.7282  1.2642 -1.2052
24850SOL     OW70573   3.053   2.291   1.036 -0.7796  0.4397 -0.3269
24850SOL    HW170574   2.968   2.307   0.986 -1.8562 -0.4055  1.1817
24850SOL    HW270575   3.036   2.305   1.134  0.6454 -0.4331  0.0485
24851SOL     OW70576   3.064   0.119   3.637  0.1335 -0.1456  0.1510
24851SOL    HW170577   3.006   0.200   3.625  0.2777  0.1330  1.3103
24851SOL    HW270578   3.013   0.038   3.607 -0.6120  0.1776  0.5219
24853SOL     OW70579   1.004   7.720   6.822  0.2486 -0.8296  0.6383
24853SOL    HW170580   1.075   7.789   6.805  1.7903 -1.6049  3.6906
24853SOL    HW270581   1.040   7.629   6.801 -0.9913 -0.9464 -1.0581
24854SOL     OW70582   7.244   6.953   6.978  0.1812 -0.5197 -0.1819
24854SOL    HW170583   7.227   7.038   6.928  0.5596 -0.2833  0.0922
24854SOL    HW270584   7.318   6.967   7.043 -0.7762 -0.6187  0.9517
24855SOL     OW70585   6.334   9.316   4.693  0.6502 -0.2740 -0.2092
24855SOL    HW170586   6.240   9.342   4.715  1.0047  0.3848  0.5683
24855SOL    HW270587   6.379   9.391   4.644  1.0411 -0.2188  0.2229
24856SOL     OW70588   0.026   3.365   5.348  0.0405  0.0519  0.0402
24856SOL    HW170589   0.038   3.386   5.251  0.0808 -0.3257 -0.0387
24856SOL    HW270590  -0.069   3.339   5.365 -0.3651  1.7592  0.4219
24860SOL     OW70591   5.147   8.267   5.649 -0.0432  0.1085  0.5413
24860SOL    HW170592   5.237   8.242   5.612 -0.1976 -0.5912  0.6256
24860SOL    HW270593   5.149   8.363   5.679  0.7847 -0.0041  0.8820
24861SOL     OW70594   5.445   8.339   2.113 -0.8724 -0.0994  0.2213
24861SOL    HW170595   5.478   8.349   2.207  1.6861  2.2296 -0.8382
24861SOL    HW270596   5.419   8.429   2.077 -1.0206 -0.8246 -1.5432
24863SOL     OW70597   4.585   9.448   5.144  1.1578  0.8672  0.1821
24863SOL    HW170598   4.578   9.524   5.209  2.8865 -0.0703  1.5022
24863SOL    HW270599   4.652   9.382   5.177  0.5621 -0.6512 -1.5614
24864SOL     OW70600   9.050   6.226   4.134 -0.0466  0.0494  0.4670
24864SOL    HW170601   9.008   6.159   4.196 -2.1689  0.8252 -0.1135
24864SOL    HW270602   9.119   6.180   4.078  0.2078 -1.1494  1.7175
24866SOL     OW70603   8.798   9.153   2.493 -0.5549 -0.3476  0.1801
24866SOL    HW170604   8.806   9.226   2.425  1.7304  1.1419  1.9615
24866SOL    HW270605   8.718   9.097   2.473 -2.7499  3.0228 -0.8794
24867SOL     OW70606   9.062   7.719   6.756  0.6370 -0.0675  0.2832
24867SOL    HW170607   8.962   7.724   6.751  0.6752  1.4026  0.7894
24867SOL    HW270608   9.102   7.799   6.713  1.6261 -0.9582 -0.4724
24868SOL     OW70609   7.366   8.298   7.044  0.2679  0.6643 -0.2770
24868SOL    HW170610   7.339   8.228   6.978  0.2939  1.2763 -0.9460
24868SOL    HW270611   7.466   8.305   7.045  0.2592  0.7956 -0.3189
24869SOL     OW70612   7.171   1.553   1.241 -0.1088  0.0304  0.0262
24869SOL    HW170613   7.236   1.608   1.190  0.3868  2.2654  2.9449
24869SOL    HW270614   7.096   1.611   1.274 -2.0119 -1.9334 -0.7085
24871SOL     OW70615   1.674   2.473   0.848  0.1885 -0.0253 -0.4236
24871SOL    HW170616   1.610   2.399   0.871  1.4005 -0.7163  0.7741
24871SOL    HW270617   1.695   2.526   0.931 -0.2049  1.3093 -1.1562
24873SOL     OW70618   0.809   6.971   0.637 -0.5105 -0.9083 -0.2244
24873SOL    HW170619   0.856   6.884   0.622 -0.4024 -1.0783  1.0289
24873SOL    HW270620   0.871   7.034   0.684 -0.4004  0.0413 -1.6274
24874SOL     OW70621   4.458   3.238   5.342 -0.2198 -0.0488  0.2882
24874SOL    HW170622   4.468   3.276   5.251 -0.7660 -1.5275 -0.4039
24874SOL    HW270623   4.545   3.200   5.373  0.3098  1.6691  0.9541
24875SOL     OW70624   9.677   2.756   0.183 -0.0570  0.4384 -0.5580
24875SOL    HW170625   9.771   2.723   0.173  0.2212  1.0129  0.1226
24875SOL    HW270626   9.657   2.821   0.110 -0.0825 -0.0231 -0.9684
24876SOL     OW70627   4.751   0.445   6.039 -0.1568  0.1184  0.3384
24876SOL    HW170628   4.826   0.510   6.049  1.2344 -1.4459  0.3814
24876SOL    HW270629   4.727   0.407   6.128 -0.4431  0.0001  0.2122
24877SOL     OW70630   3.432   4.828   2.891 -0.0850 -0.1712  0.2534
24877SOL    HW170631   3.481   4.906   2.853 -0.0794 -0.6142 -0.6514
24877SOL    HW270632   3.387   4.855   2.976 -1.1498  1.1644 -0.7180
24879SOL     OW70633   0.911   4.416   5.055 -0.0908 -0.0866 -0.7647
24879SOL    HW170634   0.913   4.396   4.957  0.9850 -1.6862 -0.4285
24879SOL    HW270635   1.002   4.402   5.093 -0.4460  0.8122  0.4121
24880SOL     OW70636   8.100   0.851   1.738 -0.7090  0.5139  0.1832
24880SOL    HW170637   8.085   0.783   1.665 -0.4928 -0.3214  0.9088
24880SOL    HW270638   8.052   0.822   1.821 -0.7418  1.3353  0.4559
24881SOL     OW70639   6.953   2.390   4.601  0.0579  0.2418  0.4467
24881SOL    HW170640   6.950   2.447   4.684  0.0175  0.5532  0.2321
24881SOL    HW270641   6.870   2.334   4.596  0.1706  0.0490  0.7396
24882SOL     OW70642   8.194   3.178   3.638 -0.6442  0.1993  0.3748
24882SOL    HW170643   8.198   3.222   3.548 -1.2156  1.4773  0.9562
24882SOL    HW270644   8.150   3.088   3.629 -1.7566  0.8091 -0.4535
24884SOL     OW70645   0.305   4.909   1.279 -0.1698  0.1802  0.1885
24884SOL    HW170646   0.341   4.858   1.201 -0.2117  0.0654  0.2433
24884SOL    HW270647   0.266   4.845   1.345  1.3927  0.1343  1.1064
24886SOL     OW70648   2.725   6.559   6.341 -0.0347 -0.1221  0.6943
24886SOL    HW170649   2.665   6.622   6.390  1.6204  2.6859 -0.7919
24886SOL    HW270650   2.820   6.583   6.357  0.5764 -0.5395 -2.0635
24889SOL     OW70651   1.824   4.142   0.896  0.0646 -0.2370 -0.1583
24889SOL    HW170652   1.760   4.085   0.949  0.8103 -0.8147  0.1281
24889SOL    HW270653   1.878   4.198   0.959 -0.3053  0.4060 -0.4123
24892SOL     OW70654   4.517   4.189   1.916 -0.5276  0.6840  0.1707
24892SOL    HW170655   4.447   4.198   1.987 -1.3619  1.2853 -0.7108
24892SOL    HW270656   4.587   4.259   1.929 -1.4010  1.6848 -0.3855
24893SOL     OW70657   4.003   1.324   4.462  0.8968  0.3032 -0.5347
24893SOL    HW170658   3.972   1.357   4.373 -0.3206  1.9791  0.4883
24893SOL    HW270659   3.932   1.341   4.530  0.5119 -3.7080  0.2183
24894SOL     OW70660   3.115   5.642   1.144 -0.6600 -0.1426 -1.1796
24894SOL    HW170661   3.204   5.625   1.186 -0.8574  0.6748 -0.3990
24894SOL    HW270662   3.121   5.627   1.045  0.3775  0.0216 -1.1481
24895SOL     OW70663   4.920   9.431   2.324  0.1183  0.0706 -0.3911
24895SOL    HW170664   4.857   9.475   2.261 -2.0624 -1.6714  0.5085
24895SOL    HW270665   4.956   9.499   2.388 -2.8683  0.6549  0.7288
24898SOL     OW70666   9.692   3.340   5.686 -0.0065 -0.2839 -0.4207
24898SOL    HW170667   9.705   3.245   5.713 -0.5634 -0.2561 -0.0556
24898SOL    HW270668   9.595   3.362   5.685  0.2436  1.3381  3.2318
24899SOL     OW70669   9.720   0.104   1.617  0.6313 -0.5762 -0.0640
24899SOL    HW170670   9.696   0.188   1.569 -0.0963 -1.6549 -1.6230
24899SOL    HW270671   9.760   0.126   1.706  1.2944  1.4211 -0.8567
24900SOL     OW70672   6.612   7.418   4.808 -0.1484 -0.3512  0.3428
24900SOL    HW170673   6.563   7.436   4.723 -0.9476  0.1756  0.9107
24900SOL    HW270674   6.638   7.505   4.851 -0.2892 -0.6058  0.9487
24902SOL     OW70675   2.443   2.180   3.609  0.0326  0.1817  0.3725
24902SOL    HW170676   2.354   2.196   3.567  0.7657 -0.7760 -1.6328
24902SOL    HW270677   2.457   2.082   3.621  1.3700  0.2260 -0.6525
24903SOL     OW70678   8.183   2.913   7.675  0.1490 -0.6373  0.1937
24903SOL    HW170679   8.181   2.968   7.759  0.4666  0.6786 -0.6435
24903SOL    HW270680   8.102   2.855   7.671 -0.7361  0.5522  0.5846
24905SOL     OW70681   1.565   7.804   1.890  0.8147 -0.5893 -0.0048
24905SOL    HW170682   1.606   7.836   1.805 -1.8121  0.4671 -0.9223
24905SOL    HW270683   1.531   7.711   1.878 -0.1312 -0.2078 -0.3306
24906SOL     OW70684   2.743   0.779   1.252 -0.6145  0.7856  0.2036
24906SOL    HW170685   2.742   0.773   1.351 -2.0558  0.4000  0.1734
24906SOL    HW270686   2.650   0.768   1.216 -0.0027  0.0478 -1.2327
24907SOL     OW70687   2.998   5.917   3.954 -0.2852  0.0994 -0.0590
24907SOL    HW170688   2.964   5.823   3.950 -0.3281  0.0907  0.4681
24907SOL    HW270689   3.039   5.941   3.866  1.2880 -1.0123  0.3448
24908SOL     OW70690   9.192   6.447   5.702 -0.6516 -0.0428  0.4269
24908SOL    HW170691   9.153   6.362   5.735 -0.2845 -0.5409 -0.3937
24908SOL    HW270692   9.165   6.461   5.607 -1.5206  1.2593  0.8622
24910SOL     OW70693   8.694   0.227   1.107  0.3513 -0.2048 -0.0161
24910SOL    HW170694   8.686   0.159   1.180 -2.8087 -1.1561 -1.1684
24910SOL    HW270695   8.669   0.185   1.019 -0.6044  2.1536 -0.9208
24911SOL     OW70696   0.511   2.640   3.976  0.0539  0.5420  0.4795
24911SOL    HW170697   0.503   2.601   3.884 -1.1523  0.7976  0.4705
24911SOL    HW270698   0.557   2.574   4.036 -2.6722 -1.2660  0.6645
24912SOL     OW70699   7.040   8.062   3.882  0.1136 -0.2490 -0.3222
24912SOL    HW170700   6.973   8.135   3.870 -2.6698 -2.1748  2.5187
24912SOL    HW270701   7.088   8.045   3.796 -2.4863  1.7180 -2.2285
24915SOL     OW70702   8.394   0.061   3.418 -0.0054  0.2129  0.5990
24915SOL    HW170703   8.335   0.134   3.382  0.4120 -0.0890 -0.7171
24915SOL    HW270704   8.471   0.102   3.466 -1.0754  0.6135  2.0032
24916SOL     OW70705   4.906   1.510   4.904 -0.3096 -0.0205  0.3063
24916SOL    HW170706   4.984   1.465   4.861 -1.6885 -0.3756 -1.8922
24916SOL    HW270707   4.894   1.475   4.997 -1.3219 -4.2418 -1.3080
24917SOL     OW70708   9.865   0.876   3.630  0.3848  0.1788  0.3114
24917SOL    HW170709   9.940   0.885   3.695  0.8356  1.3503 -0.3615
24917SOL    HW270710   9.862   0.782   3.595  3.0992  0.7141 -1.5149
24918SOL     OW70711   0.035   0.893   5.636  0.0086  0.1894 -0.2787
24918SOL    HW170712   0.019   0.927   5.543  0.6033  1.1803 -0.0361
24918SOL    HW270713   0.075   0.967   5.691 -1.0761 -0.1497  0.9773
24920SOL     OW70714   1.352   5.036   3.565  0.0597 -0.0878  0.5416
24920SOL    HW170715   1.411   4.961   3.595  0.1408 -0.5168 -0.6797
24920SOL    HW270716   1.405   5.120   3.558  0.2587 -0.2050  0.6414
24921SOL     OW70717   3.169   6.119   0.146  0.1653 -0.1194 -0.2024
24921SOL    HW170718   3.190   6.056   0.222 -1.8075 -1.4148 -0.6764
24921SOL    HW270719   3.248   6.125   0.085  1.6099  0.5773  1.6982
24922SOL     OW70720   3.237   5.598   7.862 -0.1317  0.0037  0.3227
24922SOL    HW170721   3.162   5.664   7.864  0.7539  1.0385 -0.1116
24922SOL    HW270722   3.235   5.543   7.945 -1.0030  0.4376  0.6004
24923SOL     OW70723   0.788   3.087   7.901 -0.4074 -0.6054 -0.3245
24923SOL    HW170724   0.778   3.055   7.995  0.2904  0.2476  0.0520
24923SOL    HW270725   0.885   3.098   7.879 -0.6117  1.1420 -0.4579
24924SOL     OW70726   3.355   6.812   6.325 -0.3954 -0.2576  0.7434
24924SOL    HW170727   3.340   6.793   6.228 -0.3708  1.3892  0.4090
24924SOL    HW270728   3.450   6.792   6.348  0.2427  1.6876 -0.1485
24925SOL     OW70729   6.914   6.170   2.020  0.5607  0.2122  0.0196
24925SOL    HW170730   6.950   6.217   1.939 -1.2877  1.0165 -0.3544
24925SOL    HW270731   6.873   6.237   2.082  1.6154 -0.4515  1.4551
24926SOL     OW70732   8.949   3.837   7.044 -0.1866 -0.3216  0.1075
24926SOL    HW170733   8.918   3.926   7.010 -0.1632 -0.4364 -0.2170
24926SOL    HW270734   8.982   3.782   6.967 -2.1260 -1.3938  0.0222
24928SOL     OW70735   5.132   9.410   4.744  0.2096 -0.3940 -0.2737
24928SOL    HW170736   5.203   9.354   4.787  0.0228 -0.7703 -0.4596
24928SOL    HW270737   5.046   9.399   4.794 -0.2416 -1.5399 -1.2852
24930SOL     OW70738   3.656   6.244   5.157 -0.7084  0.2483  0.2094
24930SOL    HW170739   3.694   6.152   5.151 -0.4331  0.3741  0.0371
24930SOL    HW270740   3.709   6.306   5.100 -0.3078  0.7016  1.0650
24932SOL     OW70741   1.047   3.082   0.838  0.2151 -0.8019  0.2605
24932SOL    HW170742   1.081   3.045   0.752  1.3310  2.7624 -0.9106
24932SOL    HW270743   0.948   3.090   0.834  0.2532 -0.7288 -0.6901
24933SOL     OW70744   9.450   2.645   5.861 -0.2793 -0.4471 -0.5852
24933SOL    HW170745   9.500   2.559   5.850 -1.1314 -1.2243  1.4838
24933SOL    HW270746   9.435   2.663   5.958 -0.7080  1.7075 -1.0266
24934SOL     OW70747   2.061   2.940   5.092  0.1520  0.0114 -0.1622
24934SOL    HW170748   2.125   2.971   5.021  3.4442 -1.7278  1.9099
24934SOL    HW270749   2.077   2.992   5.176 -1.0814 -0.5496  0.4270
24935SOL     OW70750   3.905   9.410   0.560 -0.1817  0.8031 -0.4809
24935SOL    HW170751   3.860   9.464   0.489  1.1597  2.5798 -0.0047
24935SOL    HW270752   4.004   9.425   0.556  0.0348 -0.1734  0.8681
24936SOL     OW70753   4.365   8.505   5.373  0.8590  0.2097 -0.2529
24936SOL    HW170754   4.330   8.411   5.376  2.2897 -0.3311 -0.5960
24936SOL    HW270755   4.408   8.522   5.285  3.9485 -0.0378  1.1569
24937SOL     OW70756   0.084   6.204   2.860  0.6520  0.2840  0.0855
24937SOL    HW170757   0.001   6.208   2.914 -1.6618 -0.8717 -3.1904
24937SOL    HW270758   0.126   6.294   2.855 -0.2552  0.8191  1.9751
24938SOL     OW70759   7.978   5.807   7.733 -0.1553  0.2315 -0.2851
24938SOL    HW170760   8.037   5.888   7.739 -1.5653  1.3466 -0.9223
24938SOL    HW270761   8.032   5.725   7.747  1.5597  1.2156 -0.9756
24939SOL     OW70762   3.275   3.314   6.985 -0.0392 -0.1360  0.1477
24939SOL    HW170763   3.285   3.282   6.890 -0.8754  0.1879 -0.0534
24939SOL    HW270764   3.302   3.410   6.990  0.7319 -0.3628  0.3922
24941SOL     OW70765   7.109   5.292   7.456 -0.1372 -0.3913 -0.4153
24941SOL    HW170766   7.107   5.223   7.527  0.9073 -2.0080 -1.9073
24941SOL    HW270767   7.063   5.257   7.374  0.2616  0.7302 -1.1295
24942SOL     OW70768   5.301   1.673   6.475 -0.0326 -0.1858 -0.0571
24942SOL    HW170769   5.258   1.757   6.443 -1.6973 -0.9240  0.2008
24942SOL    HW270770   5.313   1.677   6.575 -0.4663 -0.4180  0.0033
24943SOL     OW70771   3.182   8.066   4.596 -0.6316  0.5108 -0.1407
24943SOL    HW170772   3.238   8.149   4.597 -0.2099  0.2631 -1.6658
24943SOL    HW270773   3.085   8.092   4.589 -0.6274  0.9081  1.2439
24944SOL     OW70774   7.025   3.373   2.593 -0.4897 -0.1357  0.3425
24944SOL    HW170775   6.941   3.333   2.556  0.6636 -2.9220  0.6435
24944SOL    HW270776   7.071   3.427   2.521 -2.2376  0.9892  0.0356
24945SOL     OW70777   4.283   4.883   7.294  0.1342  0.0283  0.1080
24945SOL    HW170778   4.213   4.899   7.363  1.0313 -0.2473  1.0956
24945SOL    HW270779   4.256   4.806   7.236  0.4155 -1.1660  1.5525
24946SOL     OW70780   1.793   0.140   6.561 -0.1559 -0.3211  0.0430
24946SOL    HW170781   1.731   0.133   6.639 -0.2592  0.7097  0.0667
24946SOL    HW270782   1.851   0.059   6.556  0.4338 -0.0099  1.6758
24947SOL     OW70783   8.778   8.841   4.824  0.1781  0.0877  0.0230
24947SOL    HW170784   8.844   8.790   4.768  0.2585  0.1145  0.0918
24947SOL    HW270785   8.686   8.808   4.804  0.2338 -0.1160  0.1020
24948SOL     OW70786   4.783   0.184   6.982  0.4077  0.2586 -0.2483
24948SOL    HW170787   4.827   0.269   7.012  1.3214 -0.1616 -0.3960
24948SOL    HW270788   4.753   0.195   6.887 -0.4496  0.7929  0.0789
24949SOL     OW70789   7.645   0.302   2.566  0.4126 -0.9372 -0.3593
24949SOL    HW170790   7.660   0.324   2.470 -1.8024 -1.4554 -0.8449
24949SOL    HW270791   7.552   0.327   2.593  0.7899 -1.3990  1.4714
24950SOL     OW70792   9.197   4.715   0.683 -0.4398  0.5520 -0.1893
24950SOL    HW170793   9.209   4.782   0.610 -1.1312 -0.4868 -1.2622
24950SOL    HW270794   9.232   4.627   0.653 -1.1726  0.0018  0.5561
24951SOL     OW70795   6.685   4.643   2.806  0.5718 -0.0138 -0.4340
24951SOL    HW170796   6.650   4.549   2.804 -0.8042  0.3219  3.3905
24951SOL    HW270797   6.758   4.650   2.873  1.0631  1.5471 -1.1158
24952SOL     OW70798   0.062   4.626   4.062  0.3987  0.0225  0.1611
24952SOL    HW170799   0.134   4.599   3.998  1.7551 -1.1937  2.1391
24952SOL    HW270800  -0.026   4.595   4.027  0.7580  1.6603 -2.3657
24953SOL     OW70801   1.750   0.687   6.291 -0.0128  0.1799 -0.2000
24953SOL    HW170802   1.720   0.659   6.383 -1.9997  1.4096 -0.4529
24953SOL    HW270803   1.693   0.641   6.223  1.3369 -0.5788 -0.8248
24954SOL     OW70804   0.119   1.878   2.508 -0.0639 -0.4213  0.5327
24954SOL    HW170805   0.213   1.903   2.531 -0.9329  1.4733  2.1977
24954SOL    HW270806   0.059   1.901   2.585 -1.8948 -1.6290 -0.4965
24955SOL     OW70807   1.512   1.720   2.031  0.4884 -0.2378 -0.3928
24955SOL    HW170808   1.549   1.798   1.980  2.9091 -1.0855  0.0299
24955SOL    HW270809   1.486   1.648   1.967  0.7059 -0.1186 -0.6153
24956SOL     OW70810   8.013   8.553   1.144  0.3498 -0.2376  0.2322
24956SOL    HW170811   8.084   8.623   1.156  0.1488 -0.1495  0.9752
24956SOL    HW270812   7.923   8.594   1.159  0.2368 -0.6629  0.7308
24957SOL     OW70813   2.398   1.799   4.758 -1.1066  0.0928 -0.1742
24957SOL    HW170814   2.407   1.898   4.747 -2.7701  0.3902  1.0663
24957SOL    HW270815   2.347   1.762   4.680  1.5403 -0.1667 -1.8731
24960SOL     OW70816   6.315   1.143   1.257  0.1133 -0.5727  0.2582
24960SOL    HW170817   6.330   1.104   1.348  0.3798 -0.8409  0.1023
24960SOL    HW270818   6.399   1.138   1.205  0.8349  2.4752  1.0585
24962SOL     OW70819   2.424   2.503   0.568 -0.1341 -0.0510  0.6051
24962SOL    HW170820   2.362   2.550   0.631  0.4980  0.7051  0.6745
24962SOL    HW270821   2.480   2.570   0.520 -0.9980 -0.5893 -1.1962
24963SOL     OW70822   4.813   0.819   1.105 -0.2991 -0.0708  0.6141
24963SOL    HW170823   4.883   0.890   1.098 -0.0886 -0.4428 -1.3830
24963SOL    HW270824   4.816   0.761   1.023 -1.0073 -1.8806  1.8361
24965SOL     OW70825   0.888   9.622   1.649 -0.3247 -0.3100  0.7544
24965SOL    HW170826   0.932   9.576   1.726 -0.5045  1.3976  1.9045
24965SOL    HW270827   0.888   9.721   1.666 -0.1345  0.0999 -1.5646
24966SOL     OW70828   1.531   8.662   5.184 -0.7604  0.4717 -0.3421
24966SOL    HW170829   1.555   8.565   5.182 -0.0182  0.6023  1.2489
24966SOL    HW270830   1.432   8.672   5.184 -0.8594 -0.3448  0.7766
24967SOL     OW70831   9.074   8.492   6.376 -0.7304 -0.3601  0.0107
24967SOL    HW170832   9.034   8.542   6.453  4.7022  2.4795  1.2690
24967SOL    HW270833   9.068   8.547   6.293 -0.9774 -0.6828 -0.1858
24968SOL     OW70834   8.629   0.289   6.180  0.3189 -0.1592  0.3185
24968SOL    HW170835   8.572   0.349   6.124 -0.0786 -0.4327  0.4295
24968SOL    HW270836   8.574   0.250   6.253  1.0784  0.9992  1.5316
24969SOL     OW70837   2.007   3.735   2.781  0.3159  0.5545  0.2626
24969SOL    HW170838   1.990   3.815   2.839 -2.7807  0.5830 -0.5695
24969SOL    HW270839   2.019   3.764   2.686  0.6932  0.1368  0.1808
24970SOL     OW70840   9.439   9.589   4.261  0.2132 -0.2301  0.6237
24970SOL    HW170841   9.509   9.639   4.312  0.0371  1.0354 -0.3415
24970SOL    HW270842   9.431   9.628   4.169 -1.6725 -0.4459  0.6820
24971SOL     OW70843   7.252   2.484   2.823 -0.4178 -0.0175  0.4257
24971SOL    HW170844   7.219   2.461   2.915  1.7220  1.3596  1.5911
24971SOL    HW270845   7.243   2.583   2.808 -0.0692 -0.1288 -0.5462
24972SOL     OW70846   8.232   1.060   4.498  0.4177 -0.4169 -0.3191
24972SOL    HW170847   8.134   1.080   4.498  0.6220  0.6120 -1.2448
24972SOL    HW270848   8.282   1.138   4.461  1.7140 -0.3981  1.4482
24973SOL     OW70849   3.500   0.136   2.804 -0.0369 -0.1644  0.0325
24973SOL    HW170850   3.438   0.093   2.738 -0.5555 -1.9990  1.6651
24973SOL    HW270851   3.496   0.086   2.891  0.5667  2.2620  1.4917
24976SOL     OW70852   1.681   9.655   5.042 -0.5644 -0.1326  0.5650
24976SOL    HW170853   1.717   9.580   4.987 -0.7664 -0.0135  0.2621
24976SOL    HW270854   1.755   9.697   5.095  0.2856  1.7645 -1.9974
24977SOL     OW70855   2.842   2.478   0.235 -0.3879  0.1388  0.0638
24977SOL    HW170856   2.748   2.493   0.206 -0.4955 -1.4271 -0.4156
24977SOL    HW270857   2.843   2.454   0.332 -0.3610  1.4516  0.3981
24978SOL     OW70858   2.752   9.320   6.041 -0.0018  0.0135 -0.3478
24978SOL    HW170859   2.727   9.244   5.981  0.0442  0.5245 -1.0289
24978SOL    HW270860   2.851   9.332   6.041 -0.2223  3.0616 -4.0722
24979SOL     OW70861   3.255   0.999   2.066  0.1514  0.5213  0.3364
24979SOL    HW170862   3.350   1.028   2.075  0.5028 -0.5513  0.1262
24979SOL    HW270863   3.197   1.054   2.126  0.9201  1.0783  0.5706
24980SOL     OW70864   9.783   8.026   3.814 -0.2617 -0.0085  0.5920
24980SOL    HW170865   9.869   8.014   3.863 -1.4395 -0.4228  2.6169
24980SOL    HW270866   9.725   8.090   3.864 -2.0290 -1.4680  0.4626
24982SOL     OW70867   7.838   3.036   4.780  0.1067 -0.4253 -0.0454
24982SOL    HW170868   7.925   3.081   4.758  0.4941 -1.1635 -0.0378
24982SOL    HW270869   7.764   3.082   4.730  0.1895  1.5429  1.5650
24983SOL     OW70870   2.144   5.160   4.040 -0.7836 -0.1065 -0.1423
24983SOL    HW170871   2.119   5.220   3.964  0.6370  1.5345  0.6698
24983SOL    HW270872   2.229   5.112   4.019 -0.8440 -0.3112  0.0642
24984SOL     OW70873   0.206   9.915   3.049  0.1093  1.0347  0.1419
24984SOL    HW170874   0.150   9.861   3.111  0.8325  1.8651  1.5368
24984SOL    HW270875   0.302   9.901   3.069  0.3331  1.8525 -0.3209
24985SOL     OW70876   3.445   7.755   6.595 -0.1014 -0.5585 -0.0067
24985SOL    HW170877   3.483   7.698   6.522 -0.6357 -0.3589 -0.4501
24985SOL    HW270878   3.398   7.833   6.554 -1.8718 -1.3487  0.4797
24986SOL     OW70879   8.129   5.392   2.981  0.0356 -0.0556 -0.2294
24986SOL    HW170880   8.158   5.329   2.910  0.9217 -0.2798  0.3224
24986SOL    HW270881   8.136   5.486   2.948  0.5332 -0.1551 -0.4032
24987SOL     OW70882   8.915   8.721   6.187  0.1867 -0.3402 -0.3091
24987SOL    HW170883   8.839   8.731   6.123 -0.0609  0.7290  0.1330
24987SOL    HW270884   9.001   8.740   6.139 -0.0838  1.5705 -0.0943
24988SOL     OW70885   1.316   0.479   7.314  0.4093 -0.1231 -0.4598
24988SOL    HW170886   1.393   0.470   7.378 -0.5434  0.9754  0.8666
24988SOL    HW270887   1.339   0.548   7.244  0.0743  1.3291  0.8225
24990SOL     OW70888   8.958   1.033   1.654 -0.0803  0.3427 -0.3155
24990SOL    HW170889   8.947   0.984   1.741  0.3729  0.3190 -0.2678
24990SOL    HW270890   8.963   1.131   1.671  0.6671  0.2968 -0.2466
24991SOL     OW70891   0.274   8.305   6.871 -0.2725 -0.3115 -0.3233
24991SOL    HW170892   0.217   8.223   6.863 -0.0503 -0.5691  0.6300
24991SOL    HW270893   0.273   8.355   6.785 -0.5782 -1.2073 -0.8444
24992SOL     OW70894   7.646   8.655   7.743  0.6108  0.1293 -0.5222
24992SOL    HW170895   7.745   8.661   7.729  0.7150  0.9075  0.4871
24992SOL    HW270896   7.608   8.747   7.751 -0.0644 -0.1921  0.0081
24993SOL     OW70897   8.023   9.974   2.835  0.1709  0.3266 -0.3421
24993SOL    HW170898   7.938  10.017   2.864 -0.0517 -0.1992 -0.1986
24993SOL    HW270899   8.095  10.043   2.828 -0.1059  0.6729  0.1600
24994SOL     OW70900   2.093   2.536   5.600 -0.3902 -0.7322  0.0790
24994SOL    HW170901   2.029   2.583   5.539  1.1844  1.1770 -0.1457
24994SOL    HW270902   2.183   2.529   5.557  0.6691  0.3581  2.0117
24995SOL     OW70903   8.598   3.983   5.726  0.3180 -0.0663 -0.3643
24995SOL    HW170904   8.522   3.938   5.679 -0.7194  1.8177 -0.5283
24995SOL    HW270905   8.669   3.915   5.747 -0.9856 -1.6737 -1.0345
24997SOL     OW70906   5.825   3.872   0.925  0.2767 -0.5255 -0.6396
24997SOL    HW170907   5.740   3.827   0.953  0.8206 -0.6066  0.9413
24997SOL    HW270908   5.902   3.828   0.970  1.2082 -0.7650 -2.4532
24998SOL     OW70909   9.424   0.161   5.610 -0.9054 -0.8336 -0.8209
24998SOL    HW170910   9.422   0.173   5.511  0.6659  1.9395 -0.5863
24998SOL    HW270911   9.375   0.237   5.653 -0.8243 -1.5512  0.5453
24999SOL     OW70912   8.209   4.056   1.064 -0.1268 -0.4920 -0.5868
24999SOL    HW170913   8.196   4.139   1.116 -0.6758 -1.1499  0.3277
24999SOL    HW270914   8.281   4.000   1.106  1.0633  0.0403 -1.8502
25000SOL     OW70915   1.818   3.593   7.886  0.1417 -0.5117  0.1085
25000SOL    HW170916   1.806   3.619   7.790  0.0615 -1.1597 -0.0597
25000SOL    HW270917   1.868   3.665   7.934  0.6394 -0.4142 -0.5447
25001SOL     OW70918   2.197   1.049   0.314 -0.6354  0.0946  0.2405
25001SOL    HW170919   2.126   1.086   0.374 -0.5597  1.1916 -0.3356
25001SOL    HW270920   2.280   1.103   0.324 -0.9678  0.9719 -1.6749
25002SOL     OW70921   8.319   6.726   0.286  0.1511  0.2051 -0.1394
25002SOL    HW170922   8.370   6.784   0.223  0.0608 -0.8867 -1.2479
25002SOL    HW270923   8.280   6.648   0.236 -0.4846 -0.3284  1.1453
25003SOL     OW70924   8.456   8.428   5.661 -0.1555  0.0107 -0.2486
25003SOL    HW170925   8.519   8.363   5.704  0.8570  1.5065  0.5802
25003SOL    HW270926   8.446   8.508   5.720 -1.0922  0.7800 -1.4297
25005SOL     OW70927   3.067   6.953   0.670  0.2179 -0.5523  0.1656
25005SOL    HW170928   3.056   6.855   0.683  0.3230 -0.7480 -1.1209
25005SOL    HW270929   3.138   6.987   0.732 -1.3287 -0.8774  2.1492
25006SOL     OW70930   1.842   0.414   0.845 -0.3424 -0.5225  0.3754
25006SOL    HW170931   1.895   0.436   0.927  0.4182  0.4234 -0.3506
25006SOL    HW270932   1.797   0.496   0.811 -1.7376 -1.1873  0.5936
25007SOL     OW70933   7.348   6.011   1.416  0.7394 -0.1548  0.2722
25007SOL    HW170934   7.303   6.079   1.473  3.1387  0.5071  1.4341
25007SOL    HW270935   7.293   5.927   1.415 -1.1066  1.0207  0.6404
25009SOL     OW70936   2.757   4.748   6.376  0.5288  0.3176  0.6155
25009SOL    HW170937   2.699   4.828   6.392  0.3331  0.4310 -0.6338
25009SOL    HW270938   2.752   4.722   6.280 -0.7985 -2.2891  1.3544
25010SOL     OW70939   4.367   2.978   0.868 -0.1307 -0.2899  0.0914
25010SOL    HW170940   4.341   3.071   0.892  0.7455  0.5194 -1.9515
25010SOL    HW270941   4.456   2.979   0.823 -0.3722 -2.0407 -0.4705
25011SOL     OW70942   9.230   7.684   4.335  0.1450  0.0858 -0.3864
25011SOL    HW170943   9.211   7.764   4.393  2.5304 -0.9760  1.9725
25011SOL    HW270944   9.328   7.666   4.334  0.0711 -0.5378 -4.0745
25013SOL     OW70945   7.587   0.227   1.682  0.2676 -0.2320  0.3300
25013SOL    HW170946   7.618   0.133   1.695  0.3601 -0.1383  0.8132
25013SOL    HW270947   7.556   0.240   1.588 -0.9659 -1.0954  0.6093
25014SOL     OW70948   4.372   6.110   4.074  0.1098 -0.1659 -0.4659
25014SOL    HW170949   4.426   6.091   3.992  0.8512 -0.3275  0.0568
25014SOL    HW270950   4.350   6.025   4.121  1.9947  0.1137  0.9613
25015SOL     OW70951   8.433   5.477   6.808  0.1072  0.2901  0.3260
25015SOL    HW170952   8.472   5.502   6.719 -0.2987 -1.5039 -0.3814
25015SOL    HW270953   8.337   5.503   6.810  0.1489  0.4502  0.2906
25017SOL     OW70954   4.876   8.988   6.934 -0.6042  0.7295 -0.1435
25017SOL    HW170955   4.805   8.928   6.897 -1.0807  1.2584 -0.0924
25017SOL    HW270956   4.966   8.950   6.913 -0.9022  0.0232 -0.1540
25018SOL     OW70957   5.279   1.938   6.986  0.0197  0.5229 -0.0957
25018SOL    HW170958   5.223   1.923   6.905 -0.3022 -0.1948  0.2560
25018SOL    HW270959   5.256   2.027   7.027 -0.3298  0.5588 -0.3763
25019SOL     OW70960   1.541   1.941   6.586 -0.3312 -0.6103 -0.6218
25019SOL    HW170961   1.444   1.937   6.560  0.1762 -2.5281 -2.3420
25019SOL    HW270962   1.596   1.897   6.515  1.6107 -1.4454  1.3563
25021SOL     OW70963   2.900   3.040   4.645 -0.1446  0.0155  0.1882
25021SOL    HW170964   2.865   3.124   4.603 -0.1379  0.1137  0.3766
25021SOL    HW270965   2.992   3.022   4.611  0.4980  0.9791  1.3787
25023SOL     OW70966   2.809   8.602   4.624  0.6526 -0.4556  0.1143
25023SOL    HW170967   2.830   8.591   4.526 -1.0777  1.1972 -0.4899
25023SOL    HW270968   2.710   8.599   4.636  0.8924 -1.3964  1.9465
25024SOL     OW70969   6.265   6.140   0.986 -0.4356  0.3550 -0.4347
25024SOL    HW170970   6.325   6.155   0.907  0.4885 -0.2194  0.1526
25024SOL    HW270971   6.268   6.044   1.013 -0.7932  0.5387  0.2757
25025SOL     OW70972   6.697   7.101   6.058 -0.0100  0.3059 -0.1830
25025SOL    HW170973   6.660   7.177   6.112  2.2037  1.3848 -0.1185
25025SOL    HW270974   6.792   7.084   6.086 -0.4126 -2.3742 -0.3404
25026SOL     OW70975   2.943   0.327   2.431 -0.7463 -0.2802 -0.0863
25026SOL    HW170976   2.992   0.410   2.404 -0.1890 -0.2030  1.1521
25026SOL    HW270977   2.845   0.339   2.411 -0.7256  0.8265  0.4570
25027SOL     OW70978   9.155   4.685   4.281  0.1590  0.0314 -1.0582
25027SOL    HW170979   9.202   4.667   4.195  1.4502  0.3783 -0.4342
25027SOL    HW270980   9.189   4.771   4.321 -2.0273  1.0339 -1.3015
25028SOL     OW70981   9.337   5.031   6.213  0.4566  0.2941  0.1127
25028SOL    HW170982   9.347   5.113   6.268 -2.3596  1.8024 -1.5299
25028SOL    HW270983   9.242   5.022   6.182  1.5227 -1.4716 -2.9113
25029SOL     OW70984   2.656   5.624   5.109 -0.3078 -0.4305 -0.3261
25029SOL    HW170985   2.694   5.539   5.072  1.3577 -0.1856  0.7454
25029SOL    HW270986   2.719   5.699   5.091  0.3927 -0.2536  2.6260
25031SOL     OW70987   7.035   6.976   4.629 -0.1732  0.0154 -0.2306
25031SOL    HW170988   6.938   6.998   4.618 -0.2926 -0.7959 -0.8639
25031SOL    HW270989   7.047   6.914   4.706 -0.2796 -0.7009 -0.7892
25032SOL     OW70990   4.946   5.869   7.807 -0.1212 -0.1752 -0.3701
25032SOL    HW170991   4.986   5.791   7.760  0.0195  0.6221 -1.5824
25032SOL    HW270992   4.908   5.932   7.740 -0.5073  0.6544  0.6221
25033SOL     OW70993   2.121   2.340   5.817 -0.0285 -0.2636 -0.4923
25033SOL    HW170994   2.113   2.376   5.724  0.6577 -0.5951 -0.6805
25033SOL    HW270995   2.079   2.404   5.881 -0.2773  0.0852 -1.0021
25034SOL     OW70996   3.520   4.196   5.539  0.3029 -0.3234 -0.0581
25034SOL    HW170997   3.497   4.101   5.557  2.0400 -0.8506 -0.5143
25034SOL    HW270998   3.465   4.256   5.597 -1.3040 -1.5605 -0.2692
25035SOL     OW70999   5.661   4.081   0.518  0.5409 -0.0199  0.2102
25035SOL    HW171000   5.702   4.085   0.610 -2.2364 -2.5921  1.6631
25035SOL    HW271001   5.677   3.991   0.478 -0.8555  0.0430 -0.5411
25036SOL     OW71002   0.643   2.005   3.940 -0.3609  0.4066  0.2983
25036SOL    HW171003   0.653   2.021   4.038  4.6548 -0.1528 -0.0051
25036SOL    HW271004   0.686   2.080   3.889  0.4626 -1.1739 -1.4001
25037SOL     OW71005   4.541   4.013   5.387 -0.3464 -0.3155 -0.2702
25037SOL    HW171006   4.468   3.955   5.351 -1.0226  1.3299 -1.6114
25037SOL    HW271007   4.505   4.067   5.463 -0.6896  0.8866 -1.2758
25039SOL     OW71008   6.553   1.086   5.233  0.0121  0.2509 -0.7188
25039SOL    HW171009   6.629   1.096   5.170 -1.2558 -0.4048 -2.3955
25039SOL    HW271010   6.576   1.129   5.320  1.7319  1.3213 -1.6735
25040SOL     OW71011   9.510   3.813   0.699 -0.2421  0.0628  0.4098
25040SOL    HW171012   9.468   3.732   0.658  0.9299 -0.6937  0.6537
25040SOL    HW271013   9.532   3.793   0.795 -2.3106  1.5685  1.2150
25041SOL     OW71014   7.844   4.459   1.787 -0.2338 -0.3215  0.6507
25041SOL    HW171015   7.829   4.511   1.871  0.5185  2.3285 -0.7863
25041SOL    HW271016   7.942   4.446   1.773 -0.4191 -2.3984  1.1144
25042SOL     OW71017   9.103   9.596   1.766 -0.1962  0.0653 -0.6245
25042SOL    HW171018   9.093   9.628   1.860 -1.2008 -0.0067 -0.7001
25042SOL    HW271019   9.015   9.599   1.720 -0.1178 -1.8466 -0.9502
25043SOL     OW71020   5.052   9.414   1.289 -1.0343  0.1979  0.0826
25043SOL    HW171021   5.108   9.497   1.287 -1.0652  0.1992 -0.6286
25043SOL    HW271022   5.091   9.345   1.228 -1.5233  0.0123 -0.0236
25044SOL     OW71023   2.630   8.604   0.802  0.0059  0.6976  0.9153
25044SOL    HW171024   2.644   8.525   0.742 -1.8583 -0.0668  1.4581
25044SOL    HW271025   2.661   8.687   0.756  0.6741 -0.1715 -0.2208
25046SOL     OW71026   4.443   3.243   0.091 -0.1211  0.6190 -0.0104
25046SOL    HW171027   4.396   3.323   0.128 -1.7361  0.9560 -2.6399
25046SOL    HW271028   4.376   3.175   0.062  1.2477 -2.4192  3.5895
25047SOL     OW71029   5.439   0.213   7.849  0.3771 -0.1549 -0.5936
25047SOL    HW171030   5.455   0.124   7.807  1.5574  0.5011 -1.5489
25047SOL    HW271031   5.497   0.223   7.930  0.1708 -0.2856 -0.4279
25048SOL     OW71032   8.157   3.734   5.203 -0.1947 -0.6683  0.4402
25048SOL    HW171033   8.212   3.800   5.254 -0.4063 -0.8086  0.8511
25048SOL    HW271034   8.184   3.641   5.229 -1.8303 -0.7289  1.9385
25049SOL     OW71035   2.951   7.286   5.767  0.4124  0.4266  0.3126
25049SOL    HW171036   2.854   7.262   5.769  0.7713 -1.1174  0.2155
25049SOL    HW271037   2.992   7.249   5.684  0.9082  1.8032 -0.0627
25051SOL     OW71038   4.120   1.988   1.136 -0.9762  0.1066 -0.1606
25051SOL    HW171039   4.195   2.053   1.151 -1.0394 -0.0420  0.8797
25051SOL    HW271040   4.093   1.989   1.040  0.1269  0.4205 -0.4736
25052SOL     OW71041   8.493   6.579   6.609  0.4263  0.1986  0.1025
25052SOL    HW171042   8.570   6.525   6.641  0.3318 -0.0774 -0.1317
25052SOL    HW271043   8.493   6.668   6.654  1.2206  0.4201 -0.3274
25055SOL     OW71044   4.524   4.814   7.415  0.7517  0.2385 -0.1370
25055SOL    HW171045   4.459   4.870   7.364  3.4154  3.9022  0.2622
25055SOL    HW271046   4.601   4.790   7.357  1.0845 -0.4174  0.5673
25056SOL     OW71047   1.213   6.811   7.048 -0.0545 -0.3322  0.1419
25056SOL    HW171048   1.223   6.869   7.129 -1.3273 -0.7728  0.6273
25056SOL    HW271049   1.120   6.775   7.044  0.3329 -1.2518 -0.8991
25058SOL     OW71050   3.730   1.287   1.229  0.1570 -0.0304  0.7529
25058SOL    HW171051   3.645   1.296   1.178 -0.7244 -2.2283  1.7463
25058SOL    HW271052   3.712   1.306   1.326  0.8462 -0.2727  0.9272
25059SOL     OW71053   4.168   7.681   3.076 -0.0500  0.1996  0.4638
25059SOL    HW171054   4.153   7.677   2.978  2.8328 -0.7377  0.0253
25059SOL    HW271055   4.191   7.774   3.103 -0.5241  0.3904  0.2164
25061SOL     OW71056   0.582   6.988   6.605  0.4017  0.7408  0.0284
25061SOL    HW171057   0.554   6.971   6.511  0.9785  0.8578 -0.1651
25061SOL    HW271058   0.501   7.003   6.662  0.0113 -0.1533 -0.2870
25063SOL     OW71059   1.820   8.863   7.209  0.3191  0.2173  0.2248
25063SOL    HW171060   1.914   8.879   7.238  0.3619  0.0320  0.1888
25063SOL    HW271061   1.812   8.771   7.168  0.2670  0.4924 -0.3907
25064SOL     OW71062   7.142   8.319   3.581  0.2448 -0.3877  0.1063
25064SOL    HW171063   7.070   8.362   3.636  1.1976  0.8123  0.4435
25064SOL    HW271064   7.102   8.277   3.500 -0.9699 -0.7042  0.8612
25065SOL     OW71065   6.260   8.169   3.732  0.1694 -0.5447  0.0175
25065SOL    HW171066   6.254   8.105   3.808 -2.3754 -2.3048 -1.6155
25065SOL    HW271067   6.230   8.260   3.761 -0.1727 -1.0538  1.2439
25066SOL     OW71068   3.019   5.513   2.440  0.7095 -0.1428  0.5869
25066SOL    HW171069   3.071   5.451   2.382  1.2231 -0.4611  1.3820
25066SOL    HW271070   2.921   5.497   2.427  0.8288 -0.5219  0.1457
25067SOL     OW71071   8.100   0.665   3.359 -0.5812 -0.0787  0.2707
25067SOL    HW171072   8.040   0.678   3.438 -1.4820  0.4391 -0.4841
25067SOL    HW271073   8.105   0.750   3.307  0.7329 -0.1506  0.2681
25069SOL     OW71074   1.395   8.475   4.063 -0.3797  0.1233 -0.3970
25069SOL    HW171075   1.474   8.424   4.028 -0.8645 -0.4108 -0.7258
25069SOL    HW271076   1.386   8.460   4.161 -1.3722 -1.6055 -0.7365
25071SOL     OW71077   4.769   3.527   7.691  0.5805  0.2489 -0.3888
25071SOL    HW171078   4.850   3.513   7.634  1.0338  1.7915 -0.1461
25071SOL    HW271079   4.797   3.560   7.781 -0.3067  0.8112 -0.3113
25072SOL     OW71080   7.380   2.299   4.726  0.0892  0.3703 -0.1411
25072SOL    HW171081   7.353   2.249   4.644  2.9197  1.8696 -2.0783
25072SOL    HW271082   7.475   2.277   4.749 -0.3343  0.7831  2.1359
25073SOL     OW71083   9.073   1.084   6.513  0.2239  0.0258 -0.0400
25073SOL    HW171084   9.109   1.141   6.440  0.0828 -0.4635 -0.4907
25073SOL    HW271085   8.973   1.082   6.508  0.0595  2.0329  1.6907
25074SOL     OW71086   6.126   4.464   1.303 -0.6688  0.1975  0.1196
25074SOL    HW171087   6.079   4.387   1.260 -0.0920  0.1334 -0.4188
25074SOL    HW271088   6.059   4.531   1.336 -1.1177  0.5950 -1.5450
25077SOL     OW71089   7.802   1.565   2.318 -0.3587 -0.1852 -0.3562
25077SOL    HW171090   7.868   1.571   2.243 -0.6454  2.1895 -0.4494
25077SOL    HW271091   7.716   1.607   2.291 -0.6646  0.1416  1.0804
25078SOL     OW71092   5.289   9.144   1.771 -0.1551  0.9320  0.3322
25078SOL    HW171093   5.268   9.101   1.859 -0.2359  1.2472  0.4683
25078SOL    HW271094   5.300   9.242   1.784 -1.8971  1.2272 -0.3131
25079SOL     OW71095   8.811   6.878   3.567  0.2212 -0.0933 -0.9522
25079SOL    HW171096   8.861   6.810   3.621 -0.7343  1.0436  1.4357
25079SOL    HW271097   8.875   6.936   3.518  1.1872  0.1749  0.6041
25080SOL     OW71098   4.512   5.338   3.015 -0.2178  0.0997  0.0998
25080SOL    HW171099   4.540   5.339   2.919  0.3428  0.2982  0.2661
25080SOL    HW271100   4.418   5.304   3.021 -0.4299  0.5440 -0.5650
25081SOL     OW71101   8.577   5.640   4.960  0.1472 -0.3869  0.0222
25081SOL    HW171102   8.601   5.707   4.891  0.3520 -0.1222  0.3527
25081SOL    HW271103   8.639   5.562   4.954  1.1634  0.3430  0.9467
25082SOL     OW71104   6.610   5.512   1.793  0.3623 -0.0177  0.1828
25082SOL    HW171105   6.542   5.451   1.834 -0.1938 -0.4030 -1.2536
25082SOL    HW271106   6.657   5.564   1.864 -0.0807 -1.1707  1.3317
25083SOL     OW71107   9.873   8.768   2.669 -0.4635 -0.0255 -0.6241
25083SOL    HW171108   9.845   8.853   2.713 -0.6286 -0.0640 -0.6531
25083SOL    HW271109   9.927   8.789   2.587 -1.8326  0.0885 -1.5171
25086SOL     OW71110   1.636   0.444   6.017 -0.3375 -0.5530  0.6341
25086SOL    HW171111   1.730   0.428   6.047  0.8894 -1.6745 -3.4599
25086SOL    HW271112   1.572   0.402   6.082  2.0497 -1.3005  2.5540
25087SOL     OW71113   9.891   6.524   2.578  0.2577  0.0558 -0.2273
25087SOL    HW171114   9.865   6.442   2.631  0.5430  0.3819  0.4276
25087SOL    HW271115   9.983   6.552   2.604  0.7356 -0.2842 -1.5463
25088SOL     OW71116   1.915   0.262   2.204 -0.0364  0.1959 -0.3993
25088SOL    HW171117   1.909   0.163   2.217 -3.5188  0.4097 -0.0204
25088SOL    HW271118   1.913   0.308   2.293 -3.5681  0.7838 -0.7248
25089SOL     OW71119   5.355   8.257   3.793 -0.0788 -0.3399 -0.2082
25089SOL    HW171120   5.397   8.347   3.775 -0.1431 -0.1460  0.6045
25089SOL    HW271121   5.296   8.232   3.716 -1.3389  1.0607  0.2723
25090SOL     OW71122   7.351   7.687   3.577 -0.3537  0.2456 -0.0923
25090SOL    HW171123   7.401   7.612   3.620 -0.0794 -0.2802 -1.3199
25090SOL    HW271124   7.409   7.768   3.573 -0.1922  0.1370  0.0347
25091SOL     OW71125   3.216   5.493   5.925 -0.3151 -0.3313  0.1373
25091SOL    HW171126   3.221   5.586   5.962  0.8880 -0.5630  0.5719
25091SOL    HW271127   3.185   5.496   5.830  0.4391  0.5749 -0.0863
25092SOL     OW71128   7.671   6.515   5.934  0.2197  0.3117 -0.6693
25092SOL    HW171129   7.714   6.572   6.004  0.0680  3.4140 -2.9649
25092SOL    HW271130   7.730   6.438   5.912  1.4723  0.7869  0.9936
25093SOL     OW71131   8.719   8.915   1.918 -0.2374 -0.3861 -0.3067
25093SOL    HW171132   8.701   9.010   1.893 -0.3480 -0.9750 -2.6210
25093SOL    HW271133   8.798   8.882   1.867 -0.2629 -1.5764  0.4048
25094SOL     OW71134   9.315   8.422   0.503  0.4148  0.2823  0.1587
25094SOL    HW171135   9.374   8.368   0.564  0.6369  1.1556  0.7298
25094SOL    HW271136   9.320   8.384   0.411  2.1849  0.5768  0.1024
25095SOL     OW71137   3.547   7.846   1.665  0.2346  0.3012  0.1805
25095SOL    HW171138   3.536   7.779   1.592  0.6540  0.4690 -0.0328
25095SOL    HW271139   3.498   7.930   1.641 -0.1932  0.1188  0.3963
25097SOL     OW71140   3.412   6.234   5.648  0.1789  0.5346 -0.4065
25097SOL    HW171141   3.462   6.215   5.733  0.1283  2.0044 -0.0400
25097SOL    HW271142   3.476   6.229   5.571  0.2109 -0.8737 -0.3078
25098SOL     OW71143   9.285   4.406   1.821 -0.6693  0.8044 -0.4850
25098SOL    HW171144   9.186   4.390   1.826 -0.3481 -1.0650  0.3069
25098SOL    HW271145   9.316   4.385   1.728 -0.6973 -0.6002 -0.1857
25100SOL     OW71146   1.350   8.096   3.738  0.2903  0.0723  0.3069
25100SOL    HW171147   1.307   8.182   3.765  1.3734  1.2930 -1.7548
25100SOL    HW271148   1.429   8.115   3.680  0.5837 -2.3075 -0.1227
25101SOL     OW71149   7.269   9.161   6.777  0.7162  0.1044 -0.0701
25101SOL    HW171150   7.269   9.081   6.837  1.2060  0.1468 -0.0117
25101SOL    HW271151   7.180   9.170   6.733  0.3768  0.0348  0.6038
25102SOL     OW71152   8.007   6.336   3.568  0.1126 -0.4170 -0.2324
25102SOL    HW171153   8.008   6.395   3.488 -0.8964 -1.0060 -0.6924
25102SOL    HW271154   8.097   6.294   3.580  0.6603  0.7364 -0.2468
25103SOL     OW71155   7.625   8.132   0.960  0.2747 -0.3462 -0.1385
25103SOL    HW171156   7.587   8.215   0.918  1.0343  0.0178 -0.1065
25103SOL    HW271157   7.604   8.132   1.058  1.4498  0.4828  0.1210
25104SOL     OW71158   9.008   6.940   5.629  0.3838  0.0609 -0.0074
25104SOL    HW171159   9.011   6.885   5.712  0.6506 -0.2085 -0.1970
25104SOL    HW271160   8.926   6.917   5.577 -0.4966  1.2011  0.8533
25105SOL     OW71161   9.816   9.745   3.021  0.2820 -0.5907  0.4645
25105SOL    HW171162   9.912   9.741   3.047  0.0071 -2.5396  1.2538
25105SOL    HW271163   9.781   9.652   3.007 -1.5872  0.0693  0.5825
25106SOL     OW71164   8.575   8.708   1.402  0.7807 -0.0821  0.2647
25106SOL    HW171165   8.523   8.695   1.487  1.2941  0.4956  0.6753
25106SOL    HW271166   8.617   8.621   1.375  1.8909  0.0613  1.4630
25107SOL     OW71167   6.933   1.310   3.968 -0.5711 -0.0052 -0.1228
25107SOL    HW171168   7.031   1.301   3.951 -0.3841  1.2024  0.2934
25107SOL    HW271169   6.884   1.237   3.919  0.3832  0.3995 -1.7351
25108SOL     OW71170   0.316   7.996   3.344 -0.5008 -0.1237 -0.9027
25108SOL    HW171171   0.380   8.073   3.346  0.0111 -0.4743 -2.5851
25108SOL    HW271172   0.232   8.021   3.393  0.5651  0.6473  0.5794
25109SOL     OW71173   0.980   2.955   5.252 -0.1952 -0.1845 -0.1664
25109SOL    HW171174   0.930   3.040   5.269 -0.1350 -0.1607 -0.1102
25109SOL    HW271175   1.071   2.976   5.217  0.2291 -0.2029  0.9046
25110SOL     OW71176   8.678   4.442   0.452  0.1479  0.1759  0.1309
25110SOL    HW171177   8.612   4.430   0.526 -0.4109  0.9347 -0.2445
25110SOL    HW271178   8.655   4.380   0.377 -0.7312  1.1325 -0.4058
25111SOL     OW71179   6.756   7.877   4.788  0.4495  0.2151  0.2076
25111SOL    HW171180   6.755   7.945   4.861  0.7338 -1.6673  2.0182
25111SOL    HW271181   6.840   7.887   4.734 -0.2286  2.2516 -0.5453
25112SOL     OW71182   0.481   9.475   2.231  0.1124 -0.1942  0.2906
25112SOL    HW171183   0.541   9.545   2.192 -0.4865  0.5936  0.7724
25112SOL    HW271184   0.519   9.444   2.318  0.3879 -0.4979  0.0673
25113SOL     OW71185   9.935   1.808   0.870 -0.1969 -0.0424  0.1049
25113SOL    HW171186   9.902   1.871   0.799 -1.3990  0.0724  0.7461
25113SOL    HW271187   9.922   1.714   0.838 -1.0194  0.0038  0.2819
25114SOL     OW71188   5.444   1.298   4.898 -0.2715  0.4705 -0.4176
25114SOL    HW171189   5.386   1.217   4.904 -0.8675  0.9597  0.6209
25114SOL    HW271190   5.533   1.279   4.940 -0.7586  0.6409  0.7254
25115SOL     OW71191   6.553   4.610   1.712 -0.4403  0.0427 -0.4031
25115SOL    HW171192   6.599   4.607   1.801 -0.6764 -1.0745 -0.3056
25115SOL    HW271193   6.593   4.541   1.651 -0.1116  0.9720 -1.2464
25117SOL     OW71194   1.219   0.720   5.447 -0.0726  0.0540  0.1249
25117SOL    HW171195   1.307   0.682   5.474 -0.3147 -0.9111 -0.4154
25117SOL    HW271196   1.191   0.791   5.513  1.0081  0.2323  0.3921
25118SOL     OW71197   0.490   4.849   7.704 -0.3666  0.2563  0.6405
25118SOL    HW171198   0.505   4.906   7.785  1.7565  0.5271  0.1036
25118SOL    HW271199   0.520   4.755   7.723 -0.0361  0.2774  0.2451
25119SOL     OW71200   5.925   9.403   7.415 -0.7117 -0.2398  0.1100
25119SOL    HW171201   5.953   9.334   7.349  0.3447  0.4532 -0.1751
25119SOL    HW271202   6.000   9.468   7.431 -2.3186  1.9977 -1.1105
25120SOL     OW71203   1.256   4.581   0.640 -0.1217  0.2912 -0.0097
25120SOL    HW171204   1.239   4.678   0.657  0.2020  0.3412  0.0254
25120SOL    HW271205   1.168   4.532   0.638 -0.2619  0.5242  0.3375
25122SOL     OW71206   5.196   1.138   5.845 -0.0385 -0.3818  0.2073
25122SOL    HW171207   5.263   1.134   5.771 -0.4522 -1.2440 -0.1278
25122SOL    HW271208   5.111   1.096   5.815 -0.7681  0.8035  0.5969
25123SOL     OW71209   7.257   8.290   4.692 -0.0560  0.3131 -0.0481
25123SOL    HW171210   7.284   8.378   4.653  0.7277  0.2787  0.4245
25123SOL    HW271211   7.233   8.301   4.788 -1.0708  0.2193 -0.2838
25124SOL     OW71212   9.566   7.019   0.008 -0.6147 -0.8022  0.0154
25124SOL    HW171213   9.618   7.038   0.091 -1.4909 -1.0048  0.6182
25124SOL    HW271214   9.574   6.921  -0.014 -0.3313 -0.7367 -0.1732
25125SOL     OW71215   2.802   0.632   6.022  0.2732  0.3424  0.3398
25125SOL    HW171216   2.711   0.672   6.035  0.1367  0.2873 -0.4109
25125SOL    HW271217   2.842   0.668   5.938  0.5789 -0.3212  0.2027
25126SOL     OW71218   8.177   5.176   0.506  0.0521 -0.3730  0.1140
25126SOL    HW171219   8.270   5.139   0.513 -0.5465 -2.4308 -2.0336
25126SOL    HW271220   8.114   5.103   0.480 -1.8289  1.4350 -0.5658
25127SOL     OW71221   6.361   8.488   6.731 -0.1066  0.2769 -0.0082
25127SOL    HW171222   6.431   8.451   6.671  0.4173  0.9373  0.1982
25127SOL    HW271223   6.402   8.550   6.798 -0.9257  0.9863 -0.1388
25128SOL     OW71224   5.802   5.772   1.786 -0.1536 -0.6336 -0.0410
25128SOL    HW171225   5.754   5.696   1.742 -0.9375  0.6853 -1.4967
25128SOL    HW271226   5.736   5.827   1.838  0.6213 -1.6855  2.1529
25129SOL     OW71227   9.113   5.742   6.477  0.2841 -0.1284 -0.5062
25129SOL    HW171228   9.177   5.812   6.446 -0.0214  0.5756  0.4009
25129SOL    HW271229   9.155   5.687   6.549 -0.1510  0.4028  0.1649
25130SOL     OW71230   6.831   6.457   5.196 -0.0937 -0.1097 -0.0383
25130SOL    HW171231   6.880   6.527   5.247 -0.2076  1.5055 -2.0895
25130SOL    HW271232   6.749   6.430   5.246  0.9141 -0.1543  1.6450
25131SOL     OW71233   3.007   3.412   6.127 -0.6658 -0.2741  0.6065
25131SOL    HW171234   3.044   3.350   6.058 -1.9065  0.2989 -0.5719
25131SOL    HW271235   3.027   3.375   6.218  1.6061 -0.6649 -0.0168
25133SOL     OW71236   2.377   1.071   7.334 -0.0118  0.3221  0.4303
25133SOL    HW171237   2.449   1.086   7.401 -0.2122 -0.4200  0.8274
25133SOL    HW271238   2.368   1.151   7.275  0.3015  0.9064  1.1659
25134SOL     OW71239   1.709   9.049   4.681  1.1088 -0.3698 -0.4486
25134SOL    HW171240   1.755   9.124   4.636  2.2087  0.1886  1.5415
25134SOL    HW271241   1.696   8.973   4.617  1.2452  0.9680 -2.0736
25135SOL     OW71242   5.617   5.340   7.878 -0.2624 -0.2804  0.1180
25135SOL    HW171243   5.619   5.370   7.782 -1.3178 -0.7354 -0.0527
25135SOL    HW271244   5.557   5.261   7.886 -1.9862  1.1521  1.5615
25136SOL     OW71245   8.024   0.141   6.094  0.3940 -0.3852  0.4017
25136SOL    HW171246   8.120   0.123   6.072  0.5865 -1.7816  2.2566
25136SOL    HW271247   8.019   0.186   6.184 -0.6645  0.1949  0.0582
25137SOL     OW71248   7.163   8.006   6.343 -0.0761 -0.1492 -0.5385
25137SOL    HW171249   7.063   7.993   6.343 -0.3937  2.0231 -0.7175
25137SOL    HW271250   7.196   8.008   6.249  0.0836 -0.5778 -0.4896
25139SOL     OW71251   0.490   2.465   1.370  0.0356 -0.3926  0.4802
25139SOL    HW171252   0.572   2.422   1.408  0.7262  0.4667 -0.0151
25139SOL    HW271253   0.479   2.440   1.274 -1.1356 -1.7274  0.9456
25140SOL     OW71254   2.774   0.592   5.247  0.0168  0.5909  0.3185
25140SOL    HW171255   2.832   0.603   5.328 -0.9981  0.8155  1.0397
25140SOL    HW271256   2.678   0.585   5.277 -0.2082 -1.0217 -0.7582
25142SOL     OW71257   3.816   2.811   5.894 -0.1898  0.1468  0.2660
25142SOL    HW171258   3.765   2.741   5.943  1.3762 -0.1319  1.5479
25142SOL    HW271259   3.892   2.768   5.845  1.3145  1.0387  1.7817
25144SOL     OW71260   3.317   2.029   3.561  0.0274  0.7195 -1.2452
25144SOL    HW171261   3.326   1.934   3.530  0.4997  0.3046  0.1198
25144SOL    HW271262   3.312   2.031   3.661 -0.5253  2.0992 -1.2857
25147SOL     OW71263   9.117   2.686   2.902 -0.1381  0.0741  0.1476
25147SOL    HW171264   9.132   2.589   2.881  1.7532  0.6801 -1.4765
25147SOL    HW271265   9.152   2.706   2.993  1.0574 -0.4097 -0.1993
25148SOL     OW71266   2.696   9.619   1.248  0.1276 -0.3429  0.1526
25148SOL    HW171267   2.712   9.684   1.323 -4.3930  1.8251 -0.6333
25148SOL    HW271268   2.625   9.553   1.276 -0.5216 -0.4351 -1.6934
25149SOL     OW71269   9.408   0.874   4.120 -0.2454  0.2545 -0.2239
25149SOL    HW171270   9.418   0.800   4.187  0.7335  0.5304 -0.0455
25149SOL    HW271271   9.348   0.844   4.046  0.9078 -1.0894 -0.6576
25151SOL     OW71272   5.596   0.612   6.716 -0.1604  0.1933 -0.4521
25151SOL    HW171273   5.564   0.529   6.761 -1.2830  0.7583 -0.1715
25151SOL    HW271274   5.689   0.599   6.682 -0.5326 -1.3506 -0.8928
25152SOL     OW71275   5.629   8.895   4.107  0.5548 -0.0781  0.9157
25152SOL    HW171276   5.530   8.889   4.120  0.7394 -0.7785  2.0521
25152SOL    HW271277   5.672   8.933   4.188  1.0766  1.7678 -0.1952
25153SOL     OW71278   5.556   8.995   2.445 -0.2742  0.2967  0.0146
25153SOL    HW171279   5.516   8.945   2.368 -0.2318 -0.2288  0.3335
25153SOL    HW271280   5.649   8.961   2.462  0.7210  2.2035 -1.3718
25154SOL     OW71281   3.975   0.042   6.851  0.2110  0.2478  0.1876
25154SOL    HW171282   3.922   0.109   6.800 -0.9961 -0.7547  0.0855
25154SOL    HW271283   4.072   0.050   6.827 -0.1408  0.8305 -1.0632
25155SOL     OW71284   1.713   6.466   0.116  0.3059 -0.6027  0.6831
25155SOL    HW171285   1.751   6.555   0.090  1.0663 -1.4502 -1.1911
25155SOL    HW271286   1.767   6.428   0.191  1.0885 -0.2731  0.2987
25156SOL     OW71287   1.466   1.083   2.878  0.3400 -0.6037  0.2821
25156SOL    HW171288   1.446   1.052   2.785 -2.0821 -1.5924  1.0869
25156SOL    HW271289   1.446   1.010   2.943 -1.6174  1.2852  1.8815
25158SOL     OW71290   4.029   7.511   2.679 -0.5212 -0.1084 -0.1747
25158SOL    HW171291   4.083   7.462   2.748 -1.7483 -0.3488  0.6280
25158SOL    HW271292   3.976   7.446   2.625 -0.4915  0.1723 -0.5419
25161SOL     OW71293   0.842   7.299   0.891  0.3452  0.6248 -0.4712
25161SOL    HW171294   0.930   7.347   0.896  0.8079 -0.2199 -0.4006
25161SOL    HW271295   0.826   7.251   0.977  0.4884 -0.3796 -0.9988
25162SOL     OW71296   3.643   1.472   3.757  1.0175  0.8956 -0.0604
25162SOL    HW171297   3.623   1.568   3.775 -0.9587  0.4417  0.2581
25162SOL    HW271298   3.590   1.441   3.678 -0.2183 -0.5591  1.3056
25163SOL     OW71299   9.138   3.860   1.067 -0.3447 -0.1257  0.0450
25163SOL    HW171300   9.060   3.800   1.053 -1.5614  1.7254 -1.3707
25163SOL    HW271301   9.200   3.853   0.989  0.8831 -1.5213  1.1204
25164SOL     OW71302   9.709   1.230   1.768 -0.1140 -0.2315  0.4124
25164SOL    HW171303   9.750   1.290   1.700 -2.4006  1.1946  0.2375
25164SOL    HW271304   9.766   1.230   1.851  1.2105  0.2092 -0.4847
25165SOL     OW71305   6.243   7.415   5.993 -0.5457 -0.0294  0.2758
25165SOL    HW171306   6.317   7.425   5.926  1.1830 -1.1704  1.9596
25165SOL    HW271307   6.156   7.440   5.951  0.7920  1.3296 -1.7553
25166SOL     OW71308   8.013   1.625   5.411  0.4451  0.0606  0.5804
25166SOL    HW171309   7.947   1.694   5.382 -0.4393 -0.6239  0.9564
25166SOL    HW271310   8.102   1.645   5.370 -0.1680  0.5687 -0.5202
25167SOL     OW71311   8.781   0.853   5.758  0.6279  0.1269 -0.0123
25167SOL    HW171312   8.813   0.763   5.788  1.0628 -0.5199 -2.2653
25167SOL    HW271313   8.700   0.841   5.699  0.1752  1.2727  0.3615
25168SOL     OW71314   1.141   1.740   6.297  0.3012 -0.0989  0.2224
25168SOL    HW171315   1.060   1.687   6.323  1.3944 -0.4007  3.1514
25168SOL    HW271316   1.156   1.731   6.198 -2.3343 -1.2710 -0.1136
25169SOL     OW71317   0.063   0.837   0.318 -0.3227 -0.3083  0.3621
25169SOL    HW171318   0.161   0.828   0.335 -0.5437 -1.2072  1.1496
25169SOL    HW271319   0.048   0.852   0.220  0.8205  3.0791  0.6050
25171SOL     OW71320   3.900   0.599   5.655 -0.3969 -0.1295 -0.3673
25171SOL    HW171321   3.893   0.573   5.751 -1.6566  0.1692 -0.3740
25171SOL    HW271322   3.861   0.527   5.598 -1.8554  0.7472 -0.5091
25172SOL     OW71323   8.739   2.866   6.468  0.3208 -0.0144 -0.7675
25172SOL    HW171324   8.693   2.926   6.403  0.3546 -2.1752 -2.8407
25172SOL    HW271325   8.672   2.809   6.515  0.3076  1.4585  1.0602
25174SOL     OW71326   9.630   7.154   6.421  0.5591  0.2776 -0.0511
25174SOL    HW171327   9.622   7.056   6.439 -0.2082  0.7488  2.4238
25174SOL    HW271328   9.710   7.190   6.470  0.8343  0.8878 -0.9427
25175SOL     OW71329   2.984   3.481   0.366 -0.2174  0.1095  0.5309
25175SOL    HW171330   2.911   3.544   0.339 -0.1742 -0.2858 -0.5213
25175SOL    HW271331   3.032   3.448   0.285  1.2353  0.4705  1.2138
25177SOL     OW71332   0.037   8.070   3.494  0.0872 -0.1780 -0.6647
25177SOL    HW171333   0.072   8.061   3.587  0.2176  0.1011 -0.6863
25177SOL    HW271334  -0.033   8.001   3.479 -1.5489  1.2101  0.3926
25178SOL     OW71335   3.871   6.120   0.137  0.6808 -0.0182 -0.0707
25178SOL    HW171336   3.935   6.196   0.151  0.0078  0.5165  0.1346
25178SOL    HW271337   3.868   6.064   0.219 -0.4722  0.9942  0.5933
25179SOL     OW71338   3.461   0.263   0.305 -0.0698  0.7941  0.1252
25179SOL    HW171339   3.430   0.235   0.214 -1.2320 -0.3753  0.8583
25179SOL    HW271340   3.524   0.194   0.341 -1.2654  0.1744  1.0636
25180SOL     OW71341   9.240   9.486   7.829 -0.0422  0.0743  0.4470
25180SOL    HW171342   9.207   9.473   7.735  1.1791  1.4971 -0.1964
25180SOL    HW271343   9.227   9.581   7.856  3.2091  0.6112  0.2807
25181SOL     OW71344   7.526   6.981   6.810 -0.5024  0.3105 -0.3128
25181SOL    HW171345   7.499   7.020   6.722 -2.0635  1.0392  0.4656
25181SOL    HW271346   7.465   6.906   6.835 -0.1980  0.2403  0.2550
25182SOL     OW71347   9.875   1.539   0.738 -0.0250  0.1016  0.4941
25182SOL    HW171348   9.787   1.585   0.730 -1.2919 -2.2805  0.3306
25182SOL    HW271349   9.901   1.501   0.649  0.9113  0.3137  0.6680
25183SOL     OW71350   8.686   2.500   2.027 -0.2464  0.2240  0.3027
25183SOL    HW171351   8.633   2.490   1.943  0.4476  1.8585 -0.3496
25183SOL    HW271352   8.726   2.411   2.052 -2.3057 -0.7674  0.1766
25184SOL     OW71353   2.275   5.357   4.664 -0.0026 -0.1526 -0.0735
25184SOL    HW171354   2.225   5.323   4.744  0.6136 -0.1225  0.3291
25184SOL    HW271355   2.368   5.320   4.665  0.1747  0.2756 -0.4911
25185SOL     OW71356   8.006   2.926   0.512 -0.2382 -0.2507 -0.0393
25185SOL    HW171357   8.018   2.966   0.421 -0.6825  0.5534  0.2536
25185SOL    HW271358   7.985   2.829   0.503 -0.3476 -0.1619 -0.7994
25186SOL     OW71359   5.848   1.408   2.086  0.3012  0.1180 -0.6605
25186SOL    HW171360   5.921   1.342   2.108 -0.2497 -0.4801 -0.6087
25186SOL    HW271361   5.770   1.359   2.048 -0.7397  0.5615  0.8735
25188SOL     OW71362   5.592   8.114   4.322  0.2759 -0.0772  0.2782
25188SOL    HW171363   5.624   8.050   4.252  2.1843 -0.1165  1.1447
25188SOL    HW271364   5.601   8.072   4.412 -1.3882  0.2733  0.6143
25191SOL     OW71365   4.476   7.391   3.442  0.0773 -0.4693  0.0386
25191SOL    HW171366   4.447   7.299   3.470 -0.4821 -0.3524 -0.1564
25191SOL    HW271367   4.464   7.400   3.343 -0.2110 -0.0627  0.1093
25192SOL     OW71368   6.489   3.495   0.966 -0.0068  0.1467 -0.7698
25192SOL    HW171369   6.509   3.530   0.875  0.1355 -0.1408 -0.8501
25192SOL    HW271370   6.390   3.493   0.980  0.0027  1.0819 -0.5644
25193SOL     OW71371   0.368   6.251   3.330 -0.1737  0.1772 -0.1518
25193SOL    HW171372   0.429   6.199   3.271  1.5684  2.5243 -0.4972
25193SOL    HW271373   0.333   6.192   3.403 -0.2850 -2.0678 -1.9894
25194SOL     OW71374   3.459   6.894   4.536  0.1309 -0.3319 -0.0878
25194SOL    HW171375   3.420   6.985   4.552 -0.1637 -0.5705  0.5933
25194SOL    HW271376   3.415   6.852   4.457 -2.7876 -1.5844  2.1211
25195SOL     OW71377   3.346   6.669   5.704 -0.2495  0.4483 -0.1333
25195SOL    HW171378   3.295   6.697   5.623 -0.5879  0.5206  0.1035
25195SOL    HW271379   3.427   6.727   5.714 -0.6641  1.0043  0.0553
25196SOL     OW71380   7.870   9.821   6.685 -0.3429  0.1461 -0.3065
25196SOL    HW171381   7.878   9.911   6.643  0.1214  2.0765  3.6892
25196SOL    HW271382   7.774   9.802   6.707 -0.3143  0.1086 -0.2125
25197SOL     OW71383   7.112   2.146   1.769  0.5883  0.3481 -0.0374
25197SOL    HW171384   7.151   2.215   1.708  0.6120 -1.2480 -1.9069
25197SOL    HW271385   7.018   2.126   1.741  0.9413 -1.1314 -0.2014
25200SOL     OW71386   8.888   9.004   3.627  0.1684  0.2716 -0.0523
25200SOL    HW171387   8.818   9.014   3.556 -0.4140  2.6537  0.8200
25200SOL    HW271388   8.879   9.078   3.694  2.9027  0.0541  0.6178
25202SOL     OW71389   6.781   0.893   2.110 -0.2805 -0.0544  0.1489
25202SOL    HW171390   6.759   0.860   2.202  1.4180  0.9502  0.9385
25202SOL    HW271391   6.830   0.822   2.059  0.1392 -0.0595  0.5602
25204SOL     OW71392   1.676   9.984   3.305 -0.1228  0.2610 -0.9310
25204SOL    HW171393   1.590   9.954   3.347 -0.2965  1.7828 -0.1764
25204SOL    HW271394   1.686   9.940   3.216 -0.5302 -1.7444 -0.0064
25205SOL     OW71395   7.526   8.300   3.268  0.3013  0.2006  0.0540
25205SOL    HW171396   7.498   8.349   3.351 -1.2574  0.8640 -0.8461
25205SOL    HW271397   7.625   8.309   3.256  0.3586  1.1794  1.1404
25206SOL     OW71398   2.404   3.685   3.052  0.2656 -0.2294 -0.3628
25206SOL    HW171399   2.316   3.683   3.006 -0.1269  0.1311  0.3648
25206SOL    HW271400   2.475   3.647   2.992 -0.4405 -0.8193 -0.8235
25208SOL     OW71401   2.251   4.064   2.489  0.3934 -0.1822 -0.5461
25208SOL    HW171402   2.194   4.101   2.563  2.1066  2.8637 -0.6540
25208SOL    HW271403   2.199   4.064   2.404 -0.7681 -1.3078  0.1523
25209SOL     OW71404   5.214   7.916   2.209 -0.0346 -0.2442  0.4685
25209SOL    HW171405   5.225   7.964   2.295  1.7189 -0.7563  0.5466
25209SOL    HW271406   5.239   7.976   2.133  0.2611 -0.4043  0.4390
25210SOL     OW71407   8.268   4.390   6.290  0.1458  0.6415  0.2110
25210SOL    HW171408   8.245   4.487   6.282 -1.1397  0.1441 -2.6000
25210SOL    HW271409   8.350   4.370   6.237  0.6975  0.2654  1.1854
25211SOL     OW71410   6.392   7.428   3.079 -0.1624 -0.2516  0.2369
25211SOL    HW171411   6.467   7.424   3.013  0.3613 -1.0439  0.8620
25211SOL    HW271412   6.427   7.455   3.169 -1.0071  1.6594  0.0042
25213SOL     OW71413   3.053   8.126   7.361  0.1100  0.6883  0.4671
25213SOL    HW171414   3.118   8.050   7.365 -1.0684 -0.3160  0.7867
25213SOL    HW271415   3.097   8.205   7.317  1.2450 -0.2564 -0.1263
25214SOL     OW71416   6.998   3.050   1.426 -0.1158  0.2165  0.0956
25214SOL    HW171417   6.963   2.966   1.466 -0.9385  0.5459  0.0729
25214SOL    HW271418   7.092   3.035   1.396  0.5325 -0.0078  2.1791
25216SOL     OW71419   1.176   6.982   1.773 -0.2516 -0.1234  0.2302
25216SOL    HW171420   1.222   6.992   1.685 -1.6083 -0.2173 -0.4930
25216SOL    HW271421   1.185   6.887   1.805  0.5548 -0.0015  0.3787
25217SOL     OW71422   2.913   9.501   6.760  0.4282 -0.2098  0.2534
25217SOL    HW171423   2.990   9.564   6.764  2.8540 -3.1217  0.7596
25217SOL    HW271424   2.901   9.468   6.667  0.0778 -0.1659  0.2784
25218SOL     OW71425   3.532   9.713   7.622  0.5670 -0.2016  0.3276
25218SOL    HW171426   3.518   9.704   7.721 -0.7163 -3.2851 -0.0950
25218SOL    HW271427   3.471   9.783   7.586 -0.2192 -0.3027  1.4381
25219SOL     OW71428   4.541   4.430   1.201  0.0852  0.1816  0.3185
25219SOL    HW171429   4.454   4.422   1.249  0.0132 -0.6895  0.0632
25219SOL    HW271430   4.615   4.404   1.263  0.4084  3.2078  1.2782
25220SOL     OW71431   3.358   0.403   2.072  0.0613 -0.1597 -0.3544
25220SOL    HW171432   3.410   0.348   2.007  1.0053  0.0223  0.2383
25220SOL    HW271433   3.263   0.408   2.043  0.0835 -1.6434 -0.7004
25221SOL     OW71434   8.477   4.797   7.229 -0.2266 -0.5535 -0.1702
25221SOL    HW171435   8.453   4.716   7.176  0.2096 -0.5521 -0.3698
25221SOL    HW271436   8.407   4.812   7.300 -1.1717 -0.1647 -1.1638
25222SOL     OW71437   1.604   2.434   1.920 -0.1138 -0.0413  0.2667
25222SOL    HW171438   1.664   2.452   1.998  0.9834  1.2079 -0.8446
25222SOL    HW271439   1.579   2.520   1.876  0.4149 -0.8062 -1.5853
25223SOL     OW71440   5.957   3.541   2.157  0.0197 -0.0149  0.1624
25223SOL    HW171441   6.013   3.599   2.097 -0.5924  1.1472  0.7045
25223SOL    HW271442   5.947   3.451   2.115  0.2193  0.5525 -1.1335
25224SOL     OW71443   6.054   4.980   2.142 -0.6032  0.3936  0.5623
25224SOL    HW171444   6.022   4.942   2.229  0.0026 -0.3395  0.4743
25224SOL    HW271445   6.062   4.906   2.075 -0.2952  0.8232  0.1262
25226SOL     OW71446   5.249   9.423   1.815  0.7895  0.2523 -0.0819
25226SOL    HW171447   5.218   9.470   1.898  0.2032 -1.8239  0.9086
25226SOL    HW271448   5.192   9.450   1.737  0.0870  0.7312  0.5970
25227SOL     OW71449   3.785   6.607   1.366 -0.2676  0.3017  0.6076
25227SOL    HW171450   3.873   6.652   1.348 -0.2328  0.1351  0.3462
25227SOL    HW271451   3.785   6.569   1.459 -0.0643  0.3066  0.6096
25229SOL     OW71452   1.768   6.165   5.577 -0.0089 -0.5005 -0.2644
25229SOL    HW171453   1.825   6.085   5.592 -0.3607 -0.6588  0.2216
25229SOL    HW271454   1.819   6.248   5.599 -0.9444 -0.7625  3.2429
25230SOL     OW71455   8.174   2.833   2.555 -0.1022  0.0250 -0.3595
25230SOL    HW171456   8.146   2.771   2.482  0.3267  0.8731 -1.2548
25230SOL    HW271457   8.147   2.926   2.531  0.5591  0.3833  0.2938
25231SOL     OW71458   3.899   6.646   3.765  0.4795 -0.9707  0.5848
25231SOL    HW171459   3.818   6.615   3.815 -0.3168  1.6366  0.9819
25231SOL    HW271460   3.880   6.648   3.667 -0.4786  1.0808  0.7895
25232SOL     OW71461   1.579   6.019   3.334 -0.0838  0.1329 -0.0910
25232SOL    HW171462   1.589   6.090   3.265  1.9413 -0.1510 -0.1081
25232SOL    HW271463   1.594   6.058   3.425  1.7255 -0.3789 -0.1469
25233SOL     OW71464   7.576   7.560   2.442  0.4484  0.3212  1.0021
25233SOL    HW171465   7.529   7.573   2.529 -0.7732 -0.6946  0.5163
25233SOL    HW271466   7.656   7.620   2.437 -0.2670  1.3944  2.2401
25234SOL     OW71467   2.136   6.934   6.086  0.2556 -0.1974  0.0416
25234SOL    HW171468   2.148   7.028   6.119  0.5206 -0.1130 -0.2947
25234SOL    HW271469   2.202   6.874   6.131 -2.4278 -0.9527  3.2248
25235SOL     OW71470   0.103   9.066   7.123 -0.2135  0.1278  0.0194
25235SOL    HW171471   0.135   8.972   7.115 -0.9638 -0.1114 -0.2414
25235SOL    HW271472   0.068   9.097   7.034  1.2146  1.0956 -0.2201
25236SOL     OW71473   8.509   6.964   2.344  0.4938 -0.5185 -0.5683
25236SOL    HW171474   8.476   6.878   2.384 -1.1189 -0.0033 -0.7784
25236SOL    HW271475   8.583   6.944   2.280 -0.8253 -1.9007 -1.7039
25237SOL     OW71476   1.364   8.992   7.868 -0.2910 -0.2309 -0.0722
25237SOL    HW171477   1.442   9.027   7.920 -0.2398 -0.2948 -0.1055
25237SOL    HW271478   1.388   8.987   7.771 -0.3541 -0.2010 -0.0886
25238SOL     OW71479   1.164   5.405   1.054  0.9124 -0.0600 -0.5669
25238SOL    HW171480   1.198   5.379   0.964 -0.3540 -0.5520 -0.9263
25238SOL    HW271481   1.113   5.491   1.047  1.4044  0.2593 -0.1943
25239SOL     OW71482   0.149   4.455   2.532 -0.1903 -0.0842  0.4478
25239SOL    HW171483   0.138   4.380   2.598  2.8041 -0.1222  0.9792
25239SOL    HW271484   0.151   4.417   2.439  0.1601 -0.5450  0.6394
25241SOL     OW71485   9.033   4.632   2.305  0.3164 -0.3431 -0.0609
25241SOL    HW171486   8.991   4.699   2.368 -2.2571 -0.1209 -1.9137
25241SOL    HW271487   9.031   4.542   2.347 -0.4106 -0.0232  0.6214
25242SOL     OW71488   2.185   7.041   7.642 -0.3587  0.2450  0.4586
25242SOL    HW171489   2.210   7.125   7.595 -2.0719  1.6012  1.9030
25242SOL    HW271490   2.125   6.986   7.583  0.3114  0.2804 -0.2624
25243SOL     OW71491   7.539   8.832   4.816  0.0847 -0.0533 -0.0324
25243SOL    HW171492   7.485   8.749   4.825 -0.7873  0.4768 -0.3759
25243SOL    HW271493   7.606   8.820   4.742 -0.0717 -0.4290 -0.1133
25245SOL     OW71494   0.078   1.761   7.301 -0.6825  0.0245 -0.5630
25245SOL    HW171495   0.077   1.845   7.247 -1.3517  1.4023  1.5148
25245SOL    HW271496   0.164   1.713   7.287 -0.3967  0.9120 -1.9724
25246SOL     OW71497   9.247   8.820   0.010  0.6870 -0.0506  0.5010
25246SOL    HW171498   9.165   8.783  -0.033 -0.0869  2.1987 -0.0115
25246SOL    HW271499   9.259   8.780   0.100 -1.2601 -0.0364  0.7782
25248SOL     OW71500   9.655   7.344   4.397 -0.3196 -0.0881  0.0413
25248SOL    HW171501   9.690   7.400   4.472  3.0017 -2.3495  0.3079
25248SOL    HW271502   9.587   7.280   4.432 -1.7153  1.4892  0.3206
25249SOL     OW71503   5.214   3.311   1.687  0.2831  0.3710 -0.6183
25249SOL    HW171504   5.126   3.274   1.658  0.2114  0.7052 -0.8250
25249SOL    HW271505   5.259   3.357   1.610  1.4472 -1.3406 -0.9967
25250SOL     OW71506   9.676   1.029   1.379  0.1499  0.1718  0.6552
25250SOL    HW171507   9.616   1.027   1.459  0.3166 -0.0409  0.7749
25250SOL    HW271508   9.727   0.944   1.374 -1.0765 -0.5065 -0.6125
25251SOL     OW71509   8.715   6.604   5.576 -0.0792  0.0190 -0.1597
25251SOL    HW171510   8.670   6.691   5.597 -1.0878 -0.6419  0.4725
25251SOL    HW271511   8.705   6.542   5.654  0.6491 -0.6558 -0.5987
25252SOL     OW71512   6.667   2.109   5.413 -0.2230  0.1422  0.4941
25252SOL    HW171513   6.675   2.133   5.317  1.1899 -0.9623  0.3176
25252SOL    HW271514   6.749   2.137   5.462 -0.0657 -1.1007  0.9667
25253SOL     OW71515   5.704   6.108   1.560  0.4630  0.0876  0.2203
25253SOL    HW171516   5.801   6.123   1.578  0.1020  2.2308  0.5124
25253SOL    HW271517   5.686   6.118   1.462  0.5974 -0.7236  0.1093
25254SOL     OW71518   5.933   2.413   0.811  0.4779  0.0062 -0.5389
25254SOL    HW171519   5.967   2.384   0.722 -0.1875 -2.0571 -0.1484
25254SOL    HW271520   5.942   2.337   0.876 -1.3136  0.6922  0.5227
25255SOL     OW71521   9.637   0.796   2.185  0.1814 -0.4580  0.1844
25255SOL    HW171522   9.723   0.753   2.214 -0.9400 -2.3739  0.7440
25255SOL    HW271523   9.560   0.747   2.226 -1.2576  0.0873 -1.8166
25256SOL     OW71524   9.329   4.378   5.835  0.3609 -0.9559  0.3471
25256SOL    HW171525   9.338   4.279   5.850  1.4828 -0.8858  0.1329
25256SOL    HW271526   9.417   4.422   5.848 -0.8060  0.5010  3.9507
25257SOL     OW71527   9.966   9.495   0.457 -0.1642  0.7719  0.0414
25257SOL    HW171528   9.874   9.485   0.419 -1.5809  0.3112  3.4296
25257SOL    HW271529  10.003   9.405   0.477 -0.8845  1.0748  2.9471
25258SOL     OW71530   3.781   0.036   4.459  0.3979  0.2542  0.1740
25258SOL    HW171531   3.849   0.068   4.393  0.3414 -1.7236 -0.8521
25258SOL    HW271532   3.716  -0.025   4.414 -1.0911  0.7958  1.5270
25260SOL     OW71533   6.407   7.979   2.217  0.4218 -0.4168  0.1400
25260SOL    HW171534   6.354   7.982   2.302 -0.3290 -1.5023 -0.2889
25260SOL    HW271535   6.389   7.894   2.169  1.8782 -0.3997 -0.4579
25262SOL     OW71536   4.872   2.461   7.718 -0.0901  0.0073  0.3991
25262SOL    HW171537   4.811   2.389   7.748 -0.1566 -0.2277 -0.2908
25262SOL    HW271538   4.966   2.440   7.746 -0.3835  0.6009  1.8726
25263SOL     OW71539   8.833   5.524   0.764 -0.2224  0.1257  0.7466
25263SOL    HW171540   8.764   5.500   0.696 -0.1139  0.7917  0.4015
25263SOL    HW271541   8.890   5.599   0.730  0.8814 -0.6258  0.8978
25264SOL     OW71542   2.314   9.849   3.167  0.3781  0.1933 -0.1775
25264SOL    HW171543   2.326   9.915   3.242  0.8123 -1.6424  1.4181
25264SOL    HW271544   2.383   9.865   3.097  1.5952  0.3517  1.0207
25265SOL     OW71545   3.459   5.936   6.488  0.4880 -0.0616  0.1858
25265SOL    HW171546   3.469   5.855   6.545  1.9916 -0.1902 -0.2218
25265SOL    HW271547   3.369   5.936   6.445  1.3491 -2.8457 -1.7916
25267SOL     OW71548   5.005   1.838   1.695 -0.6046 -0.1077  0.0430
25267SOL    HW171549   5.031   1.747   1.663  2.3118  1.6114 -2.8080
25267SOL    HW271550   4.944   1.881   1.628  0.2067  1.0281  0.0095
25268SOL     OW71551   2.935   3.251   4.068 -0.2868 -0.1919 -0.2162
25268SOL    HW171552   2.962   3.221   4.159  0.8812  1.3647 -0.0478
25268SOL    HW271553   2.929   3.171   4.008  0.5928 -1.0346  0.7974
25269SOL     OW71554   2.742   9.940   0.269  0.0211  0.0208  0.6925
25269SOL    HW171555   2.652   9.980   0.250  0.1054  0.2146  0.7066
25269SOL    HW271556   2.775   9.895   0.186 -0.8356 -1.5100  1.1445
25270SOL     OW71557   1.212   3.788   4.108  0.2477  0.6934  0.3826
25270SOL    HW171558   1.236   3.859   4.175  0.0149  0.7308  0.4252
25270SOL    HW271559   1.276   3.711   4.117  1.8352  1.7900 -1.0784
25271SOL     OW71560   1.985   7.660   5.047 -0.3399  0.3654 -0.4971
25271SOL    HW171561   1.892   7.685   5.019 -0.7117  1.6102  1.7433
25271SOL    HW271562   1.996   7.561   5.040 -1.9435  0.1784 -0.4765
25272SOL     OW71563   9.008   6.112   2.171 -0.0144  0.0171  0.4332
25272SOL    HW171564   9.001   6.198   2.222  0.3439 -0.0873  0.6595
25272SOL    HW271565   9.104   6.091   2.154 -0.0482 -0.8866  1.3221
25273SOL     OW71566   8.648   1.838   7.294  0.3254  0.1153  0.0390
25273SOL    HW171567   8.693   1.909   7.348 -0.2903 -0.0017  0.7013
25273SOL    HW271568   8.696   1.751   7.306  1.0765  0.4125 -0.7652
25274SOL     OW71569   1.513   8.406   1.749  0.6384  0.1796  0.1094
25274SOL    HW171570   1.419   8.373   1.754  0.7501  0.1012  2.1828
25274SOL    HW271571   1.516   8.502   1.778  1.1264  0.3442 -0.4680
25277SOL     OW71572   4.147   5.668   7.723 -0.2987 -0.4872  0.6694
25277SOL    HW171573   4.096   5.597   7.771 -0.6428 -1.4581 -1.0695
25277SOL    HW271574   4.220   5.626   7.669 -1.4834  0.2927 -1.6077
25278SOL     OW71575   8.557   6.528   4.299  0.3863 -0.0550 -0.3548
25278SOL    HW171576   8.526   6.623   4.308 -1.3334 -0.6938  0.9352
25278SOL    HW271577   8.580   6.509   4.204 -1.7118  0.9478 -1.1016
25279SOL     OW71578   7.120   4.313   0.988  0.3243  0.3835  0.3054
25279SOL    HW171579   7.219   4.303   0.985  0.3499  0.8012 -0.1913
25279SOL    HW271580   7.080   4.283   0.902  0.0296  0.3664  0.4461
25280SOL     OW71581   7.269   6.600   3.381  0.0558 -0.3306  0.0903
25280SOL    HW171582   7.188   6.596   3.322 -1.0024 -0.3608  1.5300
25280SOL    HW271583   7.283   6.511   3.425  0.5480 -0.1649  0.2792
25281SOL     OW71584   8.898   8.316   2.008  0.1045  0.0616  0.5004
25281SOL    HW171585   8.890   8.340   1.911  1.4412 -0.8567  0.1530
25281SOL    HW271586   8.887   8.398   2.064 -0.7130  0.5875 -0.4236
25282SOL     OW71587   5.707   9.457   5.037  0.0296  0.1032  0.5151
25282SOL    HW171588   5.611   9.483   5.034 -0.4072 -1.4182  0.8575
25282SOL    HW271589   5.739   9.456   5.132  0.0606 -0.5314  0.4989
25283SOL     OW71590   4.316   1.782   5.088 -0.3136  0.2047 -0.1525
25283SOL    HW171591   4.353   1.852   5.027 -2.7533  0.7489 -1.0730
25283SOL    HW271592   4.364   1.696   5.075 -1.1656  0.1590 -3.2934
25284SOL     OW71593   8.429   3.873   1.199  0.2470  0.8548 -0.0201
25284SOL    HW171594   8.387   3.860   1.289 -1.8372 -0.7383 -1.1611
25284SOL    HW271595   8.461   3.785   1.164 -1.3204  0.9858 -1.9071
25285SOL     OW71596   7.867   4.069   2.101 -0.3422 -0.3982  0.4460
25285SOL    HW171597   7.951   4.089   2.051 -1.2229  0.1991 -0.8401
25285SOL    HW271598   7.851   4.138   2.171 -0.7609  0.5872 -0.6105
25286SOL     OW71599   2.605   6.132   7.296  0.2012 -0.2397 -0.2203
25286SOL    HW171600   2.647   6.084   7.373  1.1250  0.1098 -0.5052
25286SOL    HW271601   2.576   6.066   7.228 -1.9470 -0.6720  1.0601
25287SOL     OW71602   8.127   3.267  10.084  0.1070 -0.2609  0.1992
25287SOL    HW171603   8.085   3.194  10.031  0.8269  1.1091 -2.3940
25287SOL    HW271604   8.061   3.341  10.097  0.6667  0.4695 -0.9972
25288SOL     OW71605   0.509   3.118   2.575  0.7924 -0.2357  0.4213
25288SOL    HW171606   0.436   3.116   2.508  0.2952 -1.5120  0.9857
25288SOL    HW271607   0.585   3.173   2.540  1.0302 -1.8565 -1.6827
25289SOL     OW71608   9.992   9.427   1.311 -1.0495  0.4448  0.0695
25289SOL    HW171609   9.996   9.387   1.220 -0.1593  1.3063 -0.2844
25289SOL    HW271610  10.021   9.359   1.379  0.0041  0.3326 -0.4745
25290SOL     OW71611   9.212   3.635   7.576  0.0753  0.1086  0.0470
25290SOL    HW171612   9.147   3.711   7.566  1.4483  1.4796  1.3895
25290SOL    HW271613   9.229   3.595   7.486 -1.6894  0.5239 -0.4958
25291SOL     OW71614   2.203   4.453   0.144 -0.0537  0.1409 -0.3724
25291SOL    HW171615   2.288   4.403   0.160  0.0033 -0.2038 -1.7453
25291SOL    HW271616   2.151   4.457   0.229  1.2855  0.2736  0.4611
25292SOL     OW71617   5.775   9.831   5.357 -0.0144 -0.3190  0.4389
25292SOL    HW171618   5.807   9.926   5.354 -0.3413 -0.2615 -2.3893
25292SOL    HW271619   5.693   9.822   5.302 -1.0689 -1.8931  2.2156
25293SOL     OW71620   8.847   5.387   5.729  0.0713  0.3793 -0.1686
25293SOL    HW171621   8.914   5.313   5.740 -0.2913 -0.0278 -0.6408
25293SOL    HW271622   8.813   5.415   5.819  0.2191 -0.0262  0.0162
25295SOL     OW71623   7.711   6.595   5.058  0.0143  0.0187 -0.4911
25295SOL    HW171624   7.649   6.652   5.004  0.4909  0.5208 -0.5150
25295SOL    HW271625   7.802   6.597   5.017  0.0387 -0.7424 -0.4732
25296SOL     OW71626   0.013   7.654   5.013  0.1403  0.2789 -1.4349
25296SOL    HW171627   0.101   7.637   4.969  1.9948  0.3215  2.0572
25296SOL    HW271628   0.004   7.751   5.034 -0.7914  0.2962 -1.9378
25297SOL     OW71629   4.565   9.284   7.055  0.2646 -0.4127  0.4280
25297SOL    HW171630   4.654   9.275   7.011 -1.0184  1.7059 -2.8086
25297SOL    HW271631   4.522   9.194   7.062  1.0612 -0.9747 -1.5885
25298SOL     OW71632   1.100   2.602   2.120 -0.1236  0.0342 -0.1581
25298SOL    HW171633   1.175   2.539   2.142  0.6182  0.8052 -0.4583
25298SOL    HW271634   1.124   2.656   2.040 -0.7851  0.6596  0.0592
25299SOL     OW71635   2.105   9.546   0.514  0.1115 -0.2500 -0.1331
25299SOL    HW171636   2.146   9.456   0.508 -0.8837 -0.8216  1.3481
25299SOL    HW271637   2.031   9.554   0.447  0.2179 -0.5200 -0.2834
25300SOL     OW71638   2.137   2.525   7.449  0.0050  0.1752  0.1220
25300SOL    HW171639   2.068   2.565   7.388 -0.5428  1.0052  1.2834
25300SOL    HW271640   2.094   2.457   7.508  0.9203 -2.1737 -1.8148
25301SOL     OW71641   9.719   5.085   5.189  0.2406  0.9108  0.0387
25301SOL    HW171642   9.676   4.997   5.210 -2.2922  1.6772 -1.7330
25301SOL    HW271643   9.817   5.079   5.208  0.1630 -2.3443 -0.2338
25302SOL     OW71644   5.601   4.769   1.385  0.2011  0.0318 -0.1584
25302SOL    HW171645   5.536   4.829   1.337  0.7008  1.6336  1.1002
25302SOL    HW271646   5.672   4.825   1.427  1.6771 -1.6125 -0.4127
25304SOL     OW71647   3.034   9.654   1.631  0.2573 -0.2491 -0.1503
25304SOL    HW171648   3.025   9.571   1.575 -3.4770  0.2512 -0.3857
25304SOL    HW271649   3.040   9.734   1.571 -1.1104  0.0522  0.0948
25305SOL     OW71650   4.281   5.429   7.260 -0.4199  0.1474 -0.6494
25305SOL    HW171651   4.360   5.405   7.317  0.2609  0.7026 -1.3325
25305SOL    HW271652   4.250   5.521   7.284 -0.8344 -0.0529 -0.4138
25306SOL     OW71653   6.397   0.619   3.320 -0.3107  0.1413  0.1319
25306SOL    HW171654   6.362   0.713   3.318 -0.8609 -0.0441  0.8342
25306SOL    HW271655   6.453   0.603   3.239  0.4266  1.3163  0.3997
25307SOL     OW71656   2.916   2.397   5.955 -0.0214  0.4444 -0.0699
25307SOL    HW171657   2.916   2.481   6.008 -1.5096  0.8457 -0.6943
25307SOL    HW271658   2.967   2.326   6.004  0.2516  1.3655  0.9820
25309SOL     OW71659   7.641   5.686   7.631 -0.2857  0.4292  0.2673
25309SOL    HW171660   7.700   5.766   7.623  0.1724 -0.0751 -1.5178
25309SOL    HW271661   7.694   5.608   7.667 -0.4938  0.6488  1.0649
25310SOL     OW71662   9.700   2.795   6.912  0.2255 -0.0472  0.2467
25310SOL    HW171663   9.695   2.887   6.874  1.7179  0.6037  1.5852
25310SOL    HW271664   9.616   2.776   6.962 -0.7148  0.0082 -1.2709
25311SOL     OW71665   7.117   2.503   0.658 -0.6291  0.3470  0.0511
25311SOL    HW171666   7.041   2.469   0.602 -0.0622  1.6348 -1.5409
25311SOL    HW271667   7.127   2.445   0.739 -0.6191 -2.3976 -1.8208
25312SOL     OW71668   6.919   0.362   2.561  0.2105 -0.6107  0.0697
25312SOL    HW171669   7.014   0.365   2.593  0.4494 -0.9520 -0.5871
25312SOL    HW271670   6.906   0.435   2.494  0.7652 -2.2240 -1.8475
25313SOL     OW71671   4.178   3.331   3.022 -0.3834 -0.2741 -0.0263
25313SOL    HW171672   4.268   3.351   2.982 -1.0635  2.0995 -0.4638
25313SOL    HW271673   4.165   3.389   3.103 -0.9627 -1.6327  0.8679
25314SOL     OW71674   2.068   8.422   4.008 -0.2415  0.4048  0.6914
25314SOL    HW171675   2.150   8.410   4.065  0.5534  0.2709 -0.4774
25314SOL    HW271676   2.005   8.347   4.026  0.2757  0.0219  0.9475
25315SOL     OW71677   9.682   7.608   3.903 -0.8707  0.2195  0.5265
25315SOL    HW171678   9.669   7.514   3.874 -2.0749  0.6714 -0.4336
25315SOL    HW271679   9.760   7.648   3.855  0.1136 -0.5066  1.4977
25316SOL     OW71680   4.894   5.551   2.414 -0.4347  0.0722 -0.0676
25316SOL    HW171681   4.892   5.457   2.381  1.2626 -0.6074  1.7279
25316SOL    HW271682   4.963   5.602   2.363  1.0225 -0.5500  1.2533
25317SOL     OW71683   8.382   1.569   7.011 -0.6321  0.2058  0.3455
25317SOL    HW171684   8.384   1.574   7.110  0.5847  0.5728  0.3220
25317SOL    HW271685   8.381   1.661   6.973  0.1980  0.0868  0.0194
25318SOL     OW71686   8.561   4.022   2.276  0.1189 -0.5445  0.3292
25318SOL    HW171687   8.655   4.045   2.303  0.4443 -1.2231 -0.2257
25318SOL    HW271688   8.497   4.063   2.341  0.7603  0.6245  0.2367
25319SOL     OW71689   8.556   3.921   5.297  0.5888 -0.2856  0.1996
25319SOL    HW171690   8.653   3.912   5.318  0.7253  1.6946  0.5494
25319SOL    HW271691   8.520   4.005   5.339 -1.1951 -0.8293 -0.1816
25322SOL     OW71692   0.910   5.197   3.418 -0.1602 -0.3780  0.2680
25322SOL    HW171693   0.952   5.276   3.464  0.1644 -0.4503  0.0942
25322SOL    HW271694   0.817   5.221   3.389  1.0508  1.0253 -2.6559
25323SOL     OW71695   4.235   5.219   4.112  0.4899  0.4509  0.4763
25323SOL    HW171696   4.190   5.301   4.148  0.2706 -0.1247  1.5210
25323SOL    HW271697   4.299   5.184   4.180 -1.2318 -1.6802  1.0450
25325SOL     OW71698   6.791   6.853   5.084 -0.2407  0.0721  0.0607
25325SOL    HW171699   6.695   6.864   5.110 -1.1923 -1.0445 -2.7999
25325SOL    HW271700   6.826   6.940   5.049 -0.2060  0.4845  1.1162
25326SOL     OW71701   8.703   1.647   1.685  0.0255 -0.5643 -0.0112
25326SOL    HW171702   8.750   1.686   1.606  3.0240 -2.4027  0.7980
25326SOL    HW271703   8.622   1.702   1.705 -0.1248  0.6797 -3.5579
25327SOL     OW71704   7.148   7.163   4.947 -0.2537  0.0396 -0.1969
25327SOL    HW171705   7.145   7.209   4.859 -0.3527  0.3253 -0.0445
25327SOL    HW271706   7.207   7.215   5.010  1.8613 -1.4972 -0.8607
25328SOL     OW71707   0.994   6.958   5.824  0.5087  0.3320 -0.5525
25328SOL    HW171708   1.076   7.015   5.830  0.1104  0.7157  1.6661
25328SOL    HW271709   1.017   6.864   5.850  0.8262 -0.2148 -2.6922
25330SOL     OW71710   7.029   1.156   0.166 -0.1562 -0.3112 -0.1000
25330SOL    HW171711   7.085   1.079   0.196  0.1844 -0.3851 -0.9323
25330SOL    HW271712   6.962   1.125   0.099 -0.9619 -0.1512  0.6201
25331SOL     OW71713   1.750   4.702   3.836 -0.7239  0.4363 -0.4133
25331SOL    HW171714   1.667   4.659   3.871 -0.2129 -0.7015 -0.5718
25331SOL    HW271715   1.830   4.662   3.882 -0.0726 -0.6300 -2.3965
25332SOL     OW71716   2.726   2.632   1.639 -0.0270  0.1490 -0.1555
25332SOL    HW171717   2.808   2.602   1.688  0.4012  0.8006 -0.4732
25332SOL    HW271718   2.645   2.611   1.694  0.3994  0.1743  0.4858
25333SOL     OW71719   3.054   7.354   3.804  0.5604 -0.5595 -0.7420
25333SOL    HW171720   3.076   7.328   3.710  0.2722 -0.3452 -0.8698
25333SOL    HW271721   2.984   7.293   3.839  1.9907 -1.8082 -0.0257
25334SOL     OW71722   2.055   2.127   5.986 -1.1865 -0.3016 -0.0511
25334SOL    HW171723   2.076   2.194   5.915  2.0196  0.4360  1.5043
25334SOL    HW271724   2.044   2.036   5.945  2.0363 -0.1454 -1.4164
25336SOL     OW71725   9.302   6.372   2.803  0.0456 -0.3943 -0.1986
25336SOL    HW171726   9.227   6.307   2.794  0.9057 -1.4908  0.3707
25336SOL    HW271727   9.288   6.448   2.740 -0.0227 -2.0542 -2.2381
25337SOL     OW71728   7.910   2.659   3.892  0.1276 -0.0467  0.2742
25337SOL    HW171729   7.882   2.621   3.804  1.3330 -1.3651  0.4330
25337SOL    HW271730   7.909   2.586   3.961 -0.9809  1.0152  1.3927
25338SOL     OW71731   5.078   1.105   7.918 -0.2480  0.1383 -0.4481
25338SOL    HW171732   4.997   1.142   7.873  0.2625  0.3002 -1.2552
25338SOL    HW271733   5.137   1.062   7.849 -1.6017 -3.6846  0.6776
25340SOL     OW71734   4.440   9.685   7.585  0.0838  0.1294 -0.0471
25340SOL    HW171735   4.357   9.631   7.568 -0.1642  0.7154 -0.7474
25340SOL    HW271736   4.414   9.775   7.620  0.3607  0.7084 -1.3023
25341SOL     OW71737   4.197   8.476   3.808  0.6570  0.3039  0.8393
25341SOL    HW171738   4.110   8.500   3.764  0.8774  0.5798  0.5521
25341SOL    HW271739   4.238   8.398   3.761  1.4088  1.2558 -0.1192
25343SOL     OW71740   8.210   1.069   7.086  0.2732  0.3506  0.8413
25343SOL    HW171741   8.292   1.046   7.139 -0.0583  0.3356  1.3456
25343SOL    HW271742   8.142   1.110   7.146 -0.1106  0.3129  0.4305
25344SOL     OW71743   4.926   2.072   5.822 -0.0760  0.0457 -0.2144
25344SOL    HW171744   4.962   1.981   5.799 -0.1169  0.2077 -0.8992
25344SOL    HW271745   4.927   2.082   5.922  2.3990  0.2825 -0.2097
25347SOL     OW71746   4.488   6.549   1.362 -0.0859  0.4108  0.2956
25347SOL    HW171747   4.550   6.590   1.429 -2.0046  1.0267  1.7621
25347SOL    HW271748   4.457   6.460   1.395  1.8246 -0.9639 -1.5373
25348SOL     OW71749   5.179   8.647   1.954 -0.1705  0.2544  0.0639
25348SOL    HW171750   5.187   8.746   1.965 -1.6684  0.4033 -0.0951
25348SOL    HW271751   5.262   8.612   1.910 -0.4847  1.7322 -1.7732
25350SOL     OW71752   0.822   6.210   3.555  0.3742 -0.3158 -0.3626
25350SOL    HW171753   0.751   6.206   3.626 -0.7851 -2.2380 -1.5827
25350SOL    HW271754   0.813   6.131   3.495  2.5098  0.3239 -1.5646
25352SOL     OW71755   8.871   9.805   3.993  0.0665  0.1772 -0.5456
25352SOL    HW171756   8.936   9.862   3.943  1.7959 -1.4025 -0.1319
25352SOL    HW271757   8.814   9.863   4.051 -0.2918  1.7735 -2.4781
25353SOL     OW71758   7.664   5.876   3.678  0.1141  0.3418 -0.5200
25353SOL    HW171759   7.714   5.792   3.656  0.5961  0.5416 -0.2129
25353SOL    HW271760   7.578   5.853   3.722 -0.2838 -0.0223 -1.4767
25354SOL     OW71761   6.759   0.557   4.285  0.0610  0.7441 -0.2288
25354SOL    HW171762   6.793   0.480   4.338 -1.2467  0.4627  0.2146
25354SOL    HW271763   6.691   0.525   4.219 -1.2086  1.6407  0.6248
25355SOL     OW71764   3.155   9.970   5.829  0.1437  0.1488 -0.4576
25355SOL    HW171765   3.125  10.037   5.897 -0.3319 -0.5845  0.0471
25355SOL    HW271766   3.253   9.953   5.840  0.1076  0.1815 -0.0932
25356SOL     OW71767   2.902   4.258   4.991 -0.5270  0.0922  0.0883
25356SOL    HW171768   2.830   4.250   5.060  0.4277 -0.3408  1.0644
25356SOL    HW271769   2.936   4.353   4.990  0.0387 -0.0936  0.8315
25358SOL     OW71770   5.583   2.983   5.579 -0.8230 -0.5112  0.0395
25358SOL    HW171771   5.629   2.982   5.490 -0.6923 -0.1924  0.1040
25358SOL    HW271772   5.529   3.066   5.589 -1.7590 -1.0928 -0.2069
25360SOL     OW71773   2.324   5.196   0.998 -0.1768  0.0183 -0.3986
25360SOL    HW171774   2.228   5.222   1.012 -0.3256 -0.0826 -1.1960
25360SOL    HW271775   2.373   5.203   1.084 -1.3189 -1.6408  0.4343
25361SOL     OW71776   0.594   7.455   1.953  0.4764  0.5768 -0.8791
25361SOL    HW171777   0.552   7.455   2.044  1.6635  1.1427 -0.3314
25361SOL    HW271778   0.523   7.439   1.885 -0.3656 -0.2539  0.1661
25362SOL     OW71779   0.932   0.778   4.032  0.0034  0.4915 -0.3513
25362SOL    HW171780   0.980   0.700   3.992 -0.1902  0.5818 -0.7634
25362SOL    HW271781   0.966   0.863   3.990 -0.2904  0.5763 -0.4197
25363SOL     OW71782   0.452   8.995   7.157  0.1060 -0.0089  0.1369
25363SOL    HW171783   0.483   9.071   7.214 -1.0473  0.4205  0.2103
25363SOL    HW271784   0.398   8.932   7.213  1.3761 -1.1014  0.1674
25365SOL     OW71785   2.570   3.755   6.652 -0.0978  0.3818 -0.0368
25365SOL    HW171786   2.653   3.806   6.631  0.3844 -0.5387 -0.3596
25365SOL    HW271787   2.568   3.671   6.599  0.2451 -1.0870  2.2251
25366SOL     OW71788   3.631   9.280   0.062 -0.0182 -0.1220 -0.0784
25366SOL    HW171789   3.717   9.230   0.054  0.7387  1.0456  0.6716
25366SOL    HW271790   3.598   9.275   0.156  0.2987  1.1644  0.1064
25367SOL     OW71791   2.804   6.627   2.179 -0.1646 -0.1101  0.3760
25367SOL    HW171792   2.824   6.529   2.187  0.2257 -0.1628 -1.0900
25367SOL    HW271793   2.715   6.640   2.136  0.0732  0.1715 -0.0404
25369SOL     OW71794   0.404   3.254   4.801 -0.1518  0.4396  0.4682
25369SOL    HW171795   0.397   3.309   4.884  0.1379  0.2359  0.6260
25369SOL    HW271796   0.478   3.290   4.744 -1.0184  1.2235 -0.1824
25371SOL     OW71797   9.639   0.761   6.337  0.0359 -0.3231  0.3268
25371SOL    HW171798   9.650   0.694   6.263 -0.5973 -0.1799  0.1032
25371SOL    HW271799   9.637   0.713   6.425  1.1701 -0.4626  0.2829
25372SOL     OW71800   6.655   4.877   0.445  0.7302 -0.2192  0.5618
25372SOL    HW171801   6.603   4.907   0.525  0.1121 -1.3659  0.6145
25372SOL    HW271802   6.718   4.804   0.472  1.1440  0.0004  0.1767
25373SOL     OW71803   4.969   0.554   7.339  0.2200  0.4664 -0.5623
25373SOL    HW171804   5.038   0.588   7.275  0.8481  0.8781  0.3242
25373SOL    HW271805   4.936   0.629   7.395  0.5849 -0.1224  0.4491
25374SOL     OW71806   0.169   4.599   4.352 -0.1514 -0.5888  0.4992
25374SOL    HW171807   0.244   4.543   4.316  1.3838  0.9979  1.1511
25374SOL    HW271808   0.120   4.641   4.275  1.0505  0.1618  0.1229
25375SOL     OW71809   0.891   9.731   2.999 -0.4762 -0.6146  0.1765
25375SOL    HW171810   0.839   9.729   3.085 -2.3105  1.2278 -0.8425
25375SOL    HW271811   0.850   9.666   2.935 -0.3625 -0.5133  0.0015
25377SOL     OW71812   4.442   0.203   1.280  0.3010  0.4613  0.3565
25377SOL    HW171813   4.459   0.208   1.378  1.6111  0.0417  0.1585
25377SOL    HW271814   4.355   0.248   1.259  0.8343  2.0618  1.4865
25378SOL     OW71815   9.530   9.578   1.782 -0.0133 -0.3027  0.0054
25378SOL    HW171816   9.520   9.570   1.882 -0.1217 -1.2359 -0.0758
25378SOL    HW271817   9.578   9.663   1.760  0.7858 -0.5088  0.9015
25379SOL     OW71818   8.754   3.692   5.123  0.4164 -0.7975  0.1315
25379SOL    HW171819   8.817   3.723   5.194 -0.9574  1.4380  0.4303
25379SOL    HW271820   8.797   3.619   5.069  2.1884 -1.1970  2.0272
25380SOL     OW71821   1.221   1.474   5.766  0.2538 -0.2359  0.1807
25380SOL    HW171822   1.279   1.443   5.690 -0.1436 -1.5454  0.3967
25380SOL    HW271823   1.199   1.396   5.824  1.5781  0.9854  2.3648
25381SOL     OW71824   8.554   9.865   4.830  0.0772 -0.2606 -0.9447
25381SOL    HW171825   8.638   9.810   4.829  1.1344  1.2440  1.0577
25381SOL    HW271826   8.483   9.816   4.881  0.3387 -0.7260 -1.0210
25382SOL     OW71827   6.948   4.765   0.692  0.0874 -0.0664 -0.2754
25382SOL    HW171828   6.974   4.782   0.597 -1.1240 -2.5237 -1.0638
25382SOL    HW271829   7.028   4.733   0.743  0.9363  2.0252 -0.2128
25384SOL     OW71830   1.785   9.267   1.449  0.0070  0.1534  0.4171
25384SOL    HW171831   1.771   9.255   1.351  0.8933 -0.1890  0.3243
25384SOL    HW271832   1.699   9.293   1.493 -0.4825 -0.1073 -0.3859
25385SOL     OW71833   1.771   9.328   5.650 -0.3680 -0.5100  0.2414
25385SOL    HW171834   1.741   9.379   5.730 -3.1124 -1.2680 -0.2435
25385SOL    HW271835   1.833   9.254   5.678  0.9390  0.9686  1.3112
25386SOL     OW71836   9.706   3.284   6.607  0.0082 -0.2361  0.0991
25386SOL    HW171837   9.624   3.300   6.662  0.2272  0.5149  0.2092
25386SOL    HW271838   9.689   3.209   6.543 -0.9199  0.2085 -0.1924
25387SOL     OW71839   8.320   5.066   3.107  0.0041 -0.2196  0.1274
25387SOL    HW171840   8.234   5.040   3.063  0.8698 -1.0961 -1.0959
25387SOL    HW271841   8.388   4.996   3.089  1.0889  0.6641  0.7525
25388SOL     OW71842   9.983   4.272   5.159  0.2275  0.2692 -0.5133
25388SOL    HW171843   9.983   4.186   5.107  0.5683  0.4276 -0.7769
25388SOL    HW271844   9.910   4.331   5.124 -1.1249 -0.5872  0.7977
25389SOL     OW71845   7.641   3.769   2.248  0.1544  0.7985  0.8026
25389SOL    HW171846   7.664   3.692   2.308 -0.3795 -0.9494 -1.1799
25389SOL    HW271847   7.686   3.757   2.160 -2.0595  1.3752 -0.4498
25390SOL     OW71848   7.290   8.466   3.216  0.3065  0.0104  0.0416
25390SOL    HW171849   7.389   8.450   3.224  0.0753 -0.9630  1.0670
25390SOL    HW271850   7.268   8.557   3.250  1.0350  0.7785 -1.5071
25392SOL     OW71851   0.554   5.038   1.014 -0.0360  0.2853  0.2384
25392SOL    HW171852   0.505   5.125   1.019 -4.2102 -2.1184  4.6470
25392SOL    HW271853   0.632   5.039   1.076 -0.4970  0.6356  0.8096
25393SOL     OW71854   3.435   7.933   4.941 -0.0489  0.3343  0.1950
25393SOL    HW171855   3.439   7.969   4.847  0.0883  0.4371  0.2402
25393SOL    HW271856   3.466   7.838   4.942  0.6244  0.5553  0.2488
25395SOL     OW71857   2.599   3.514   4.981 -0.0578 -0.4606 -0.3616
25395SOL    HW171858   2.679   3.573   4.981  0.5589 -1.2826 -0.2294
25395SOL    HW271859   2.531   3.549   5.046  0.6277 -0.3399  0.2916
25397SOL     OW71860   0.273   9.725   6.145  0.9206 -0.3915 -0.2930
25397SOL    HW171861   0.362   9.719   6.190  0.4221  1.1206  0.9495
25397SOL    HW271862   0.239   9.819   6.152 -0.8465 -0.9891 -0.6236
25398SOL     OW71863   2.023   6.757   1.859  0.3851 -0.0391  0.4975
25398SOL    HW171864   1.933   6.754   1.902 -0.4110 -0.0511 -1.1429
25398SOL    HW271865   2.014   6.740   1.761  2.0958  0.5949  0.2083
25400SOL     OW71866   7.022   8.293   7.243  0.0069 -0.0147  0.0799
25400SOL    HW171867   7.026   8.194   7.254 -1.5406 -0.0674  0.2015
25400SOL    HW271868   6.976   8.334   7.321  0.2990  0.7786 -0.1511
25401SOL     OW71869   0.982   5.093   0.185 -0.0159 -0.4798  0.5106
25401SOL    HW171870   1.076   5.098   0.151  0.1935  0.1789  1.1764
25401SOL    HW271871   0.925   5.155   0.131 -0.0320 -0.7458  0.2218
25403SOL     OW71872   0.416   9.115   6.676 -0.1223 -0.4229 -0.5194
25403SOL    HW171873   0.481   9.191   6.674 -0.3742 -0.0701  2.6275
25403SOL    HW271874   0.467   9.029   6.676  0.3350 -0.1674  0.5187
25405SOL     OW71875   9.967   0.888   0.570 -0.0876  0.4510  0.0152
25405SOL    HW171876  10.008   0.845   0.489 -1.2623 -0.3919 -0.1652
25405SOL    HW271877  10.026   0.961   0.603  0.6187  0.5233 -1.3548
25407SOL     OW71878   4.586   6.832   3.921  0.4957  0.0553 -0.3994
25407SOL    HW171879   4.657   6.807   3.987  0.0524 -0.6743 -0.1955
25407SOL    HW271880   4.587   6.931   3.907  1.2821  0.0930 -0.0904
25408SOL     OW71881   0.216   7.643   3.201  0.1568  0.0574 -0.1040
25408SOL    HW171882   0.140   7.638   3.265 -1.1919  1.6580 -1.5269
25408SOL    HW271883   0.301   7.657   3.251 -0.3626 -2.3791  1.5434
25409SOL     OW71884   2.694   4.232   7.921 -0.4399 -0.0287  0.1993
25409SOL    HW171885   2.614   4.195   7.969  0.4174  0.6762  2.2567
25409SOL    HW271886   2.681   4.330   7.907 -0.1606 -0.0106  0.0760
25412SOL     OW71887   8.357   5.267   7.415  0.5357 -0.2667  0.1064
25412SOL    HW171888   8.268   5.309   7.430  0.9609  0.6389  0.1427
25412SOL    HW271889   8.367   5.244   7.318  0.1344 -0.6788  0.1594
25413SOL     OW71890   9.193   6.522   3.176  0.0498 -0.2871 -0.3345
25413SOL    HW171891   9.194   6.477   3.265  1.6892 -1.4634 -0.9344
25413SOL    HW271892   9.140   6.466   3.111  1.1986 -0.8352 -0.8073
25415SOL     OW71893   6.465   9.557   1.490 -0.1576  0.1925 -0.4325
25415SOL    HW171894   6.468   9.523   1.396  0.2451 -0.0033 -0.3507
25415SOL    HW271895   6.545   9.614   1.508  1.4205 -2.2949  0.7336
25416SOL     OW71896   6.605   1.091   0.066 -0.1083 -0.2877 -0.0114
25416SOL    HW171897   6.680   1.085   0.001 -0.2624  0.8061 -0.2933
25416SOL    HW271898   6.536   1.154   0.032  1.1620  2.6069  2.5143
25417SOL     OW71899   4.007   1.072   5.432 -0.6149 -0.2055 -0.1992
25417SOL    HW171900   3.992   0.981   5.470 -0.8520  1.4527  3.9886
25417SOL    HW271901   4.096   1.106   5.462 -1.7344  2.0329  0.6929
25419SOL     OW71902   8.609   4.372   7.039 -0.4766 -0.2153 -0.3639
25419SOL    HW171903   8.520   4.326   7.040 -1.4034  1.5340  1.1163
25419SOL    HW271904   8.661   4.345   7.121 -0.2906 -0.0309 -0.4221
25421SOL     OW71905   2.402   3.158   5.323 -0.3568 -0.1554 -0.1625
25421SOL    HW171906   2.422   3.185   5.417 -4.7211  1.4726  0.3956
25421SOL    HW271907   2.451   3.219   5.260  2.3038 -1.0294  0.9716
25422SOL     OW71908   2.723   8.848   7.707 -0.2199  0.3417 -0.5099
25422SOL    HW171909   2.761   8.938   7.686  1.9485 -0.1901  0.8400
25422SOL    HW271910   2.776   8.778   7.659  1.9166 -0.5549  2.9241
25424SOL     OW71911   5.913   2.302   4.432 -0.0723 -0.1831 -0.2963
25424SOL    HW171912   5.859   2.379   4.398  0.0409  0.2933  0.5920
25424SOL    HW271913   6.000   2.298   4.382 -0.5720 -0.4518 -1.1565
25425SOL     OW71914   9.257   0.310   2.923 -0.0521  0.1350  0.2222
25425SOL    HW171915   9.260   0.255   3.007 -0.7796  2.0669  1.5606
25425SOL    HW271916   9.348   0.346   2.904 -0.0581  0.4109  0.6948
25426SOL     OW71917   6.692   9.637   2.566 -0.1171 -0.0743 -0.4946
25426SOL    HW171918   6.689   9.581   2.483  1.0463 -0.6968 -0.1372
25426SOL    HW271919   6.619   9.608   2.628 -1.6171  1.0648 -1.7023
25427SOL     OW71920   2.012   1.147   1.990 -0.3059  0.0112  0.4417
25427SOL    HW171921   2.001   1.050   2.014 -1.1195 -0.0950 -0.3177
25427SOL    HW271922   2.000   1.203   2.072 -0.8476 -0.4725  0.7029
25428SOL     OW71923   9.573   5.298   1.197  0.0552 -0.1011 -0.2133
25428SOL    HW171924   9.603   5.211   1.237 -0.7731 -0.6518 -0.7529
25428SOL    HW271925   9.644   5.366   1.208  0.4482 -0.6643  0.8285
25429SOL     OW71926   6.207   1.516   0.437  0.6906 -0.1701 -0.4034
25429SOL    HW171927   6.134   1.480   0.495  0.0293  0.4940 -0.8250
25429SOL    HW271928   6.222   1.454   0.360  1.5634 -1.0516  0.4528
25430SOL     OW71929   2.791   0.527   4.856 -0.4676  0.0770  0.0352
25430SOL    HW171930   2.734   0.451   4.823  0.6684 -0.5251 -0.5603
25430SOL    HW271931   2.739   0.612   4.848 -2.1260 -0.7475  1.6517
25431SOL     OW71932   0.428   2.821   2.604  0.4799 -0.0380  0.0305
25431SOL    HW171933   0.501   2.803   2.670 -2.0205 -3.8552  1.9589
25431SOL    HW271934   0.439   2.761   2.525 -0.1985 -0.1281  0.0030
25432SOL     OW71935   6.283   3.243   0.728 -0.0370 -0.2126  0.2379
25432SOL    HW171936   6.340   3.169   0.763  1.4119 -0.2163 -2.0386
25432SOL    HW271937   6.230   3.211   0.650 -1.0715  0.5593  0.6101
25434SOL     OW71938   8.713   5.868   2.271 -0.1424  0.0881  0.0020
25434SOL    HW171939   8.805   5.870   2.310 -0.3476  1.4273  0.4302
25434SOL    HW271940   8.660   5.946   2.306 -1.0882 -0.0538 -1.1000
25435SOL     OW71941   6.631   4.843   7.365 -0.3314 -0.2947 -0.0754
25435SOL    HW171942   6.658   4.783   7.441  0.6543 -0.3078 -0.4304
25435SOL    HW271943   6.648   4.938   7.390 -1.0199 -0.2222  0.1286
25436SOL     OW71944   4.109   7.928   3.823 -0.3460  0.8360  0.7345
25436SOL    HW171945   4.208   7.936   3.827 -0.5059  2.5226  2.1579
25436SOL    HW271946   4.081   7.834   3.843  1.0010  0.0853 -0.8354
25437SOL     OW71947   6.435   7.949   5.785  0.6017  0.3190  0.0754
25437SOL    HW171948   6.382   7.877   5.739  0.0006 -0.1990  1.5423
25437SOL    HW271949   6.485   8.002   5.717  1.9189 -2.1696 -0.9633
25438SOL     OW71950   1.156   5.711   6.494 -0.0889 -0.0158 -1.0252
25438SOL    HW171951   1.229   5.724   6.427  2.1201 -2.5916  0.7732
25438SOL    HW271952   1.091   5.644   6.459 -0.7371  1.0863 -1.9591
25439SOL     OW71953   9.028   5.100   2.217 -0.2253 -0.0510  0.4700
25439SOL    HW171954   9.072   5.011   2.211 -1.0169 -0.4333  0.1842
25439SOL    HW271955   8.953   5.105   2.150 -0.1173  0.8634  0.4128
25441SOL     OW71956   8.604   0.637   6.314 -0.0119  0.1393  0.2385
25441SOL    HW171957   8.537   0.702   6.349  0.5037  1.2044 -0.6908
25441SOL    HW271958   8.620   0.655   6.217  1.3364 -0.3381  0.3610
25443SOL     OW71959   0.063   9.900   4.575  0.7508 -0.1411  0.1163
25443SOL    HW171960  -0.025   9.945   4.557  0.9777 -0.4273 -1.7388
25443SOL    HW271961   0.051   9.801   4.572  1.1437 -0.1818 -0.1726
25444SOL     OW71962   0.626   4.459   2.829 -0.3114 -0.6141 -0.0959
25444SOL    HW171963   0.565   4.474   2.751  0.4206  2.0269 -0.2173
25444SOL    HW271964   0.572   4.441   2.911 -1.1550 -1.0658 -0.7404
25445SOL     OW71965   1.775   0.887   3.089 -0.4207 -0.1731 -0.1433
25445SOL    HW171966   1.855   0.872   3.148 -1.6412 -0.7422  1.4170
25445SOL    HW271967   1.760   0.985   3.078  0.9411 -0.0645 -1.0819
25446SOL     OW71968   1.731   6.058   5.229 -0.4866 -0.6817 -0.3060
25446SOL    HW171969   1.795   6.016   5.164 -0.4143 -0.7292 -0.2049
25446SOL    HW271970   1.744   6.157   5.229 -0.9850 -0.6127 -0.8948
25447SOL     OW71971   0.168   3.413   7.673  0.0621 -0.1083  0.0224
25447SOL    HW171972   0.161   3.441   7.768  0.0414 -1.4599  0.4188
25447SOL    HW271973   0.256   3.444   7.635  0.2012  0.1590  0.5660
25448SOL     OW71974   4.501   6.922   4.614 -0.8900  0.3534 -0.1277
25448SOL    HW171975   4.510   6.893   4.518  0.2832 -1.2912  0.4532
25448SOL    HW271976   4.465   6.847   4.668  1.9925 -0.0221  1.3808
25449SOL     OW71977   1.252   0.460   6.623  0.2152  0.2542 -0.1314
25449SOL    HW171978   1.158   0.493   6.619 -0.0404 -0.5719 -1.1938
25449SOL    HW271979   1.251   0.360   6.635  0.9594  0.3338  0.6179
25450SOL     OW71980   0.102   3.020   5.291 -0.3194 -0.7762  0.2930
25450SOL    HW171981   0.006   3.036   5.312 -0.5647 -1.2245 -0.4548
25450SOL    HW271982   0.136   2.943   5.345  0.0039  0.2461  1.5750
25451SOL     OW71983   9.949   7.553   5.822 -0.8267 -0.8499  0.0125
25451SOL    HW171984  10.011   7.550   5.899  0.3195  0.7822 -0.8254
25451SOL    HW271985   9.979   7.488   5.752 -0.0043 -0.0021 -0.4269
25452SOL     OW71986   1.086   2.929   2.701  0.2263  0.1101 -0.1062
25452SOL    HW171987   1.132   3.017   2.710 -1.8602  1.1960  0.3591
25452SOL    HW271988   1.043   2.923   2.611 -1.8355  0.6843  0.8201
25454SOL     OW71989   0.259   2.278   4.051  0.0620 -0.1677  0.3885
25454SOL    HW171990   0.175   2.332   4.063  0.5733  0.7073  0.0658
25454SOL    HW271991   0.253   2.195   4.107 -0.8026  0.1404  0.7693
25456SOL     OW71992   7.959   3.344   4.289 -0.1270  1.0073  0.2754
25456SOL    HW171993   8.034   3.352   4.223 -0.0512  0.8654  0.3427
25456SOL    HW271994   7.918   3.253   4.283 -0.3953  1.1376  0.1321
25457SOL     OW71995   6.977   9.238   5.681  0.5603  0.3504  0.4158
25457SOL    HW171996   7.059   9.196   5.720  0.9339 -0.8565 -1.5865
25457SOL    HW271997   7.000   9.285   5.596 -0.6581  0.7982  0.3158
25459SOL     OW71998   5.382   3.177   5.508  0.1692 -0.2126 -0.8641
25459SOL    HW171999   5.291   3.135   5.509 -0.3851  0.9097  1.3233
25459SOL    HW272000   5.384   3.252   5.442 -1.2580  1.2536  0.7055
25460SOL     OW72001   5.858   0.244   3.415  0.4798 -0.7822  0.0894
25460SOL    HW172002   5.956   0.251   3.400  0.9332 -1.1247  2.7283
25460SOL    HW272003   5.832   0.301   3.493 -1.5997  0.1906 -1.2801
25461SOL     OW72004   9.099   2.663   1.223  0.1215 -0.0981 -0.3622
25461SOL    HW172005   9.102   2.701   1.316 -1.3408 -1.6217  0.3277
25461SOL    HW272006   9.163   2.714   1.165  0.5223  1.3576  1.2865
25462SOL     OW72007   3.938   1.449   3.195 -0.0748  0.5246 -0.4159
25462SOL    HW172008   3.955   1.381   3.267  2.1863  0.5623 -0.8601
25462SOL    HW272009   3.841   1.449   3.171 -0.7001 -0.1717  1.9559
25463SOL     OW72010   9.863   3.142   3.577  1.1404  0.1770  0.0576
25463SOL    HW172011   9.827   3.235   3.588  0.0303 -0.0523 -1.4660
25463SOL    HW272012   9.943   3.130   3.635  1.5608  2.2298 -0.0680
25465SOL     OW72013   1.272   5.802   5.871 -0.3955  0.2335  0.2757
25465SOL    HW172014   1.313   5.871   5.932  3.6199 -0.6324 -1.2763
25465SOL    HW272015   1.317   5.807   5.781 -3.9020 -0.7383 -1.6021
25466SOL     OW72016   6.864   9.903   2.007  0.0413 -0.0099 -0.3081
25466SOL    HW172017   6.862   9.888   2.106  1.9823 -1.3039 -0.4426
25466SOL    HW272018   6.831   9.995   1.987 -0.8851  0.0760  1.4880
25467SOL     OW72019   8.370   2.419   4.207 -0.5804  0.2462 -0.4193
25467SOL    HW172020   8.285   2.382   4.171  0.4567 -0.6283 -2.0564
25467SOL    HW272021   8.401   2.363   4.284 -0.0739 -1.1302 -1.5880
25468SOL     OW72022   4.509   4.104   0.333  0.5435 -0.1433 -0.0023
25468SOL    HW172023   4.484   4.155   0.251  1.5753  0.8897  0.3131
25468SOL    HW272024   4.590   4.145   0.375  0.3762 -1.0117  1.2137
25469SOL     OW72025   7.743   8.909   1.952 -0.1922  0.1878  0.1350
25469SOL    HW172026   7.733   8.937   2.048  0.1567  0.0246  0.2183
25469SOL    HW272027   7.691   8.825   1.936  0.4769 -0.2705  0.3952
25470SOL     OW72028   9.967   8.964   6.549 -0.5036  0.0230  0.1084
25470SOL    HW172029  10.027   9.038   6.518  1.0080 -1.3116 -0.2401
25470SOL    HW272030   9.876   8.976   6.508 -0.0122  1.1632 -0.6929
25471SOL     OW72031   3.424   5.175   3.209 -0.3752  0.6525  0.0069
25471SOL    HW172032   3.492   5.137   3.145  0.8604 -0.9324  2.2134
25471SOL    HW272033   3.345   5.114   3.212  0.5439 -0.4921  1.6702
25472SOL     OW72034   6.682   4.690   1.119  0.3447  0.1002 -0.1185
25472SOL    HW172035   6.752   4.725   1.180  1.4442  2.3245 -2.5299
25472SOL    HW272036   6.616   4.762   1.099 -1.0835 -1.1540 -0.0502
25473SOL     OW72037   7.829   4.893   3.037 -0.3925  0.4975 -0.1332
25473SOL    HW172038   7.747   4.945   3.014 -0.5422  1.3530  2.1694
25473SOL    HW272039   7.816   4.848   3.126  1.7928  1.0054  0.4766
25474SOL     OW72040   2.562   6.151   6.196 -0.2916 -0.2101 -0.2951
25474SOL    HW172041   2.633   6.168   6.263  0.4186  1.4136 -1.4159
25474SOL    HW272042   2.595   6.087   6.127 -0.1389  0.0339 -0.4505
25475SOL     OW72043   5.114   0.386   2.594  0.2528 -0.3017  0.0782
25475SOL    HW172044   5.016   0.376   2.611  0.0835 -0.1936 -0.7933
25475SOL    HW272045   5.140   0.331   2.514  0.8217 -0.0016  0.0535
25476SOL     OW72046   5.610   9.778   2.989  0.2979 -0.0564 -0.1358
25476SOL    HW172047   5.531   9.796   3.048 -0.5077 -2.3228 -0.4731
25476SOL    HW272048   5.691   9.821   3.028 -0.6550  0.3622  1.4406
25477SOL     OW72049   6.775   5.127   2.063 -0.2445  0.5694 -0.0498
25477SOL    HW172050   6.835   5.203   2.086 -0.0496  0.6326 -0.7518
25477SOL    HW272051   6.821   5.040   2.083 -0.8155  0.6381  1.6160
25478SOL     OW72052   7.221   8.200   5.852  0.5346 -0.4721  0.5527
25478SOL    HW172053   7.180   8.139   5.784  1.6471 -0.1427 -0.4344
25478SOL    HW272054   7.231   8.291   5.813  0.7603 -0.1611  1.3252
25479SOL     OW72055   1.928   0.767   0.574 -0.4011 -0.2510  0.0273
25479SOL    HW172056   2.013   0.797   0.531 -1.3878  0.7239 -1.3177
25479SOL    HW272057   1.874   0.715   0.507 -0.9628 -0.6601  0.7948
25481SOL     OW72058   6.210   2.601   4.417 -0.2552 -0.2468 -0.5087
25481SOL    HW172059   6.116   2.637   4.421 -0.2963 -0.5175  1.6102
25481SOL    HW272060   6.246   2.592   4.509  1.6228 -0.8259 -1.2734
25482SOL     OW72061   5.869   5.881   1.129 -0.4982 -0.4613 -0.4987
25482SOL    HW172062   5.910   5.839   1.048  0.3347  1.6262 -1.2017
25482SOL    HW272063   5.940   5.897   1.197 -0.3873  1.8219 -1.1275
25483SOL     OW72064   0.801   9.905   5.538 -0.0973 -0.4873 -0.1782
25483SOL    HW172065   0.873   9.962   5.499 -1.4318  2.1783  1.0895
25483SOL    HW272066   0.712   9.934   5.502 -0.8720 -1.3757  0.9609
25484SOL     OW72067   4.293   1.889   5.324  0.7167 -0.1735 -0.2849
25484SOL    HW172068   4.245   1.832   5.391 -0.5427  0.7683 -0.3557
25484SOL    HW272069   4.301   1.839   5.238  1.3968 -0.9908  0.2523
25485SOL     OW72070   6.805   2.991   3.160 -0.3197 -0.0363 -0.1340
25485SOL    HW172071   6.793   3.088   3.139 -1.2896 -0.3597 -1.0774
25485SOL    HW272072   6.741   2.936   3.106  0.7308 -1.2615 -0.1625
25486SOL     OW72073   0.111   0.348   5.160 -0.3143  0.4045  0.1307
25486SOL    HW172074   0.109   0.394   5.071 -3.5292 -0.8079 -0.4859
25486SOL    HW272075   0.128   0.250   5.147  0.1627  0.3723  0.9430
25488SOL     OW72076   3.686   9.295   4.543  0.3890  0.1259  0.0491
25488SOL    HW172077   3.676   9.372   4.607  3.4205  1.0627 -0.5008
25488SOL    HW272078   3.750   9.229   4.580  1.3246  0.1324 -1.5246
25489SOL     OW72079   7.634   0.611   6.612  0.4529  0.0512 -0.2732
25489SOL    HW172080   7.730   0.638   6.603  0.7927 -1.6051 -1.7110
25489SOL    HW272081   7.577   0.671   6.555  0.7335  0.3837 -0.2079
25490SOL     OW72082   1.889   0.497   7.488  0.0716  0.4124  0.4228
25490SOL    HW172083   1.987   0.477   7.496  0.0631  0.5811  0.9748
25490SOL    HW272084   1.839   0.445   7.558 -0.2508  0.2061  0.0401
25491SOL     OW72085   1.378   8.651   1.537 -0.8242 -0.0123 -0.4148
25491SOL    HW172086   1.365   8.698   1.449 -0.4379  1.1273  0.1203
25491SOL    HW272087   1.428   8.566   1.523 -0.9927  0.0401 -1.3392
25493SOL     OW72088   2.124   4.941   7.364  0.2847  0.2171  0.4738
25493SOL    HW172089   2.199   4.875   7.359 -0.7417 -0.8472 -1.5110
25493SOL    HW272090   2.137   5.011   7.293 -0.3048  0.3287  0.4760
25494SOL     OW72091   0.530   6.970   0.137  0.5770  0.2539  0.1655
25494SOL    HW172092   0.543   7.070   0.137 -0.2191  0.3595 -0.6093
25494SOL    HW272093   0.583   6.930   0.212  2.6276  1.0463 -0.8214
25495SOL     OW72094   3.769   6.845   6.920  0.4360 -0.0470 -0.4994
25495SOL    HW172095   3.783   6.861   7.018  0.4634 -0.8846 -0.3674
25495SOL    HW272096   3.750   6.932   6.875  0.9092  0.4124  0.1711
25496SOL     OW72097   3.747   7.768   5.573  0.0806  0.4091 -0.1713
25496SOL    HW172098   3.665   7.805   5.529  0.3513 -1.4675 -2.3752
25496SOL    HW272099   3.722   7.728   5.661 -1.8196 -1.9705 -1.6963
25498SOL     OW72100   7.802   1.894   7.858 -0.2026 -0.2051 -0.3653
25498SOL    HW172101   7.725   1.836   7.832 -0.9321  0.3682  0.4630
25498SOL    HW272102   7.824   1.956   7.783 -0.2385 -0.6968 -0.7824
25499SOL     OW72103   8.957   5.744   7.430 -0.0226  0.0595 -0.2130
25499SOL    HW172104   9.044   5.721   7.474  0.5205  0.5500 -1.0183
25499SOL    HW272105   8.970   5.824   7.370 -0.8848 -0.2228 -0.7852
25500SOL     OW72106   3.441   4.967   7.467  0.0266 -0.5622  0.6964
25500SOL    HW172107   3.451   5.060   7.503 -0.3516  0.3304 -1.3974
25500SOL    HW272108   3.528   4.939   7.425 -0.6337 -0.0943 -1.0201
25501SOL     OW72109   0.895   8.621   3.810  0.2642  0.0655  0.2137
25501SOL    HW172110   0.938   8.534   3.787 -0.3924  0.1768 -1.5035
25501SOL    HW272111   0.879   8.626   3.909 -0.0745 -1.9241  0.2667
25502SOL     OW72112   3.214   2.764   1.650  0.8621 -0.0561 -0.0714
25502SOL    HW172113   3.308   2.731   1.635  1.2042 -0.2916  2.3651
25502SOL    HW272114   3.159   2.690   1.688  0.5740  1.0121  1.6383
25503SOL     OW72115   1.457   5.257   0.710  0.4306 -0.3408  0.1048
25503SOL    HW172116   1.485   5.191   0.780 -1.8722 -1.6271 -0.1519
25503SOL    HW272117   1.509   5.240   0.626  0.5587 -1.2055  0.3525
25504SOL     OW72118   8.460   5.154   5.535 -0.2985 -0.1950  0.4463
25504SOL    HW172119   8.365   5.130   5.553 -0.2138  1.8170  3.8574
25504SOL    HW272120   8.464   5.235   5.476 -0.7431  1.3463  2.5149
25505SOL     OW72121   8.837   8.406   6.101 -0.5216 -0.0365  0.3025
25505SOL    HW172122   8.919   8.462   6.098 -0.5967  0.0819  0.4580
25505SOL    HW272123   8.757   8.464   6.118 -0.8921  0.1153 -1.8723
25506SOL     OW72124   6.217   7.213   5.545  0.9024  0.5522 -0.0099
25506SOL    HW172125   6.311   7.209   5.513  1.6499 -1.6121  2.3279
25506SOL    HW272126   6.178   7.121   5.548 -0.4117  1.1140  1.5077
25507SOL     OW72127   4.444   0.797   0.927  0.0524 -0.3865  0.2727
25507SOL    HW172128   4.493   0.828   0.846 -1.2347  1.2725  0.0901
25507SOL    HW272129   4.509   0.766   0.996  1.2143 -0.6764 -0.9418
25508SOL     OW72130   6.996   4.117   1.591  0.0945  0.5834  0.4073
25508SOL    HW172131   7.082   4.092   1.635  0.0875 -0.5089 -0.1742
25508SOL    HW272132   6.936   4.037   1.585 -1.0471  1.3725  0.9737
25509SOL     OW72133   1.527   2.989   6.447 -0.1133 -0.5556 -0.2016
25509SOL    HW172134   1.501   2.924   6.519  0.7012 -0.2565  0.3692
25509SOL    HW272135   1.607   3.040   6.477 -1.5808  1.7085 -0.0467
25510SOL     OW72136   5.245   9.818   7.935  0.1925  0.1097  0.4299
25510SOL    HW172137   5.324   9.814   7.996 -0.6615 -0.0499  1.5435
25510SOL    HW272138   5.186   9.894   7.962  0.1338  0.4587 -0.6281
25512SOL     OW72139   3.796   9.977   2.132 -0.2224 -0.4368 -0.0819
25512SOL    HW172140   3.875   9.919   2.153  0.4158 -0.1760 -1.6394
25512SOL    HW272141   3.818  10.035   2.053 -1.4885  0.6320  0.3426
25513SOL     OW72142   7.808   2.569   2.085  0.1635 -0.1342 -0.0405
25513SOL    HW172143   7.828   2.538   1.992 -1.4581 -0.2951 -0.3524
25513SOL    HW272144   7.862   2.515   2.150 -2.3981 -3.5401 -0.5798
25514SOL     OW72145   4.034   3.114   3.219 -0.1472 -0.1506  0.3428
25514SOL    HW172146   4.046   3.069   3.307  3.0389  1.6495  0.9105
25514SOL    HW272147   4.092   3.069   3.151 -1.2031 -0.3686 -0.4305
25515SOL     OW72148   7.295   1.412   3.742  0.1636  0.3408  0.0579
25515SOL    HW172149   7.314   1.476   3.817 -0.0005 -0.3357  0.6872
25515SOL    HW272150   7.248   1.461   3.668 -0.0965  0.9135  0.5905
25516SOL     OW72151   2.137   9.225   1.224 -0.3688  0.0932  0.3419
25516SOL    HW172152   2.067   9.156   1.241 -0.8893  0.7365  0.8225
25516SOL    HW272153   2.220   9.181   1.190 -1.1006 -0.6392 -0.4979
25518SOL     OW72154   1.874   9.900   2.754 -0.8715 -0.3281  0.3811
25518SOL    HW172155   1.851   9.808   2.721  1.1351  0.0065 -2.1152
25518SOL    HW272156   1.792   9.945   2.789 -2.3086 -2.2112 -0.5056
25519SOL     OW72157   9.634   0.511   4.147  0.2506 -0.3339  0.1840
25519SOL    HW172158   9.630   0.440   4.077  0.2706  0.2803 -0.4460
25519SOL    HW272159   9.683   0.591   4.111 -1.2838  0.6632  0.2856
25520SOL     OW72160   0.974   0.087   1.912 -0.3764  0.4522  0.7007
25520SOL    HW172161   0.963   0.122   2.005 -0.3922 -0.1338  0.9178
25520SOL    HW272162   1.057   0.127   1.872 -1.8641  2.9285 -0.0676
25521SOL     OW72163   8.194   9.434   3.790 -0.2217 -1.0275 -0.3415
25521SOL    HW172164   8.218   9.516   3.739 -0.0034 -1.1950 -0.5068
25521SOL    HW272165   8.203   9.354   3.731 -1.4234 -1.0733 -0.4866
25522SOL     OW72166   5.389   9.243   7.174 -0.1378 -0.5237 -0.4171
25522SOL    HW172167   5.369   9.155   7.217  0.1431 -0.4529 -0.1363
25522SOL    HW272168   5.488   9.259   7.175 -0.0162 -1.0954 -2.2288
25523SOL     OW72169   2.881   2.716   5.831  0.6435 -0.1814  0.2173
25523SOL    HW172170   2.963   2.766   5.858  0.6489 -0.7388  1.2496
25523SOL    HW272171   2.905   2.620   5.815 -0.0055 -0.5951  1.6343
25524SOL     OW72172   1.099   5.960   0.586  0.5672  0.1967  0.0520
25524SOL    HW172173   1.162   6.006   0.523  1.5318  0.2340  1.0345
25524SOL    HW272174   1.094   6.011   0.672 -2.4786  1.3877 -0.7772
25529SOL     OW72175   0.405   8.613   6.766  0.2342  0.0895  0.5258
25529SOL    HW172176   0.432   8.538   6.706 -0.7658 -0.7933  1.1636
25529SOL    HW272177   0.306   8.626   6.762  0.5079  2.0878 -0.3898
25530SOL     OW72178   8.296   1.265   1.346 -0.5636  0.3658 -0.0258
25530SOL    HW172179   8.214   1.307   1.306 -1.4481 -1.9253 -0.7316
25530SOL    HW272180   8.270   1.203   1.419  0.4000 -1.3359 -1.0729
25532SOL     OW72181   0.014   5.581   2.194 -0.3676 -0.1595 -0.0990
25532SOL    HW172182  -0.024   5.544   2.110  0.9071  2.0677 -1.7252
25532SOL    HW272183  -0.059   5.593   2.261 -2.0955  1.5027 -2.2049
25533SOL     OW72184   3.317   7.140   3.394  0.5133 -0.1191 -0.2736
25533SOL    HW172185   3.326   7.069   3.323  0.4614  0.1229 -0.5246
25533SOL    HW272186   3.397   7.199   3.393  0.4010  0.0338 -0.2955
25534SOL     OW72187   2.483   2.994   3.878 -0.0453 -0.1054 -0.1899
25534SOL    HW172188   2.443   3.073   3.925  1.2525  0.7033 -0.4169
25534SOL    HW272189   2.411   2.943   3.832 -1.1765 -0.1561  1.5572
25538SOL     OW72190   4.403   9.703   2.308 -0.1166 -0.6783 -0.6669
25538SOL    HW172191   4.372   9.635   2.242 -0.8731  0.4506 -1.4828
25538SOL    HW272192   4.341   9.705   2.386  0.9637 -2.2492  0.2689
25540SOL     OW72193   9.896   8.801   6.241  0.1728  0.1553 -0.0980
25540SOL    HW172194   9.929   8.749   6.320 -0.8017  1.7400  1.4042
25540SOL    HW272195   9.802   8.830   6.257 -0.4009 -0.3735 -2.3244
25541SOL     OW72196   4.065   9.423   0.937 -0.7181  0.1901  0.2980
25541SOL    HW172197   4.078   9.415   1.036  0.6008 -1.0953  0.0461
25541SOL    HW272198   4.037   9.516   0.914 -2.3007  0.1614  2.0133
25543SOL     OW72199   8.757   5.479   3.991  0.0027 -0.2289  0.2653
25543SOL    HW172200   8.731   5.386   3.968  0.2373 -0.0510 -0.7412
25543SOL    HW272201   8.688   5.543   3.956  0.9372  0.1222 -0.9557
25545SOL     OW72202   7.335   7.398   6.370  0.1354  0.3047 -0.1220
25545SOL    HW172203   7.414   7.418   6.427  1.0576 -0.9442 -0.9467
25545SOL    HW272204   7.364   7.387   6.275 -1.1119  0.4367 -0.5304
25546SOL     OW72205   2.405   5.976   3.424  0.7256 -0.0300 -0.2478
25546SOL    HW172206   2.332   5.923   3.381 -0.9250  1.6926  0.4082
25546SOL    HW272207   2.415   5.949   3.519 -0.5893  1.3188  0.2776
25548SOL     OW72208   6.366   8.684   7.031  0.2500 -0.1312  0.1798
25548SOL    HW172209   6.415   8.765   6.998  1.6182 -0.4469  1.3641
25548SOL    HW272210   6.279   8.711   7.071  0.1824  0.6285 -0.4681
25549SOL     OW72211   7.222   2.331   1.591 -0.0502 -0.9013  0.1802
25549SOL    HW172212   7.266   2.256   1.541  0.2568  0.4168 -1.5825
25549SOL    HW272213   7.292   2.379   1.645 -0.1616 -1.5994  0.9473
25550SOL     OW72214   6.883   4.527   1.605 -0.7399 -0.1970 -0.0026
25550SOL    HW172215   6.962   4.470   1.582 -0.6027  0.7457 -1.9683
25550SOL    HW272216   6.801   4.491   1.560 -0.3221  2.1236 -2.7258
25551SOL     OW72217   7.782   5.010   3.465  0.5785 -0.6882  0.4735
25551SOL    HW172218   7.851   4.965   3.409  1.7141  0.8456  0.6325
25551SOL    HW272219   7.723   4.940   3.507 -0.1788 -1.8591 -2.4282
25552SOL     OW72220   8.395   5.086   6.148 -0.0236 -0.4574 -0.0498
25552SOL    HW172221   8.336   5.063   6.225  1.0010  0.2827  0.9777
25552SOL    HW272222   8.476   5.134   6.182  0.9213 -1.0273 -1.4954
25553SOL     OW72223   3.215   3.010   0.040  0.2476  0.2376  0.4274
25553SOL    HW172224   3.138   3.060   0.001  2.8348  2.6773 -1.7852
25553SOL    HW272225   3.232   3.043   0.133 -1.0857  0.0174  0.7540
25554SOL     OW72226   0.351   0.721   3.884 -0.2802 -0.2293 -0.4877
25554SOL    HW172227   0.302   0.641   3.918  1.7014 -0.6580  1.5064
25554SOL    HW272228   0.290   0.800   3.884 -1.5146 -1.1705  0.0547
25555SOL     OW72229   3.340   8.396   0.778 -0.2366  0.3460 -0.7690
25555SOL    HW172230   3.430   8.365   0.807 -0.6460 -1.8564 -1.6660
25555SOL    HW272231   3.345   8.431   0.684 -0.1208  1.2033 -0.4418
25557SOL     OW72232   4.675   1.979   6.960  0.4011 -0.1275 -0.5325
25557SOL    HW172233   4.625   1.959   7.044 -3.6744  0.7140 -2.6059
25557SOL    HW272234   4.718   2.069   6.967  3.1672 -1.5577  1.9073
25558SOL     OW72235   8.343   6.514   0.997  0.1718 -0.0130  0.5345
25558SOL    HW172236   8.328   6.460   1.080  1.5015 -1.5517 -0.1937
25558SOL    HW272237   8.402   6.463   0.934 -1.1548  0.9398 -1.5483
25559SOL     OW72238   5.449   9.893   2.403  0.2914 -0.4073  0.2353
25559SOL    HW172239   5.405   9.803   2.398 -1.1887  0.3942 -1.6639
25559SOL    HW272240   5.527   9.895   2.341  1.4923 -0.9876  1.7013
25560SOL     OW72241   2.679   5.414   6.899 -0.5000  0.1293 -0.2806
25560SOL    HW172242   2.580   5.423   6.914 -0.5560 -1.3219  0.2759
25560SOL    HW272243   2.725   5.407   6.988 -0.0073 -0.2296 -0.5647
25561SOL     OW72244   1.712   1.697   4.169 -0.0837  0.5816 -0.1100
25561SOL    HW172245   1.742   1.627   4.234 -1.1919  0.7219  0.5637
25561SOL    HW272246   1.786   1.717   4.104  0.4639 -0.7329  0.1016
25562SOL     OW72247   2.503   1.511   5.729  0.3167 -0.1716 -0.1399
25562SOL    HW172248   2.507   1.478   5.824 -0.0108  1.9918  0.6588
25562SOL    HW272249   2.435   1.458   5.678  0.4785 -1.3374  0.8373
25563SOL     OW72250   5.060   3.402   7.798 -0.3730 -0.3430  0.1329
25563SOL    HW172251   5.080   3.319   7.746 -0.0187 -0.1411 -0.0619
25563SOL    HW272252   5.136   3.467   7.786  0.8155 -1.1930  2.7543
25564SOL     OW72253   4.618   1.160   4.480 -0.6537 -0.0401 -0.3658
25564SOL    HW172254   4.530   1.146   4.524 -0.9402  1.0411 -0.5869
25564SOL    HW272255   4.628   1.256   4.455 -0.2885 -0.5310 -2.1924
25566SOL     OW72256   1.293   3.671   6.233 -0.1794  0.0010 -0.0397
25566SOL    HW172257   1.212   3.637   6.186  1.0213 -2.1433 -0.6303
25566SOL    HW272258   1.300   3.628   6.323  0.3149  0.1745  0.0064
25567SOL     OW72259   9.413   5.348   3.069 -0.1764 -0.1269  0.1339
25567SOL    HW172260   9.438   5.300   3.154  0.9499 -2.2973 -1.3544
25567SOL    HW272261   9.423   5.285   2.992 -2.6878  1.3519 -1.4577
25568SOL     OW72262   8.168   1.779   0.997 -0.0281 -0.3546 -0.5541
25568SOL    HW172263   8.074   1.783   1.032  1.0117  1.0067  2.2402
25568SOL    HW272264   8.183   1.692   0.951 -2.0983 -1.3456  0.5939
25569SOL     OW72265   3.284   4.927   6.676 -0.2166  0.3329 -0.5574
25569SOL    HW172266   3.210   4.864   6.699 -0.0605  1.0891  2.1136
25569SOL    HW272267   3.349   4.931   6.752  2.5283 -0.2198 -2.7867
25570SOL     OW72268   1.256   0.897   7.230  0.8607 -0.2871  0.0117
25570SOL    HW172269   1.307   0.978   7.260  1.4966 -1.1457  1.2838
25570SOL    HW272270   1.190   0.872   7.300  1.9069 -1.9406  0.4153
25572SOL     OW72271   1.751   3.631   5.535 -0.1372  0.3763  0.0561
25572SOL    HW172272   1.687   3.643   5.611 -0.1459 -0.6718  0.2086
25572SOL    HW272273   1.725   3.551   5.481  1.5865 -0.5949  0.6424
25574SOL     OW72274   5.136   0.552   4.057 -0.1284 -0.3369  0.1342
25574SOL    HW172275   5.078   0.550   4.138 -0.6003 -1.4309 -0.2069
25574SOL    HW272276   5.142   0.645   4.022 -2.0015 -0.2477 -0.0238
25575SOL     OW72277   7.445   8.242   7.858  0.0606 -0.0589 -0.0165
25575SOL    HW172278   7.499   8.184   7.797  1.3802  1.1137  0.0019
25575SOL    HW272279   7.495   8.327   7.876 -2.3013  1.6138 -0.9548
25576SOL     OW72280   9.078   1.609   1.888 -0.1983 -0.2568  0.3617
25576SOL    HW172281   8.994   1.560   1.910  0.1230 -1.3915 -0.8917
25576SOL    HW272282   9.134   1.618   1.970 -0.6157 -1.3106  0.7692
25577SOL     OW72283   5.653   9.644   4.210  0.3256  0.0477  0.0397
25577SOL    HW172284   5.560   9.662   4.179  0.3920  1.2132  0.4590
25577SOL    HW272285   5.677   9.549   4.193 -0.7229 -0.1004 -0.6333
25579SOL     OW72286   9.984   6.978   0.884 -0.0428  0.1832  0.1793
25579SOL    HW172287   9.916   6.923   0.837  0.3981 -0.1594 -0.0552
25579SOL    HW272288  10.034   7.034   0.818  0.9200 -0.6689  0.1636
25580SOL     OW72289   5.335   9.062   6.884  0.0696  0.3573 -0.0316
25580SOL    HW172290   5.283   9.137   6.842  1.4389  1.7894  0.7631
25580SOL    HW272291   5.312   9.056   6.981 -1.6148 -1.6620 -0.5199
25581SOL     OW72292   9.846   8.705   7.332 -0.5176  0.8279  0.9628
25581SOL    HW172293   9.748   8.713   7.354 -0.6596  0.4818  0.4822
25581SOL    HW272294   9.861   8.735   7.238 -0.1651  0.8684  1.0344
25582SOL     OW72295   3.017   4.286   0.282 -0.2999 -0.2116  0.0446
25582SOL    HW172296   2.928   4.253   0.313  0.1184 -0.6100  0.8428
25582SOL    HW272297   3.089   4.238   0.332  0.3533  0.5465 -0.1647
25583SOL     OW72298   0.718   4.646   0.794  0.3965 -0.2041  0.3784
25583SOL    HW172299   0.716   4.551   0.826 -0.0632 -0.4943 -0.5085
25583SOL    HW272300   0.774   4.700   0.857  0.7157 -1.0697  0.8590
25584SOL     OW72301   3.559   4.317   0.209 -0.1156 -0.1201 -0.5912
25584SOL    HW172302   3.588   4.222   0.200 -0.5219 -0.1185 -2.0273
25584SOL    HW272303   3.599   4.357   0.292 -0.6675 -1.8022  0.5122
25585SOL     OW72304   3.421   6.011   0.951 -0.4852  0.1526 -0.6550
25585SOL    HW172305   3.518   6.034   0.950 -0.9037  2.0738 -0.1125
25585SOL    HW272306   3.391   5.986   0.859  0.3508  0.3266 -0.9715
25586SOL     OW72307   9.471   0.641   4.294 -0.4594 -0.7914  0.1374
25586SOL    HW172308   9.417   0.585   4.357  1.9519 -0.7096  2.3579
25586SOL    HW272309   9.528   0.581   4.238 -0.5689 -0.7230 -0.0484
25587SOL     OW72310   3.300   7.067   1.518 -0.4903  0.3648  0.1364
25587SOL    HW172311   3.349   6.982   1.538 -1.5275 -0.4458 -0.6952
25587SOL    HW272312   3.363   7.144   1.525  0.9202 -0.6583 -0.9091
25588SOL     OW72313   3.469   2.822   1.851 -0.3831 -0.3152  0.1266
25588SOL    HW172314   3.452   2.742   1.908  3.5993 -0.1935  1.6680
25588SOL    HW272315   3.432   2.903   1.895 -1.6760 -0.8610  0.0770
25589SOL     OW72316   2.279   4.295   4.436  0.0910 -0.0531 -0.6777
25589SOL    HW172317   2.310   4.200   4.442 -2.5681 -0.8877  0.5698
25589SOL    HW272318   2.314   4.347   4.514 -0.1266 -0.5106 -0.2761
25590SOL     OW72319   9.992   2.622   7.852 -0.4525  0.0233  0.1419
25590SOL    HW172320   9.942   2.622   7.938 -1.0158 -0.1363 -0.1824
25590SOL    HW272321   9.952   2.554   7.790  0.1039 -0.0397 -0.1530
25591SOL     OW72322   2.168   9.789   4.945 -0.0398 -0.1847 -0.0167
25591SOL    HW172323   2.266   9.770   4.950  0.0727  0.2409 -0.5911
25591SOL    HW272324   2.118   9.719   4.996  0.7508  1.1421  2.6749
25592SOL     OW72325   2.135   3.415   6.130  0.7523 -0.8705 -0.2856
25592SOL    HW172326   2.038   3.434   6.116  0.7615 -0.9044 -0.3909
25592SOL    HW272327   2.189   3.495   6.102  0.5906  0.1152  2.0995
25593SOL     OW72328   9.492   2.261   4.305 -0.1637  0.5835 -0.4354
25593SOL    HW172329   9.582   2.217   4.310 -0.7920 -0.5976  0.9945
25593SOL    HW272330   9.461   2.262   4.210 -0.7508 -3.4294 -0.3834
25594SOL     OW72331   3.137   8.479   2.181 -0.3825  0.0447  0.3303
25594SOL    HW172332   3.167   8.496   2.275  3.3382  1.0811 -0.9846
25594SOL    HW272333   3.089   8.560   2.146  0.3106  0.5508  0.5526
25595SOL     OW72334   7.900   1.110   6.166 -0.1827 -0.0524 -0.0202
25595SOL    HW172335   7.822   1.115   6.228  0.6796 -0.3874  1.1171
25595SOL    HW272336   7.929   1.202   6.142 -0.0915  0.0947  0.6380
25596SOL     OW72337   2.354   0.513   6.160  0.9963 -0.4025 -0.0175
25596SOL    HW172338   2.360   0.611   6.181 -1.9350 -0.4981  1.4401
25596SOL    HW272339   2.431   0.466   6.203  1.0485  0.9303  1.4069
25597SOL     OW72340   1.799   1.074   5.040 -0.5132 -0.2790 -0.3747
25597SOL    HW172341   1.709   1.105   5.070  0.2933  3.0154 -1.1564
25597SOL    HW272342   1.861   1.071   5.119 -0.9851 -1.3475 -0.0435
25598SOL     OW72343   0.226   8.183   1.820 -0.2173 -0.0525  0.4549
25598SOL    HW172344   0.138   8.223   1.846 -1.2335 -0.8461 -1.6965
25598SOL    HW272345   0.235   8.182   1.720  2.1898 -0.0972  0.6313
25601SOL     OW72346   2.685   3.629   0.638 -0.7555 -0.4079  0.0168
25601SOL    HW172347   2.603   3.596   0.685 -0.2862  1.5357  2.2589
25601SOL    HW272348   2.671   3.723   0.609  1.3153  0.5387  2.0081
25603SOL     OW72349   9.616   9.987   2.146 -0.0079 -0.0928 -0.2514
25603SOL    HW172350   9.549   9.982   2.072 -0.1307  0.9015 -0.2122
25603SOL    HW272351   9.705  10.010   2.108 -0.1247  0.6707 -0.0563
25604SOL     OW72352   9.666   1.203   5.117 -0.2854 -0.2654 -0.5410
25604SOL    HW172353   9.615   1.219   5.033 -2.1847  1.4301  0.8960
25604SOL    HW272354   9.729   1.279   5.133 -1.7481  0.6766  0.8530
25605SOL     OW72355   0.068   6.664   2.773 -0.6137  0.2193  0.3048
25605SOL    HW172356   0.134   6.739   2.779 -1.7728  1.2896 -0.1837
25605SOL    HW272357   0.095   6.591   2.836 -0.1928  1.6018  1.7733
25606SOL     OW72358   9.886   0.633   7.134  0.5580 -0.4881  0.2866
25606SOL    HW172359   9.941   0.585   7.067 -2.0012 -1.9062 -0.8695
25606SOL    HW272360   9.855   0.720   7.096 -1.7024 -1.7297 -0.8035
25607SOL     OW72361   4.851   1.388   0.369  0.0146 -0.2778  0.3414
25607SOL    HW172362   4.758   1.377   0.405 -0.8014 -2.1252 -2.1288
25607SOL    HW272363   4.855   1.468   0.309 -0.0904 -0.3616  0.2201
25608SOL     OW72364   1.294   6.713   5.735  0.4381 -0.5061 -0.2366
25608SOL    HW172365   1.320   6.671   5.822  0.7045  0.0448 -0.0456
25608SOL    HW272366   1.327   6.657   5.659 -0.2160 -1.2449  0.0171
25609SOL     OW72367   2.725   7.665   7.506  0.4259 -0.0311  0.4125
25609SOL    HW172368   2.628   7.687   7.496  0.4895 -0.2807 -0.8993
25609SOL    HW272369   2.774   7.744   7.542  0.1363  0.9473 -1.2820
25610SOL     OW72370   5.287   3.601   7.818 -0.4509 -0.3995  0.1332
25610SOL    HW172371   5.353   3.526   7.824 -2.0609 -2.0835 -2.5776
25610SOL    HW272372   5.319   3.668   7.751  0.3901  0.8235  1.6924
25611SOL     OW72373   1.289   3.111   2.430  0.2760  0.1948 -0.4796
25611SOL    HW172374   1.236   3.112   2.345 -0.0801  0.7620 -0.2495
25611SOL    HW272375   1.319   3.017   2.449  0.1260  0.0205 -1.0873
25612SOL     OW72376   7.908   8.264   4.830  0.4597  0.1623  0.5407
25612SOL    HW172377   7.956   8.202   4.768  1.2910  0.9585  0.3740
25612SOL    HW272378   7.833   8.215   4.874  1.7936 -1.3075  1.2736
25613SOL     OW72379   4.135   7.917   3.209 -0.4804  0.6562  0.4404
25613SOL    HW172380   4.154   7.878   3.299  1.2555 -2.8219 -1.3475
25613SOL    HW272381   4.208   7.980   3.183  1.0270 -1.2543 -0.0814
25614SOL     OW72382   6.837   0.421   5.643 -0.2352 -0.1961  0.0514
25614SOL    HW172383   6.916   0.457   5.594  0.0544 -1.5211 -0.4845
25614SOL    HW272384   6.759   0.418   5.581 -0.2589 -0.4977  0.0978
25616SOL     OW72385   9.007   7.857   7.480  0.2232 -0.3724 -1.0305
25616SOL    HW172386   9.047   7.948   7.465  0.7330 -0.8262 -2.4560
25616SOL    HW272387   8.973   7.851   7.574  0.8951  1.0256 -0.6844
25617SOL     OW72388   5.243   6.693   0.979 -0.5904  0.2679  0.2900
25617SOL    HW172389   5.230   6.627   0.905  0.4750  0.6814 -0.2884
25617SOL    HW272390   5.189   6.666   1.058 -1.0992 -0.6380 -0.3528
25618SOL     OW72391   4.609   8.704   6.962  0.5910  1.1332 -0.4277
25618SOL    HW172392   4.561   8.634   6.908 -0.8218  0.3268  1.7781
25618SOL    HW272393   4.670   8.757   6.903 -0.1471 -0.3784 -2.5883
25619SOL     OW72394   6.723   9.245   7.314  0.0877  0.1409 -0.2405
25619SOL    HW172395   6.629   9.262   7.346 -0.1023 -1.2627 -0.0315
25619SOL    HW272396   6.725   9.250   7.214 -0.2856 -0.2053 -0.2669
25620SOL     OW72397   1.341   6.991   1.559  0.0648 -0.0715  0.0053
25620SOL    HW172398   1.286   7.060   1.513  0.0451  0.2179  0.4573
25620SOL    HW272399   1.431   7.028   1.581 -1.1480  1.0293  3.4363
25621SOL     OW72400   0.347   9.007   4.491  0.1421  0.2640 -0.3451
25621SOL    HW172401   0.262   9.060   4.499  1.0555  1.8085 -0.6243
25621SOL    HW272402   0.379   9.010   4.397  0.4798 -0.3625 -0.2485
25623SOL     OW72403   1.187   3.242   0.987  0.4250  0.1997 -0.1509
25623SOL    HW172404   1.125   3.279   1.056  0.4492 -2.9344  1.6358
25623SOL    HW272405   1.138   3.179   0.927  0.9167  1.1483 -1.5858
25624SOL     OW72406   9.675   9.061   0.742 -0.4738 -0.4464  0.9256
25624SOL    HW172407   9.694   9.117   0.822 -1.6723  0.7296  0.4058
25624SOL    HW272408   9.759   9.047   0.689 -0.3565  1.7696  0.4837
25626SOL     OW72409   0.978   6.226   1.959 -0.3503 -0.0081  0.4570
25626SOL    HW172410   0.907   6.202   1.893 -0.8485 -0.7026  1.2454
25626SOL    HW272411   1.026   6.143   1.988  0.4704  0.4010  0.2821
25627SOL     OW72412   3.378   1.491   4.629  0.3036 -0.4262 -0.5662
25627SOL    HW172413   3.376   1.576   4.681  2.7175 -0.6994  0.0507
25627SOL    HW272414   3.324   1.421   4.676 -0.4848  0.3472 -0.3176
25628SOL     OW72415   5.201   9.280   3.092 -0.3616  0.5728 -0.0164
25628SOL    HW172416   5.294   9.310   3.112 -0.3602  1.2620 -1.0445
25628SOL    HW272417   5.162   9.337   3.020 -1.5107  0.1578  0.2635
25629SOL     OW72418   9.151   7.407   3.311 -0.6929 -0.5851  0.3038
25629SOL    HW172419   9.164   7.456   3.397 -1.3714 -0.1097  0.1390
25629SOL    HW272420   9.155   7.472   3.235 -1.4930 -0.7985  0.0737
25630SOL     OW72421   5.278   9.851   5.759 -0.8579 -0.0392 -0.2237
25630SOL    HW172422   5.252   9.806   5.673  0.5712 -0.9277 -0.2094
25630SOL    HW272423   5.347   9.921   5.741  1.6587 -2.2373  0.5106
25631SOL     OW72424   4.599   4.825   3.415 -0.0655 -0.1570  0.0617
25631SOL    HW172425   4.624   4.753   3.480  0.1092  1.0519  1.3543
25631SOL    HW272426   4.557   4.783   3.334  1.6124 -1.8500  0.0083
25632SOL     OW72427   2.425   1.457   0.793 -0.2791  0.6483 -0.0887
25632SOL    HW172428   2.362   1.417   0.727  0.2348 -0.2261 -0.0628
25632SOL    HW272429   2.462   1.385   0.851  1.5181  0.9964 -0.7734
25633SOL     OW72430   0.251   2.625   0.683 -0.5133 -0.2954  0.1777
25633SOL    HW172431   0.186   2.662   0.750 -0.8382 -1.3915  0.4758
25633SOL    HW272432   0.204   2.608   0.596 -0.4523 -0.3572  0.1567
25634SOL     OW72433   6.181   9.741   5.444  0.1896  0.2891  0.1895
25634SOL    HW172434   6.218   9.830   5.418  0.8006  0.1106  0.4554
25634SOL    HW272435   6.170   9.737   5.543 -3.4645  1.4948 -0.0733
25635SOL     OW72436   7.699   9.265   2.581  0.0947  0.4707 -0.5505
25635SOL    HW172437   7.621   9.327   2.581  0.8918  1.5189  1.1474
25635SOL    HW272438   7.775   9.306   2.533  0.0062 -0.0243 -1.1194
25637SOL     OW72439   5.977   8.030   5.615 -0.0991 -0.0617  0.1373
25637SOL    HW172440   6.015   7.957   5.672 -1.3508 -1.3074 -0.5748
25637SOL    HW272441   6.051   8.082   5.573  0.8201  0.3289  2.2192
25638SOL     OW72442   6.562   1.507   3.293 -0.6765 -0.3646  0.1173
25638SOL    HW172443   6.464   1.493   3.306 -0.6650 -1.2940 -0.7478
25638SOL    HW272444   6.598   1.436   3.232 -0.1588  2.0363 -2.4917
25639SOL     OW72445   6.665   4.551   7.835 -0.7099  0.2443  0.0620
25639SOL    HW172446   6.695   4.646   7.837 -1.6290  0.5118  1.0274
25639SOL    HW272447   6.695   4.505   7.918 -0.3672 -0.2853 -0.3510
25640SOL     OW72448   3.021   3.863   0.374 -0.1081  0.3253  0.4102
25640SOL    HW172449   2.932   3.819   0.362  0.4985 -0.4170 -1.4971
25640SOL    HW272450   3.080   3.805   0.430  0.2169 -0.6608 -0.9299
25642SOL     OW72451   0.758   8.067   1.366  0.1348 -0.2816  0.1885
25642SOL    HW172452   0.711   7.982   1.393  1.2608 -0.4731  1.6038
25642SOL    HW272453   0.844   8.044   1.320 -0.2824  0.0859 -0.7762
25643SOL     OW72454   0.766   9.746   1.277  0.9811 -0.3330 -0.7685
25643SOL    HW172455   0.849   9.739   1.333  1.0561  1.8757 -0.5742
25643SOL    HW272456   0.793   9.758   1.181  0.8858  0.4249 -0.6998
25644SOL     OW72457   8.776   4.682   5.748  0.2454 -0.3179  0.2736
25644SOL    HW172458   8.743   4.588   5.742 -0.6318 -0.0470  0.7748
25644SOL    HW272459   8.794   4.717   5.657 -0.6051 -0.5618  0.0054
25645SOL     OW72460   0.465   1.257   6.961 -0.4920 -0.7586 -0.2993
25645SOL    HW172461   0.409   1.307   6.896 -0.3310 -2.1036 -1.4858
25645SOL    HW272462   0.414   1.243   7.046 -0.1276  2.4343  0.5292
25647SOL     OW72463   0.072   9.832   5.090 -0.1854 -0.0082 -0.2935
25647SOL    HW172464   0.062   9.805   5.186 -0.4738  1.0739 -0.0086
25647SOL    HW272465   0.142   9.776   5.046  0.5071  0.0194  0.7612
25649SOL     OW72466   9.251   2.892   6.895 -0.5622 -0.4741  0.6436
25649SOL    HW172467   9.268   2.923   6.989 -0.8884  0.7780  0.2899
25649SOL    HW272468   9.197   2.808   6.897  0.6456 -1.2492  1.6181
25650SOL     OW72469   2.032   0.896   3.202 -0.2257  0.3181  0.0268
25650SOL    HW172470   2.052   0.810   3.153 -1.2609  0.0352  0.0796
25650SOL    HW272471   2.111   0.956   3.198  0.6507 -0.8034  0.3224
25651SOL     OW72472   0.262   8.581   0.451 -0.0535 -0.0810  0.1460
25651SOL    HW172473   0.354   8.545   0.467  0.4633  1.0610 -0.1943
25651SOL    HW272474   0.208   8.513   0.402  0.8497 -0.4651 -0.3315
25654SOL     OW72475   1.256   5.687   0.166  0.7385  0.4209  0.0393
25654SOL    HW172476   1.176   5.746   0.174  1.5170  1.3514  1.1421
25654SOL    HW272477   1.337   5.742   0.148  1.3753 -0.3641  0.4317
25655SOL     OW72478   4.384   1.219   5.377  0.2253  0.3516 -0.0546
25655SOL    HW172479   4.418   1.270   5.299  0.7815  0.7557  0.4450
25655SOL    HW272480   4.345   1.132   5.346 -1.2113  1.3139 -0.9515
25657SOL     OW72481   3.035   9.152   2.109 -0.4910  0.1488  0.2890
25657SOL    HW172482   2.985   9.113   2.187 -0.6695  0.3710  0.2866
25657SOL    HW272483   3.132   9.127   2.116 -0.3611  0.8250  1.0123
25658SOL     OW72484   1.583   1.718   3.623 -0.0040  0.4529  0.2136
25658SOL    HW172485   1.623   1.705   3.533  0.3514  0.9577  0.2951
25658SOL    HW272486   1.565   1.629   3.665  0.8534  0.2214  0.0981
25660SOL     OW72487   7.672   9.047   1.649  0.2605  0.1712 -0.0076
25660SOL    HW172488   7.707   9.118   1.710 -0.1969  1.1382 -0.8455
25660SOL    HW272489   7.587   9.010   1.686 -0.5995  1.5347 -0.5996
25662SOL     OW72490   2.554   1.096   3.632  0.1454 -1.2003 -0.4533
25662SOL    HW172491   2.559   1.024   3.701  0.6583 -0.4429  0.3228
25662SOL    HW272492   2.552   1.185   3.678 -1.5009 -0.7474 -1.3598
25663SOL     OW72493   7.068   6.938   5.175 -1.1330 -0.5244  0.2004
25663SOL    HW172494   7.156   6.911   5.136 -0.2968  0.6193  1.2700
25663SOL    HW272495   6.994   6.892   5.125  0.1402 -2.9614  0.5028
25664SOL     OW72496   4.545   9.185   1.194  0.2534  0.3392 -0.4977
25664SOL    HW172497   4.531   9.255   1.124 -2.4806 -0.6485 -1.0084
25664SOL    HW272498   4.475   9.114   1.184  2.1703 -1.8125  0.8159
25665SOL     OW72499   2.871   9.355   7.836  0.0272  0.0767  0.1422
25665SOL    HW172500   2.931   9.349   7.915  1.2660  4.4375 -0.3194
25665SOL    HW272501   2.797   9.420   7.855 -0.1739  0.4863 -1.9329
25668SOL     OW72502   5.220   0.032   3.125 -0.8743 -0.0182  0.1632
25668SOL    HW172503   5.190   0.120   3.089 -1.4703  1.3348  3.6791
25668SOL    HW272504   5.146  -0.035   3.116 -0.7541  0.0763 -1.6737
25671SOL     OW72505   9.589   1.193   5.507 -0.5277  0.1035 -0.2957
25671SOL    HW172506   9.523   1.179   5.433 -0.2597  0.7476 -0.6583
25671SOL    HW272507   9.594   1.110   5.563 -1.6671  0.0617 -0.2382
25672SOL     OW72508   9.354   7.857   1.944  0.7683  0.8816 -0.1115
25672SOL    HW172509   9.411   7.809   1.877  0.6407 -1.0928  1.1694
25672SOL    HW272510   9.401   7.941   1.972  0.7794  1.8207 -2.7261
25674SOL     OW72511   8.923   2.646   2.031  0.3673  0.3798  0.0432
25674SOL    HW172512   9.001   2.595   1.994 -0.2923 -0.4184 -0.2710
25674SOL    HW272513   8.840   2.591   2.021 -0.3202  1.4256 -0.0771
25675SOL     OW72514   4.008   7.485   3.455  0.0245  0.6253  0.4573
25675SOL    HW172515   3.982   7.538   3.374  3.5818  0.8742 -0.5854
25675SOL    HW272516   3.985   7.389   3.440 -0.5230  0.8636 -0.2871
25676SOL     OW72517   2.155   8.001   2.799  0.2528 -0.2502  0.3001
25676SOL    HW172518   2.090   7.924   2.797  0.7383 -0.6481 -0.2480
25676SOL    HW272519   2.230   7.982   2.736 -1.0296  1.9335 -1.9606
25677SOL     OW72520   9.763   7.794   7.786  0.2629  0.2741 -0.4755
25677SOL    HW172521   9.702   7.764   7.859  0.3519 -0.1342 -0.5704
25677SOL    HW272522   9.855   7.806   7.821  0.6472 -1.4735 -0.8731
25678SOL     OW72523   4.778   8.174   4.578 -0.7809  0.0889 -0.0190
25678SOL    HW172524   4.868   8.215   4.563 -0.5672 -0.1646  0.5281
25678SOL    HW272525   4.761   8.104   4.508  0.0872 -0.8983  0.7321
25679SOL     OW72526   8.095   0.678   4.718  0.0474 -0.0976  0.1301
25679SOL    HW172527   8.057   0.737   4.647 -2.0798 -1.1845  0.3291
25679SOL    HW272528   8.074   0.583   4.697 -0.9960 -0.4044  2.4408
25682SOL     OW72529   0.189   4.633   7.139  0.0167 -0.6374 -0.2568
25682SOL    HW172530   0.106   4.653   7.192  0.2915 -0.7236  0.2074
25682SOL    HW272531   0.163   4.604   7.047 -0.4584 -0.3083 -0.2299
25683SOL     OW72532   2.376   4.778   0.320  0.2110 -0.8748 -0.1021
25683SOL    HW172533   2.308   4.846   0.290  1.3903  0.7098  0.7092
25683SOL    HW272534   2.349   4.740   0.408  0.5610  0.0464  0.4089
25684SOL     OW72535   0.650   2.638   4.274 -0.4883 -0.2606  0.2001
25684SOL    HW172536   0.567   2.624   4.219 -0.3836  0.0356 -0.0356
25684SOL    HW272537   0.648   2.579   4.354  0.5178 -2.5599 -1.4158
25685SOL     OW72538   7.197   1.305   5.460 -0.2796  0.1979 -0.3303
25685SOL    HW172539   7.174   1.261   5.547  2.4288  0.1550  0.4408
25685SOL    HW272540   7.120   1.298   5.397 -2.0291 -0.4243  1.8109
25686SOL     OW72541   2.620   4.911   5.156 -0.0032 -0.2328  0.2144
25686SOL    HW172542   2.649   5.005   5.136 -1.8231  0.2454 -0.2443
25686SOL    HW272543   2.675   4.847   5.101  0.6215  0.6108 -0.1586
25687SOL     OW72544   3.417   0.633   3.324 -0.3651 -0.0782  0.8333
25687SOL    HW172545   3.491   0.653   3.388  1.3505  0.3137 -1.2227
25687SOL    HW272546   3.377   0.544   3.347  2.0831 -1.2491  0.7871
25688SOL     OW72547   8.104   8.240   1.805 -0.1644  0.0108  0.5897
25688SOL    HW172548   8.200   8.220   1.786  0.0578  0.9346  0.7021
25688SOL    HW272549   8.046   8.171   1.760  0.5503 -0.6486  0.6718
25689SOL     OW72550   5.551   0.949   5.688  0.2517 -0.6069 -0.1041
25689SOL    HW172551   5.486   0.998   5.630  0.5638 -1.1444 -0.9074
25689SOL    HW272552   5.607   1.015   5.738 -0.0162 -0.1455 -0.4097
25690SOL     OW72553   2.486   9.412   7.687  0.1524 -0.3113 -0.0529
25690SOL    HW172554   2.428   9.483   7.647 -0.4815 -0.0728  1.2801
25690SOL    HW272555   2.582   9.434   7.668 -0.1558 -0.5077 -1.9306
25691SOL     OW72556   2.554   1.231   2.029 -0.2425 -0.0808 -0.2386
25691SOL    HW172557   2.581   1.248   2.124  0.4078  2.0644 -0.7789
25691SOL    HW272558   2.455   1.231   2.021 -0.2686  1.8232  0.0830
25692SOL     OW72559   8.366   7.862   3.184  0.3189  0.3667  0.0921
25692SOL    HW172560   8.356   7.804   3.103  0.5160  1.4208 -0.6946
25692SOL    HW272561   8.456   7.849   3.224  0.2097 -0.1774  0.1754
25693SOL     OW72562   6.287   1.153   0.924  0.4168  0.0705 -0.0864
25693SOL    HW172563   6.325   1.062   0.908  1.6664  0.3327  1.2956
25693SOL    HW272564   6.187   1.148   0.921  0.3783 -1.8791  2.7237
25694SOL     OW72565   1.815   9.754   7.733 -0.3635  0.1486 -0.1537
25694SOL    HW172566   1.881   9.720   7.799 -0.0324  0.7155 -0.1952
25694SOL    HW272567   1.861   9.773   7.646 -0.6739  0.0482 -0.3426
25696SOL     OW72568   7.762   5.208   7.451  0.0189  0.3128 -0.1403
25696SOL    HW172569   7.849   5.174   7.416  0.4387  0.5018  0.7126
25696SOL    HW272570   7.759   5.308   7.442 -0.9425  0.1348 -2.0310
25697SOL     OW72571   8.779   4.040   6.907  0.1729 -0.0067 -0.1333
25697SOL    HW172572   8.808   4.135   6.894  0.4346 -0.0283  0.2802
25697SOL    HW272573   8.792   3.990   6.822 -0.5058  0.4659 -0.5254
25699SOL     OW72574   3.206   4.107   0.345  0.1628  0.0531 -0.0385
25699SOL    HW172575   3.153   4.057   0.276  0.0020 -0.3592  0.3775
25699SOL    HW272576   3.298   4.069   0.351 -0.3644 -1.1062  1.2221
25701SOL     OW72577   9.218   4.811   7.050 -0.1710 -0.3509  0.1050
25701SOL    HW172578   9.289   4.762   6.999  1.0001  2.2247 -0.7992
25701SOL    HW272579   9.260   4.872   7.116 -1.5052  1.3597 -0.5759
25702SOL     OW72580   6.272   9.569   6.117 -0.0612 -0.4722  0.1006
25702SOL    HW172581   6.337   9.595   6.188 -0.0069 -0.1381 -0.0719
25702SOL    HW272582   6.210   9.645   6.097  0.1362 -0.4467 -0.4428
25703SOL     OW72583   9.680   9.690   3.294  0.2352 -0.0564 -0.2959
25703SOL    HW172584   9.659   9.593   3.284 -0.0608  0.0599 -0.8416
25703SOL    HW272585   9.772   9.709   3.260  1.3666 -0.6139  2.3446
25704SOL     OW72586   5.896   1.295   5.887  0.5677 -0.0932 -0.0815
25704SOL    HW172587   5.816   1.354   5.881  0.8846  0.5478  1.6773
25704SOL    HW272588   5.867   1.201   5.907  0.1302 -0.3297 -1.7867
25708SOL     OW72589   4.780   2.244   4.995 -0.0213  0.6108  0.3005
25708SOL    HW172590   4.706   2.302   4.962 -0.9431 -0.6622  0.0850
25708SOL    HW272591   4.824   2.287   5.074 -0.5160  1.7160 -0.0269
25709SOL     OW72592   2.782   1.538   5.738  0.4435 -0.4330 -0.1896
25709SOL    HW172593   2.688   1.550   5.704 -0.2395  0.3986  1.9374
25709SOL    HW272594   2.845   1.577   5.671 -0.7534 -0.4368 -1.3629
25710SOL     OW72595   8.548   8.061   1.073 -0.0217 -0.3741 -0.7284
25710SOL    HW172596   8.507   8.032   0.986  1.2967 -1.3261 -1.0498
25710SOL    HW272597   8.634   8.110   1.055  0.2885 -0.6245  0.0422
25711SOL     OW72598   1.237   7.466   6.960 -0.1304  0.3684  0.3968
25711SOL    HW172599   1.235   7.546   7.019 -0.2509  0.2657  0.5299
25711SOL    HW272600   1.199   7.387   7.008 -1.5077  0.5997 -0.2982
25713SOL     OW72601   5.091   3.335   6.703 -0.1071 -0.6976  0.2329
25713SOL    HW172602   5.064   3.238   6.700 -2.6352 -0.0695  1.0211
25713SOL    HW272603   5.009   3.391   6.719  1.4388  1.5179  0.5068
25714SOL     OW72604   1.680   8.790   1.789 -0.3703  0.1642  0.2642
25714SOL    HW172605   1.755   8.737   1.749 -0.7468 -0.4403  0.3460
25714SOL    HW272606   1.636   8.737   1.861 -2.2383 -0.3826 -1.2158
25715SOL     OW72607   0.452   0.367   7.750  0.0311 -0.0872  0.0745
25715SOL    HW172608   0.502   0.335   7.831 -0.3984  1.8325  1.1154
25715SOL    HW272609   0.488   0.322   7.669  3.3199  1.1043  0.8225
25716SOL     OW72610   9.935   5.512   2.691 -0.3489  0.0710  0.2419
25716SOL    HW172611   9.965   5.502   2.596  3.2325  0.4463  1.2441
25716SOL    HW272612   9.945   5.608   2.719  2.2032 -0.6702  2.0456
25718SOL     OW72613   9.028   0.393   4.533 -0.5003  0.4910  0.1805
25718SOL    HW172614   9.012   0.423   4.627 -0.4199  0.2210  0.2818
25718SOL    HW272615   8.966   0.441   4.471 -0.7426  0.4651  0.4056
25720SOL     OW72616   7.655   3.741   1.282  0.5232 -0.5125 -0.4135
25720SOL    HW172617   7.618   3.770   1.370  2.5634 -0.5934  0.4871
25720SOL    HW272618   7.629   3.645   1.265 -0.0799 -0.4174 -0.0347
25722SOL     OW72619   3.182   6.919   4.880  0.0882  0.1755  0.4609
25722SOL    HW172620   3.280   6.919   4.896  0.0095 -1.2223  1.0062
25722SOL    HW272621   3.150   6.825   4.866 -1.5382  0.3403  2.7201
25723SOL     OW72622   3.609   7.833   1.134 -0.0618 -0.0793 -0.2073
25723SOL    HW172623   3.616   7.809   1.037 -0.2506 -0.6353 -0.0853
25723SOL    HW272624   3.690   7.800   1.182  0.6288  1.3029 -0.3981
25724SOL     OW72625   1.168   8.026   0.393  0.4049 -0.0760  0.8260
25724SOL    HW172626   1.112   7.968   0.333 -0.8281  1.3477  0.5495
25724SOL    HW272627   1.114   8.053   0.473 -0.1342  3.1157 -0.5211
25725SOL     OW72628   1.304   0.165   2.718  0.1111  0.3433 -0.5233
25725SOL    HW172629   1.246   0.168   2.636 -0.0749 -0.4564 -0.4247
25725SOL    HW272630   1.265   0.224   2.788 -0.4629 -0.0071 -0.5420
25726SOL     OW72631   9.267   5.366   4.810  0.5960 -0.2517  0.3984
25726SOL    HW172632   9.177   5.371   4.768  0.9869  0.0665 -0.4116
25726SOL    HW272633   9.258   5.366   4.909 -0.3298 -0.8843  0.3171
25728SOL     OW72634   2.351   9.868   5.690 -0.3576 -0.3336  0.1748
25728SOL    HW172635   2.358   9.773   5.721  0.8021  0.2678  1.7977
25728SOL    HW272636   2.442   9.910   5.693 -1.2572  1.5385  1.7431
25729SOL     OW72637   6.835   7.153   4.280  0.2747 -0.4607  0.1170
25729SOL    HW172638   6.843   7.054   4.264  0.9488 -0.2879 -0.6930
25729SOL    HW272639   6.887   7.201   4.209 -2.6674  0.5755 -1.4109
25730SOL     OW72640   2.969   3.948   1.601 -0.0829  0.1894  0.3329
25730SOL    HW172641   2.899   3.962   1.671 -0.1681 -1.0086  0.4994
25730SOL    HW272642   2.960   3.857   1.562  1.2902  0.0746  0.2421
25731SOL     OW72643   3.680   1.080   3.348  0.1787 -0.4774  0.4902
25731SOL    HW172644   3.704   1.015   3.420 -2.6929 -1.6980  0.3943
25731SOL    HW272645   3.749   1.076   3.276 -0.0456 -3.5947  0.3878
25732SOL     OW72646   9.736   5.178   2.284  0.0260 -0.1768  0.4184
25732SOL    HW172647   9.705   5.236   2.360  0.2146  1.0363 -0.4102
25732SOL    HW272648   9.716   5.083   2.304 -0.9281  0.2454  1.5032
25733SOL     OW72649   2.895   3.800   7.788  0.4047  0.6093  0.0273
25733SOL    HW172650   2.815   3.860   7.780  0.0587  0.3999  1.8368
25733SOL    HW272651   2.978   3.853   7.769  0.2106  2.0087  2.8331
25734SOL     OW72652   2.552   8.617   7.546 -0.0209  0.2840 -0.2052
25734SOL    HW172653   2.565   8.562   7.464 -0.8637 -1.7743  1.0024
25734SOL    HW272654   2.467   8.591   7.591 -0.3558  2.4785  0.5005
25735SOL     OW72655   2.346   7.875   5.072  0.1411 -0.0665 -0.3273
25735SOL    HW172656   2.315   7.811   5.002  0.4298 -2.0947  1.3783
25735SOL    HW272657   2.296   7.961   5.063  0.0997 -0.3327 -2.9365
25736SOL     OW72658   7.853   9.444   3.730  0.1656 -0.0300 -0.2082
25736SOL    HW172659   7.909   9.527   3.731  1.0456 -0.6174  1.2587
25736SOL    HW272660   7.839   9.415   3.635  1.8372  0.4843 -0.6349
25738SOL     OW72661   4.777   0.922   4.521 -0.2116  0.0472  0.0788
25738SOL    HW172662   4.723   1.002   4.498  0.0295  1.0530  2.8501
25738SOL    HW272663   4.716   0.846   4.545 -0.4397 -0.6882 -2.6971
25739SOL     OW72664   1.534   5.869   0.145  0.3561 -0.5817 -0.3023
25739SOL    HW172665   1.622   5.915   0.159 -0.9363  1.8755 -0.0268
25739SOL    HW272666   1.510   5.872   0.048  0.6547 -1.4593 -0.4131
25740SOL     OW72667   2.366   6.897   0.703  0.0215  0.3302  0.4021
25740SOL    HW172668   2.308   6.975   0.728 -0.4339  0.7148 -1.7683
25740SOL    HW272669   2.331   6.815   0.748 -0.5700  1.0640  1.3008
25741SOL     OW72670   3.646   2.482   4.980 -0.5673  0.9074 -0.7709
25741SOL    HW172671   3.592   2.398   4.985  0.0947  0.4491 -1.2359
25741SOL    HW272672   3.705   2.488   5.060  0.6795  0.0243 -1.6010
25742SOL     OW72673   6.173   9.459   3.867  0.0911  0.3807 -0.7317
25742SOL    HW172674   6.260   9.481   3.911  0.4360 -0.2885 -1.0899
25742SOL    HW272675   6.127   9.544   3.840  0.2222  0.7689  0.2474
25743SOL     OW72676   2.519   0.215   1.067  0.3114 -0.0067 -0.5171
25743SOL    HW172677   2.467   0.251   1.144  1.2260 -0.3545  0.2771
25743SOL    HW272678   2.592   0.279   1.043  0.7087 -0.4076 -0.3846
25744SOL     OW72679   2.490   2.564   4.820  0.5624  0.3219  0.1556
25744SOL    HW172680   2.483   2.468   4.845  1.8547  0.0335 -0.5334
25744SOL    HW272681   2.412   2.614   4.857  1.3975 -0.4447  3.0407
25745SOL     OW72682   2.324   5.768   1.641 -0.6589  0.6373 -0.1580
25745SOL    HW172683   2.233   5.786   1.680 -0.7846  0.7996 -0.5274
25745SOL    HW272684   2.393   5.781   1.712 -0.9141  0.6258  0.0952
25747SOL     OW72685   0.860   3.425   5.206  0.3964 -0.9909  0.0201
25747SOL    HW172686   0.951   3.462   5.223  0.3265 -0.2224 -1.2462
25747SOL    HW272687   0.858   3.329   5.236  0.9483 -0.3872  2.1017
25748SOL     OW72688   4.777   9.093   3.246 -0.6320 -0.0552 -0.2403
25748SOL    HW172689   4.801   9.161   3.177  0.3554 -0.9253 -0.7640
25748SOL    HW272690   4.724   9.137   3.319  0.8280  1.4884 -0.0812
25749SOL     OW72691   5.473   8.941   3.124 -0.7958 -0.3045 -0.4023
25749SOL    HW172692   5.568   8.961   3.149 -0.7317 -0.0449 -0.8482
25749SOL    HW272693   5.445   8.855   3.166 -0.5034 -0.1642  0.0851
25750SOL     OW72694   8.772   1.096   0.954 -0.1395  0.1853  0.5773
25750SOL    HW172695   8.804   1.005   0.980  0.7939 -0.1853 -1.6997
25750SOL    HW272696   8.830   1.165   0.998  0.7442 -0.3857  0.3320
25751SOL     OW72697   8.986   2.638   5.768 -0.9254  0.4725 -0.5914
25751SOL    HW172698   8.973   2.714   5.831 -0.1690  1.7484 -1.9723
25751SOL    HW272699   8.897   2.606   5.735 -1.1221  3.2043 -2.8911
25752SOL     OW72700   6.008   0.333   6.712 -0.3373 -0.5435 -0.3267
25752SOL    HW172701   6.026   0.250   6.660  0.5617  0.8182 -2.2447
25752SOL    HW272702   6.094   0.379   6.734 -0.8798  0.6260 -0.5752
25755SOL     OW72703   4.000   0.032   2.693 -0.6805  0.1024 -0.3015
25755SOL    HW172704   4.075   0.058   2.754 -0.6175  0.9047 -0.7162
25755SOL    HW272705   3.928   0.100   2.697 -0.7321  0.1018 -1.0280
25756SOL     OW72706   5.476   2.680   4.397 -0.5226  0.6427 -0.1818
25756SOL    HW172707   5.385   2.671   4.437 -0.6487  0.6718 -0.4595
25756SOL    HW272708   5.524   2.756   4.440 -0.5943  0.5681  0.0316
25757SOL     OW72709   2.858   5.111   1.117  0.5930  0.1656  0.6790
25757SOL    HW172710   2.798   5.190   1.104 -0.0886 -0.2745  1.1848
25757SOL    HW272711   2.902   5.117   1.207  1.3906  0.5408  0.2715
25758SOL     OW72712   7.893   7.249   0.658  0.1615 -0.2563 -0.0457
25758SOL    HW172713   7.953   7.235   0.736 -0.2775 -0.4637  0.2560
25758SOL    HW272714   7.847   7.337   0.667  1.1238  0.3292 -0.7490
25759SOL     OW72715   5.097   5.776   1.897  0.2259  0.5124  0.0184
25759SOL    HW172716   5.025   5.781   1.829 -0.4501 -1.7392  0.5320
25759SOL    HW272717   5.057   5.773   1.989  0.9123 -1.1869  0.2883
25760SOL     OW72718   4.065   5.781   3.984 -0.4552 -0.1414  0.0983
25760SOL    HW172719   4.133   5.805   4.053 -0.3331 -0.4071  0.0702
25760SOL    HW272720   3.975   5.770   4.028 -1.0294  2.7969 -0.2300
25761SOL     OW72721   1.797   3.740   0.551 -0.3407  0.0212  0.3115
25761SOL    HW172722   1.857   3.744   0.631  0.1023 -1.0248  0.0540
25761SOL    HW272723   1.702   3.752   0.579 -0.5092 -3.4229  1.4547
25762SOL     OW72724   5.726   1.795   0.081  0.1548  0.0320  0.5276
25762SOL    HW172725   5.796   1.852   0.038  0.2835 -0.0182  0.6704
25762SOL    HW272726   5.660   1.766   0.011  0.7661 -0.6391  0.2256
25763SOL     OW72727   6.010   1.092   3.345  0.2147 -0.6199 -0.8044
25763SOL    HW172728   6.110   1.094   3.351  0.2556 -0.2567 -1.5315
25763SOL    HW272729   5.982   1.024   3.277 -0.1006 -2.0143  0.6944
25764SOL     OW72730   7.704   4.553   0.457 -0.0881  0.1492 -0.2481
25764SOL    HW172731   7.692   4.454   0.447  0.8624 -0.0090  0.1222
25764SOL    HW272732   7.788   4.572   0.508  0.6915  1.1853 -1.8696
25766SOL     OW72733   8.166   9.347   5.016  0.5358 -0.5144  0.2879
25766SOL    HW172734   8.145   9.444   5.027 -3.9525 -1.6103  2.9160
25766SOL    HW272735   8.222   9.317   5.093 -1.5294 -0.7594  1.7690
25767SOL     OW72736   9.683   2.818   1.056  0.0249 -0.5576 -0.5737
25767SOL    HW172737   9.672   2.767   1.142  0.6901 -0.5316 -0.4682
25767SOL    HW272738   9.615   2.891   1.051  1.0550  0.5112  0.7129
25768SOL     OW72739   8.518   9.833   0.047 -0.0694 -0.2578  0.0420
25768SOL    HW172740   8.499   9.899  -0.026 -2.2101 -0.8823  0.0026
25768SOL    HW272741   8.590   9.869   0.107 -0.9532  1.9468 -0.1770
25769SOL     OW72742   8.297   8.581   0.744  0.3344  0.0488 -0.1685
25769SOL    HW172743   8.364   8.562   0.672 -1.8553 -1.4688 -1.8629
25769SOL    HW272744   8.205   8.570   0.707 -1.0058  5.3339  1.2087
25770SOL     OW72745   9.246   3.263   2.410  0.2395 -0.5875  0.0225
25770SOL    HW172746   9.236   3.320   2.492 -0.8730 -0.3062 -0.2918
25770SOL    HW272747   9.246   3.167   2.436  0.7218 -0.4792  0.4303
25771SOL     OW72748   2.603   2.257   3.363  0.0921 -0.1057 -0.1023
25771SOL    HW172749   2.582   2.289   3.455  1.9018 -0.2578  0.3913
25771SOL    HW272750   2.699   2.227   3.359 -0.1498 -0.7380 -1.8543
25772SOL     OW72751   5.123   5.509   7.868 -0.2981 -0.1279 -0.4049
25772SOL    HW172752   5.138   5.589   7.809  1.0241  0.5395  0.7932
25772SOL    HW272753   5.171   5.523   7.955 -1.0903 -1.6938  0.2969
25774SOL     OW72754   1.200   8.335   4.998 -0.0209  0.0252  0.0799
25774SOL    HW172755   1.166   8.350   5.090  1.2926 -2.0082  0.9314
25774SOL    HW272756   1.205   8.422   4.950 -1.7650  0.9654  1.5341
25775SOL     OW72757   1.633   7.010   5.299 -0.1974  0.2968 -0.5577
25775SOL    HW172758   1.588   6.928   5.264 -2.0614  0.7203  0.8018
25775SOL    HW272759   1.585   7.042   5.380  1.1176  2.1797 -0.5047
25778SOL     OW72760   9.799   6.058   7.004  0.8905 -0.4100  0.5435
25778SOL    HW172761   9.701   6.038   6.999  1.3787 -2.3515 -2.2552
25778SOL    HW272762   9.817   6.149   6.965 -0.0790  1.2005  3.6793
25779SOL     OW72763   3.895   6.711   1.847  0.0616  0.0908  0.0130
25779SOL    HW172764   3.965   6.758   1.794  1.1017 -0.4718  0.8599
25779SOL    HW272765   3.933   6.683   1.935 -1.3853  0.2250  0.6907
25780SOL     OW72766   3.659   7.324   4.523  0.5223 -0.4017 -0.3483
25780SOL    HW172767   3.708   7.329   4.436  1.3790 -0.8976  0.0907
25780SOL    HW272768   3.583   7.259   4.515 -0.1460  0.4771 -1.0777
25781SOL     OW72769   0.973   5.978   3.339 -0.0421  0.2055  0.1563
25781SOL    HW172770   0.965   6.078   3.342 -0.4693  0.1968 -0.4820
25781SOL    HW272771   1.068   5.952   3.323  0.0666  0.5079  0.3136
25783SOL     OW72772   7.407   5.045   2.789  0.4140 -0.0452  0.7307
25783SOL    HW172773   7.342   5.120   2.777  1.0454  0.3475 -0.3580
25783SOL    HW272774   7.360   4.957   2.776 -0.1684  0.1891  1.2555
25784SOL     OW72775   7.142   8.682   3.595 -0.1027 -0.0144 -0.3871
25784SOL    HW172776   7.182   8.670   3.504  1.9034 -1.0271  0.6015
25784SOL    HW272777   7.050   8.720   3.586 -0.1331 -0.5873 -2.8603
25785SOL     OW72778   4.059   6.262   0.498 -0.2116  0.8423 -0.0432
25785SOL    HW172779   4.086   6.299   0.587 -0.9579  0.3213  0.4084
25785SOL    HW272780   3.982   6.199   0.510  0.9262 -0.7340 -0.8099
25786SOL     OW72781   1.811   1.350   6.960 -0.6656 -0.1578 -0.6058
25786SOL    HW172782   1.798   1.330   7.057 -1.5780 -0.6235 -0.8193
25786SOL    HW272783   1.888   1.297   6.925  2.1623  2.8474  0.7407
25787SOL     OW72784   9.940   1.125   1.334  0.2994 -0.1856 -0.0214
25787SOL    HW172785   9.936   1.136   1.235  0.3565  3.2398  0.2795
25787SOL    HW272786   9.849   1.100   1.368  0.2283 -1.1549 -0.9064
25788SOL     OW72787   5.912   8.634   6.843  0.6590  0.2527  0.2210
25788SOL    HW172788   5.870   8.586   6.766  0.2138 -0.3722  0.8507
25788SOL    HW272789   6.008   8.655   6.821  0.5841 -0.0745 -0.4292
25789SOL     OW72790   1.262   0.888   5.939  0.5244 -0.2823  0.2690
25789SOL    HW172791   1.334   0.957   5.930 -0.8436  1.1909  0.3735
25789SOL    HW272792   1.222   0.893   6.031 -1.5259  0.7753 -0.6386
25790SOL     OW72793   1.339   7.409   2.611  0.2572 -0.1856 -0.2295
25790SOL    HW172794   1.366   7.315   2.593  0.5841 -0.2965  0.8364
25790SOL    HW272795   1.372   7.468   2.537  1.0860 -0.7315 -0.2977
25791SOL     OW72796   4.055   4.163   7.403 -0.2849  0.2891 -0.1127
25791SOL    HW172797   4.030   4.192   7.310 -0.5949  0.2429 -0.0456
25791SOL    HW272798   4.035   4.066   7.414 -0.3888  0.3281  0.0484
25792SOL     OW72799   9.442   5.169   4.716 -0.0541 -0.0171 -0.0547
25792SOL    HW172800   9.392   5.255   4.721 -0.6853 -0.3475 -0.6021
25792SOL    HW272801   9.379   5.095   4.694  0.4821 -0.6286  0.4531
25793SOL     OW72802   1.441   1.098   6.229 -0.1769  0.2116 -0.0931
25793SOL    HW172803   1.342   1.094   6.214 -0.1099 -0.5360 -0.3649
25793SOL    HW272804   1.467   1.037   6.304 -0.1366  1.7300  1.1308
25794SOL     OW72805   2.947   4.811   2.407  0.1593 -0.5909 -0.4337
25794SOL    HW172806   3.018   4.882   2.403 -2.5414  2.2290  0.6105
25794SOL    HW272807   2.893   4.821   2.490 -0.1937 -4.0145 -0.1838
25796SOL     OW72808   0.810   6.732   0.020 -0.3435 -0.4107 -0.1181
25796SOL    HW172809   0.905   6.712  -0.004  0.0183 -0.0561  1.0020
25796SOL    HW272810   0.796   6.716   0.117 -1.0513  0.9452  0.0166
25797SOL     OW72811   7.641   1.384   7.658 -0.3053  0.3856  0.6677
25797SOL    HW172812   7.652   1.308   7.593 -1.0130 -0.1374  1.1497
25797SOL    HW272813   7.728   1.431   7.668 -0.2559  0.6514 -0.8790
25798SOL     OW72814   2.492   8.828   7.902  0.0462  0.1767 -0.3493
25798SOL    HW172815   2.556   8.871   7.838 -0.4661 -0.9419 -1.6327
25798SOL    HW272816   2.469   8.893   7.975  1.4748  1.0942 -0.6993
25799SOL     OW72817   0.513   2.687   0.793 -0.4930  0.0775  0.4918
25799SOL    HW172818   0.424   2.685   0.749  0.1830 -1.2394 -0.8620
25799SOL    HW272819   0.506   2.736   0.880 -2.4654  0.1917  0.2931
25800SOL     OW72820   9.613   5.693   5.611  0.0683 -0.3063  0.6105
25800SOL    HW172821   9.514   5.692   5.594  0.2720 -0.7781 -0.5553
25800SOL    HW272822   9.639   5.605   5.652  0.0268 -0.2271  0.8099
25801SOL     OW72823   6.642   0.280   3.663  0.3016 -0.4261 -0.3643
25801SOL    HW172824   6.710   0.318   3.726 -2.2608 -0.7344  2.7101
25801SOL    HW272825   6.631   0.342   3.585  2.3234  0.8264  0.3076
25802SOL     OW72826   6.186   3.947   1.916  0.4569 -0.4672 -0.2241
25802SOL    HW172827   6.268   4.002   1.901  0.6430 -0.7522 -0.2602
25802SOL    HW272828   6.105   3.998   1.886  0.6035 -0.1185 -0.0231
25803SOL     OW72829   2.217   2.820   2.332 -0.4201 -0.1405 -0.2495
25803SOL    HW172830   2.206   2.913   2.367 -0.9670 -0.5681  0.7561
25803SOL    HW272831   2.140   2.764   2.364 -0.3491 -0.8172 -1.2497
25804SOL     OW72832   4.197   0.233   7.608 -0.3113  0.2458 -0.6864
25804SOL    HW172833   4.267   0.286   7.560 -1.0204 -0.4411 -2.5354
25804SOL    HW272834   4.139   0.186   7.541 -2.4013  0.6103  0.8071
25805SOL     OW72835   5.352   8.966   2.621  0.1588 -0.2368 -0.0967
25805SOL    HW172836   5.319   9.045   2.673 -0.2907 -0.5957  0.1627
25805SOL    HW272837   5.428   8.994   2.562  0.2552  0.3078  0.2844
25806SOL     OW72838   8.533   8.022   0.351  0.4147  0.2100  0.5116
25806SOL    HW172839   8.573   7.959   0.417  1.0636 -1.3806 -1.3365
25806SOL    HW272840   8.434   8.007   0.347  0.5667 -0.7346  0.0703
25807SOL     OW72841   7.451   6.799   3.482  0.3197  0.2777 -0.4820
25807SOL    HW172842   7.398   6.732   3.430 -0.0487  1.0461 -1.1200
25807SOL    HW272843   7.542   6.764   3.500  0.1351 -0.3827 -0.8226
25808SOL     OW72844   1.134   8.064   0.073  0.1743  0.3523 -0.7811
25808SOL    HW172845   1.102   7.998   0.141  0.6481  2.0328  1.1253
25808SOL    HW272846   1.130   8.023  -0.018 -0.5360 -1.9236  0.2433
25809SOL     OW72847   8.399   6.769   1.833  0.1816 -0.7842  0.7283
25809SOL    HW172848   8.424   6.836   1.903  0.5048 -1.1043  0.9160
25809SOL    HW272849   8.301   6.752   1.837  0.3118 -1.3429  1.5677
25810SOL     OW72850   9.774   7.318   7.733  0.2050 -0.3295  0.8090
25810SOL    HW172851   9.732   7.408   7.718  1.0207 -0.0464  0.2151
25810SOL    HW272852   9.727   7.250   7.678 -0.5933 -0.3249  1.4669
25812SOL     OW72853   1.569   4.399   0.051 -0.4039 -0.2251 -0.6509
25812SOL    HW172854   1.523   4.338  -0.014 -2.3761 -1.0207  1.4008
25812SOL    HW272855   1.518   4.485   0.057  0.0424  0.0277 -0.5077
25813SOL     OW72856   0.250   5.288   5.743  0.7282  0.4871 -0.1960
25813SOL    HW172857   0.336   5.250   5.776  0.6528  0.3731 -0.1288
25813SOL    HW272858   0.267   5.346   5.663  0.7178 -0.6519 -1.0504
25814SOL     OW72859   9.964   3.789   2.090 -0.2051 -0.5829  0.2762
25814SOL    HW172860  10.015   3.869   2.121  0.4051 -0.3840 -1.2188
25814SOL    HW272861   9.939   3.800   1.994  0.3065 -2.4058 -0.0789
25815SOL     OW72862   7.490   3.633   7.732  0.0175 -0.3142 -0.0798
25815SOL    HW172863   7.509   3.573   7.654 -1.7778 -0.7154 -0.2472
25815SOL    HW272864   7.475   3.577   7.814  0.1652  0.0077  0.1687
25816SOL     OW72865   3.485   1.560   1.637 -0.0821 -0.1645 -0.2473
25816SOL    HW172866   3.427   1.478   1.634  0.0307 -0.3094  1.2032
25816SOL    HW272867   3.451   1.627   1.571 -1.2547 -0.6843 -0.1900
25817SOL     OW72868   3.065   0.675   0.342 -0.2282  0.4907 -0.0244
25817SOL    HW172869   3.105   0.592   0.303  1.0144  0.2952  1.6439
25817SOL    HW272870   2.987   0.651   0.399 -0.8865  0.6136 -0.8719
25818SOL     OW72871   7.099   4.305   1.259  0.0027 -0.2661  0.2922
25818SOL    HW172872   7.126   4.375   1.324 -0.9458  0.1945  0.2114
25818SOL    HW272873   7.080   4.347   1.170 -1.9522 -0.4056  0.6196
25819SOL     OW72874   3.773   2.627   4.448  0.2946  0.0839  0.0261
25819SOL    HW172875   3.764   2.586   4.539  0.1636  2.8413  1.3064
25819SOL    HW272876   3.795   2.555   4.381  2.4363 -1.7317  2.5577
25820SOL     OW72877   7.425   2.941   2.751 -0.2148  0.3553  0.1058
25820SOL    HW172878   7.407   2.958   2.654 -0.3079  1.3688  0.2970
25820SOL    HW272879   7.406   2.845   2.772 -0.0719  0.1016 -0.9039
25821SOL     OW72880   9.656   3.401   5.227  0.4220  0.3399 -0.4367
25821SOL    HW172881   9.648   3.313   5.180  1.7879 -0.5678  0.9708
25821SOL    HW272882   9.683   3.472   5.162  0.3656 -0.4908 -1.3740
25823SOL     OW72883   4.468   4.597   7.117  0.2980  0.3205  0.2518
25823SOL    HW172884   4.486   4.536   7.195 -0.0320  1.2522  1.0748
25823SOL    HW272885   4.375   4.632   7.124 -0.2961 -0.8849 -1.4841
25824SOL     OW72886   4.696   6.703   1.506 -0.4490  0.7166  0.2073
25824SOL    HW172887   4.655   6.793   1.491 -0.5118  0.9059  1.4407
25824SOL    HW272888   4.688   6.679   1.603  1.9694  0.5600  0.3961
25826SOL     OW72889   2.044   5.008   5.302  0.3433  0.2921 -0.7835
25826SOL    HW172890   2.066   4.910   5.302 -0.4511  0.1036 -0.0481
25826SOL    HW272891   1.992   5.030   5.385  0.4750  1.3305 -0.9711
25827SOL     OW72892   9.887   3.015   6.240 -0.2488  0.5527 -0.7864
25827SOL    HW172893   9.986   3.013   6.235  0.0236 -2.3296  3.1658
25827SOL    HW272894   9.848   2.959   6.167  1.0883  0.6481 -1.5707
25829SOL     OW72895   3.725   9.296   3.069 -0.0460  0.4846  0.8169
25829SOL    HW172896   3.700   9.393   3.069  1.5423  0.9406 -2.2967
25829SOL    HW272897   3.765   9.272   3.158  0.3048  2.8740  1.3400
25830SOL     OW72898   3.701   7.768   7.938 -0.7163  0.1033  0.0959
25830SOL    HW172899   3.787   7.817   7.946 -0.1553 -1.0945  1.5651
25830SOL    HW272900   3.641   7.790   8.015 -0.2616 -1.8528  1.0515
25831SOL     OW72901   8.635   9.707   7.406  0.7384  0.0487 -0.3809
25831SOL    HW172902   8.566   9.708   7.478  0.0197 -0.8191 -1.0422
25831SOL    HW272903   8.726   9.714   7.447  0.3230 -0.1159  0.5857
25833SOL     OW72904   8.255   5.776   2.306 -0.1194  0.5010  0.9604
25833SOL    HW172905   8.229   5.695   2.254  1.8288 -1.4438  2.9623
25833SOL    HW272906   8.182   5.845   2.298 -2.6987 -2.1490  0.8097
25834SOL     OW72907   0.186   1.136   2.682  0.5057  0.1029 -1.0046
25834SOL    HW172908   0.194   1.117   2.780  2.4999  1.0853 -0.9460
25834SOL    HW272909   0.090   1.150   2.658 -0.1861 -1.9663  0.4470
25835SOL     OW72910   2.354   2.825   3.053 -0.3855 -0.6159  0.5436
25835SOL    HW172911   2.310   2.822   3.143 -0.0661 -1.5998  0.6701
25835SOL    HW272912   2.446   2.786   3.059  0.9825  2.4338  0.5173
25836SOL     OW72913   6.566   5.384   1.088 -0.5484 -0.9577  0.2610
25836SOL    HW172914   6.564   5.313   1.018 -1.4901 -0.1456 -0.5534
25836SOL    HW272915   6.658   5.421   1.095 -1.2387  1.7634 -3.4733
25837SOL     OW72916   2.547   5.337   3.256 -0.9408 -0.3107 -0.1340
25837SOL    HW172917   2.514   5.281   3.180 -1.6614 -2.3759  1.6528
25837SOL    HW272918   2.487   5.416   3.267 -0.1497  0.6650 -2.4226
25838SOL     OW72919   4.420   0.471   5.885 -0.0086 -0.4101  0.1133
25838SOL    HW172920   4.434   0.466   5.984  0.7767  0.3393  0.0458
25838SOL    HW272921   4.509   0.479   5.839 -0.4210  0.1147 -0.5955
25839SOL     OW72922   2.356   4.513   7.216  0.6818  0.1728  0.0834
25839SOL    HW172923   2.355   4.583   7.287 -0.5222  1.6709 -1.3421
25839SOL    HW272924   2.269   4.515   7.167  0.8787 -1.9176 -0.3981
25840SOL     OW72925   6.112   9.081   7.557 -0.3639 -0.0000  0.1094
25840SOL    HW172926   6.076   9.122   7.473 -1.8524  1.5112  1.4414
25840SOL    HW272927   6.069   9.125   7.636  0.4549 -1.9239  1.6499
25842SOL     OW72928   3.092   8.430   3.529  0.3278  0.1960  0.1032
25842SOL    HW172929   3.081   8.505   3.595  0.6854  0.5652 -0.2528
25842SOL    HW272930   3.187   8.428   3.498  0.6501 -1.2249  1.0964
25843SOL     OW72931   8.591   3.388   2.116  0.0099 -0.3261  1.2472
25843SOL    HW172932   8.521   3.396   2.045  1.6440 -1.3233 -0.5332
25843SOL    HW272933   8.560   3.323   2.186 -0.3132 -1.7479 -0.1947
25845SOL     OW72934   7.386   5.625   2.427  0.5679  0.1829  0.5240
25845SOL    HW172935   7.374   5.556   2.355  3.5242 -0.3274  0.4377
25845SOL    HW272936   7.391   5.580   2.516  0.2255  0.4960  0.7007
25846SOL     OW72937   0.481   8.320   0.859 -0.1381 -0.3016  0.9190
25846SOL    HW172938   0.569   8.348   0.896  1.9880 -3.0273 -1.7904
25846SOL    HW272939   0.434   8.399   0.820  2.5817  0.6672 -0.4718
25848SOL     OW72940   0.225   2.952   3.533 -0.4307 -0.5942 -0.0261
25848SOL    HW172941   0.233   3.051   3.544  1.4982 -0.6141 -1.2020
25848SOL    HW272942   0.188   2.931   3.442 -0.7996 -0.9565  0.2046
25849SOL     OW72943   1.860   0.824   6.087 -0.7262  0.0663 -0.4739
25849SOL    HW172944   1.829   0.782   6.173  2.2315  0.5430  0.8859
25849SOL    HW272945   1.885   0.752   6.022  1.5516 -0.3443  0.8072
25850SOL     OW72946   5.766   0.499   7.726 -0.0999 -0.0115  0.2500
25850SOL    HW172947   5.811   0.588   7.716  1.1276 -0.8608 -2.2154
25850SOL    HW272948   5.743   0.483   7.822  0.0346  2.7707  0.7789
25853SOL     OW72949   9.769   4.874   1.077  0.0342 -0.7478  0.2020
25853SOL    HW172950   9.787   4.895   0.981  1.0292 -0.8679  0.3644
25853SOL    HW272951   9.846   4.902   1.133 -2.2273  3.1462  1.5323
25854SOL     OW72952   4.861   2.630   1.085 -0.7473  0.0346  0.0942
25854SOL    HW172953   4.875   2.564   1.159 -1.3334  1.3753  1.4197
25854SOL    HW272954   4.845   2.581   0.999 -1.1872 -1.5420  1.0562
25855SOL     OW72955   3.480   9.439   7.211  0.4527 -0.5304  0.1472
25855SOL    HW172956   3.427   9.439   7.127 -0.1207 -1.0717  0.5033
25855SOL    HW272957   3.578   9.438   7.190  0.3614  1.5412 -0.5284
25856SOL     OW72958   4.834   3.867   0.201  0.5392 -0.0520  0.0959
25856SOL    HW172959   4.820   3.768   0.204  2.0332 -0.2473  1.2111
25856SOL    HW272960   4.759   3.913   0.248 -0.3591 -0.6198 -0.7558
25857SOL     OW72961   1.456   0.632   5.942  0.3988 -0.9884 -0.0931
25857SOL    HW172962   1.513   0.562   5.985  1.1413 -0.3359 -0.0124
25857SOL    HW272963   1.438   0.704   6.009  1.4701 -0.0182 -0.8454
25859SOL     OW72964   1.509   9.128   2.333 -0.0224 -0.3208 -0.6204
25859SOL    HW172965   1.470   9.053   2.387  1.5166  0.5567  1.8143
25859SOL    HW272966   1.450   9.208   2.339  0.6646  0.1013  0.6592
25860SOL     OW72967   1.433   7.360   6.042 -0.0442 -0.8956 -0.1566
25860SOL    HW172968   1.408   7.448   6.002  1.6833  0.7738  2.3185
25860SOL    HW272969   1.350   7.309   6.064 -1.0636  0.0261 -1.7141
25862SOL     OW72970   1.788   6.255   6.311  0.2989 -0.3697 -0.0203
25862SOL    HW172971   1.856   6.301   6.254 -0.2804  1.3133  0.6041
25862SOL    HW272972   1.760   6.316   6.386 -1.6906 -1.1204 -0.1120
25863SOL     OW72973   8.642   9.300   3.959  0.0005 -0.0797  0.4845
25863SOL    HW172974   8.686   9.222   3.916  1.0367  0.3653  0.7177
25863SOL    HW272975   8.615   9.276   4.052 -1.4986 -0.7806 -0.1232
25864SOL     OW72976   9.488   8.169   6.197 -0.3343 -0.4196 -0.2324
25864SOL    HW172977   9.391   8.190   6.197  0.2265  2.4188  1.5863
25864SOL    HW272978   9.501   8.070   6.191 -3.4288 -1.0643  2.4741
25865SOL     OW72979   3.354   5.938   1.463 -0.1772  0.2381 -0.0571
25865SOL    HW172980   3.269   5.946   1.516 -0.0301 -1.0853  0.4022
25865SOL    HW272981   3.333   5.935   1.365 -0.7691 -1.1942  0.0965
25866SOL     OW72982   9.364   3.326   0.718  0.8038  0.5361  0.4230
25866SOL    HW172983   9.299   3.375   0.775 -0.2084 -2.8320  2.3173
25866SOL    HW272984   9.438   3.290   0.775  1.4728 -0.1944 -0.8812
25867SOL     OW72985   1.262   3.212   3.374  0.0556 -0.6957  0.2039
25867SOL    HW172986   1.316   3.225   3.457  1.7514 -1.4564 -0.7387
25867SOL    HW272987   1.273   3.118   3.341 -0.5901 -0.4105 -0.8733
25868SOL     OW72988   8.081   5.782   1.382  0.2137  0.3832  0.7314
25868SOL    HW172989   8.000   5.821   1.426 -1.0472  0.1961 -1.3475
25868SOL    HW272990   8.076   5.797   1.283  1.2015 -2.3072  0.2266
25869SOL     OW72991   2.807   9.772   5.250  0.1444 -0.4402 -0.1954
25869SOL    HW172992   2.873   9.818   5.192  1.0169  0.1881  1.2671
25869SOL    HW272993   2.734   9.733   5.194  0.6032  0.7484 -1.6320
25870SOL     OW72994   2.277   2.347   2.300 -0.3854  0.1300 -0.7994
25870SOL    HW172995   2.207   2.390   2.243 -0.1160  2.4729  0.5710
25870SOL    HW272996   2.260   2.369   2.396  2.1248  0.5864 -0.4265
25872SOL     OW72997   0.447   1.006   2.712 -0.3357  0.2814  0.0685
25872SOL    HW172998   0.470   1.016   2.809 -1.5642  0.3737  0.3557
25872SOL    HW272999   0.354   1.041   2.696 -0.4445 -0.4856 -0.9912
25873SOL     OW73000   0.239   8.527   3.440 -0.2310 -0.2322  0.5498
25873SOL    HW173001   0.256   8.489   3.349 -0.0687 -1.1755  0.9710
25873SOL    HW273002   0.268   8.623   3.442 -2.2298  0.4418 -1.0335
25874SOL     OW73003   0.415   7.429   3.881 -0.5526 -0.3409  0.9800
25874SOL    HW173004   0.360   7.437   3.798 -1.7958  1.2372  1.9067
25874SOL    HW273005   0.372   7.363   3.943  0.1322 -1.1861  0.5639
25876SOL     OW73006   2.087   6.794   1.065  0.1261  0.3122 -0.5760
25876SOL    HW173007   2.129   6.703   1.068 -0.3703 -0.0353 -3.2810
25876SOL    HW273008   2.122   6.848   1.141 -0.2047 -2.3901  1.5786
25877SOL     OW73009   4.665   9.210   4.571 -0.0762 -0.0666 -0.3944
25877SOL    HW173010   4.677   9.170   4.662  0.0125 -0.7673 -0.7142
25877SOL    HW273011   4.748   9.260   4.545 -0.2443  0.4596  0.0677
25878SOL     OW73012   3.712   2.480   0.917 -0.1999  0.1023  0.1598
25878SOL    HW173013   3.773   2.510   0.990  1.8154 -0.5634 -1.1892
25878SOL    HW273014   3.691   2.383   0.930  0.1809 -0.0227 -0.1556
25879SOL     OW73015   9.706   5.604   7.893 -0.2106 -0.2910  0.1175
25879SOL    HW173016   9.631   5.538   7.904 -0.7009  0.1350 -0.6209
25879SOL    HW273017   9.695   5.653   7.806  0.2115  0.6937  0.6094
25880SOL     OW73018   0.815   3.785   3.164 -0.4545 -0.0028  0.4711
25880SOL    HW173019   0.859   3.874   3.154 -3.5134  1.5583  0.6661
25880SOL    HW273020   0.806   3.763   3.261 -0.4181 -0.2010  0.4308
25881SOL     OW73021   3.928   6.545   2.706  0.3233  0.1545 -0.6574
25881SOL    HW173022   3.962   6.469   2.763 -0.9119 -1.2451 -1.7483
25881SOL    HW273023   3.937   6.520   2.610  2.0531  2.3590 -1.1090
25883SOL     OW73024   2.116   0.557   6.022 -0.4765 -0.5412 -0.3517
25883SOL    HW173025   2.196   0.532   6.077 -1.3311  0.0276  1.1984
25883SOL    HW273026   2.143   0.624   5.953  0.3880 -0.2740  0.2313
25886SOL     OW73027   2.315   6.044   2.640  0.0890 -0.3519 -0.2213
25886SOL    HW173028   2.368   5.964   2.669  0.1346 -0.3635 -0.3367
25886SOL    HW273029   2.343   6.124   2.692  2.2427  0.2837 -2.2498
25888SOL     OW73030   2.459   4.023   3.458  0.1770  0.4609 -0.1283
25888SOL    HW173031   2.417   3.963   3.390 -1.0022  1.2157 -0.0834
25888SOL    HW273032   2.399   4.101   3.475  1.1773  1.0747  0.6421
25889SOL     OW73033   6.997   0.057   2.606  0.6595 -1.2766 -0.4878
25889SOL    HW173034   7.037   0.081   2.694  1.1577 -1.8230 -0.5601
25889SOL    HW273035   6.939   0.132   2.574  1.4292 -0.5719 -0.2621
25890SOL     OW73036   1.377   9.884   6.971 -0.7126  0.0347  0.1078
25890SOL    HW173037   1.369   9.980   6.998  1.0249 -0.0942  1.1672
25890SOL    HW273038   1.407   9.878   6.876  0.9340  0.5784  0.5781
25891SOL     OW73039   0.988   1.758   5.497  0.0471  0.0345 -0.3979
25891SOL    HW173040   0.976   1.687   5.565 -0.0129  0.4087 -0.0127
25891SOL    HW273041   1.007   1.717   5.407  2.9441 -0.4276  0.3734
25892SOL     OW73042   7.424   5.760   0.640  0.6336  0.0853  0.2460
25892SOL    HW173043   7.350   5.812   0.682 -1.2657 -2.0644 -0.3329
25892SOL    HW273044   7.461   5.810   0.562 -2.0965 -0.0239 -1.1504
25893SOL     OW73045   9.243   5.287   5.081  0.5696  0.1074 -0.0322
25893SOL    HW173046   9.226   5.188   5.084 -0.5980  0.3512  2.1356
25893SOL    HW273047   9.296   5.313   5.161  2.4928  0.9767 -1.5564
25896SOL     OW73048   3.647   8.589   3.552 -0.4590  0.3307  0.4473
25896SOL    HW173049   3.716   8.651   3.515 -0.3180 -0.0449  0.0694
25896SOL    HW273050   3.684   8.496   3.555 -0.8090  0.1957  0.6245
25897SOL     OW73051   9.133   4.640   5.498 -0.2903  0.4024  0.6247
25897SOL    HW173052   9.184   4.678   5.421 -0.0069  0.7135  0.9607
25897SOL    HW273053   9.055   4.700   5.519 -0.4202  0.2706  0.5233
25898SOL     OW73054   4.122   6.350   1.869 -0.7941  0.0805 -0.2794
25898SOL    HW173055   4.061   6.287   1.916 -0.9941  0.4973  0.0257
25898SOL    HW273056   4.208   6.357   1.919 -0.4542 -0.5991 -0.7753
25900SOL     OW73057   1.060   6.296   7.368  0.2461 -0.4231 -0.0081
25900SOL    HW173058   1.008   6.358   7.426  0.4017 -1.4002  1.1757
25900SOL    HW273059   1.017   6.292   7.278 -0.7560  0.0662  0.4395
25901SOL     OW73060   7.751   2.171   1.324 -0.3667  0.4001  0.4791
25901SOL    HW173061   7.820   2.113   1.367 -0.7275  1.0771  1.9968
25901SOL    HW273062   7.795   2.239   1.266  0.0639 -1.3611 -1.3331
25902SOL     OW73063   2.896   7.436   1.937  0.2082  0.3364 -0.3903
25902SOL    HW173064   2.858   7.453   1.846 -0.9029 -0.2511 -0.0417
25902SOL    HW273065   2.990   7.403   1.928 -0.0516 -0.1559 -1.3396
25904SOL     OW73066   1.181   1.078   5.461 -0.0640 -0.1111  0.1104
25904SOL    HW173067   1.232   1.128   5.391 -1.5411 -0.4939 -1.2421
25904SOL    HW273068   1.102   1.033   5.420 -1.7697  0.8373  2.2433
25905SOL     OW73069   2.811   2.095   2.720  0.4518 -0.4586  0.0237
25905SOL    HW173070   2.742   2.167   2.710  1.1054  0.1964  0.1077
25905SOL    HW273071   2.791   2.020   2.657 -1.3732 -1.1154  1.3776
25906SOL     OW73072   2.433   6.312   5.795  0.1157 -0.5268 -0.4572
25906SOL    HW173073   2.480   6.325   5.882 -0.3528  0.6260 -0.3693
25906SOL    HW273074   2.468   6.378   5.728 -1.5945  0.5843 -0.2896
25907SOL     OW73075   9.434   3.585   4.664 -0.4852 -0.4429  0.7116
25907SOL    HW173076   9.369   3.662   4.667 -0.2883 -0.3512  2.9166
25907SOL    HW273077   9.428   3.532   4.748  1.4344 -1.1747  0.4184
25908SOL     OW73078   5.829   4.796   0.168 -0.3879 -0.0188  0.5375
25908SOL    HW173079   5.878   4.859   0.108  0.2225 -0.5460  0.4802
25908SOL    HW273080   5.736   4.782   0.134 -0.3675  0.4649  0.2797
25909SOL     OW73081   8.752   9.171   7.013  0.1306  0.3215 -0.9719
25909SOL    HW173082   8.826   9.158   7.078 -0.4778  1.6282  0.0210
25909SOL    HW273083   8.674   9.114   7.039  0.6197 -0.7312 -1.7724
25910SOL     OW73084   7.817   3.714   4.598 -0.3990 -0.6630 -0.7051
25910SOL    HW173085   7.851   3.673   4.514 -1.4608 -1.7061 -0.6458
25910SOL    HW273086   7.741   3.659   4.634  0.0510 -0.2576  0.9465
25911SOL     OW73087   2.056   1.598   0.895 -0.4421 -0.4424  0.0330
25911SOL    HW173088   1.986   1.663   0.923 -0.9578 -0.8319 -0.3408
25911SOL    HW273089   2.142   1.620   0.940 -0.3987  1.0072 -0.7373
25912SOL     OW73090   1.692   4.524   5.096  0.2226  0.4208 -0.1993
25912SOL    HW173091   1.746   4.607   5.106  2.2713 -0.9060  0.0391
25912SOL    HW273092   1.660   4.493   5.185 -0.0113  0.6059 -0.2178
25913SOL     OW73093   2.105   5.446   2.089 -0.3572  0.7250 -0.9118
25913SOL    HW173094   2.039   5.437   2.015 -1.3473 -1.4616  0.1986
25913SOL    HW273095   2.060   5.484   2.171 -0.0163  0.1295 -0.4443
25914SOL     OW73096   1.700   9.298   6.501  0.0596 -0.1210  0.4638
25914SOL    HW173097   1.693   9.310   6.600 -0.8580  1.3492  0.2384
25914SOL    HW273098   1.737   9.382   6.461 -1.7303  0.1340 -0.6729
25915SOL     OW73099   8.215   9.664   4.492 -0.1712 -0.7233 -0.3266
25915SOL    HW173100   8.233   9.597   4.564 -1.2521 -0.5852  0.0868
25915SOL    HW273101   8.127   9.643   4.449 -1.4463  1.5335  1.0899
25916SOL     OW73102   6.115   8.785   7.173  0.3348  0.2605  0.4335
25916SOL    HW173103   6.109   8.751   7.267  2.4139  1.8771  1.1884
25916SOL    HW273104   6.024   8.814   7.142 -0.2346  0.4541  2.2127
25917SOL     OW73105   5.198   4.187   0.363  0.0102 -0.7675  0.1325
25917SOL    HW173106   5.199   4.286   0.344  3.1952 -0.7796  0.0083
25917SOL    HW273107   5.143   4.141   0.293  3.2675  0.3168 -3.3402
25918SOL     OW73108   9.881   6.314   1.996 -0.3068  0.3114 -0.6575
25918SOL    HW173109   9.920   6.222   1.997 -0.0730  0.4083 -0.9572
25918SOL    HW273110   9.941   6.376   2.046 -0.4279  0.3179 -0.5174
25919SOL     OW73111   3.136   4.506   3.896 -0.4600 -0.0094  0.2971
25919SOL    HW173112   3.205   4.567   3.857 -1.6688  0.9397 -0.4108
25919SOL    HW273113   3.052   4.558   3.914 -1.0076 -1.1502  1.0948
25920SOL     OW73114   3.924   5.799   0.743  0.2060  0.4687  0.3197
25920SOL    HW173115   3.903   5.767   0.835 -2.9032 -0.7503 -0.7729
25920SOL    HW273116   4.017   5.837   0.742  1.2511 -1.7892  3.3383
25921SOL     OW73117   4.269   6.191   0.327 -0.0511  0.0916 -0.4999
25921SOL    HW173118   4.205   6.229   0.393  1.2492  2.4745 -0.5410
25921SOL    HW273119   4.228   6.112   0.281 -1.7999 -0.2330  1.5400
25922SOL     OW73120   2.653   0.854   4.645 -0.3012 -0.3594 -0.3696
25922SOL    HW173121   2.638   0.891   4.736  1.2889 -0.8211  0.1005
25922SOL    HW273122   2.707   0.918   4.591  0.2060 -0.8295 -0.4248
25924SOL     OW73123   8.723   9.401   7.186  0.0637 -0.7224  0.0550
25924SOL    HW173124   8.751   9.496   7.167 -0.4155 -0.8561 -1.3833
25924SOL    HW273125   8.759   9.341   7.114 -0.9471 -1.4026  0.1086
25926SOL     OW73126   6.518   1.468   0.312 -0.4364  0.0557  0.3718
25926SOL    HW173127   6.456   1.392   0.296 -0.6755  0.0516  1.3032
25926SOL    HW273128   6.597   1.437   0.365 -0.2769  0.3445  0.3066
25928SOL     OW73129   4.935   9.521   3.107 -0.1518  0.4920  0.0798
25928SOL    HW173130   4.981   9.465   3.175 -0.1120  1.7074  1.0654
25928SOL    HW273131   4.974   9.503   3.017  0.3134 -0.5643  0.4878
25929SOL     OW73132   3.561   4.551   0.738 -0.3529 -0.2855  0.0275
25929SOL    HW173133   3.477   4.531   0.687 -0.8967 -0.8883  1.1307
25929SOL    HW273134   3.612   4.466   0.752  0.1425 -0.0134 -0.1210
25930SOL     OW73135   9.001   9.468   0.402  0.5904  0.1649 -0.3875
25930SOL    HW173136   8.926   9.531   0.421  0.2999 -0.4911  0.6419
25930SOL    HW273137   8.966   9.375   0.395  1.4543 -0.3139  1.3210
25931SOL     OW73138   8.461   6.223   1.040  0.4371  0.5396  0.2721
25931SOL    HW173139   8.482   6.270   0.954  0.4063  0.1623  0.0585
25931SOL    HW273140   8.405   6.142   1.021  0.3336  0.5187  0.6594
25932SOL     OW73141   2.737   7.224   7.314 -0.1164 -0.2819  0.7588
25932SOL    HW173142   2.683   7.202   7.232 -0.5396 -0.3774  1.0623
25932SOL    HW273143   2.712   7.161   7.388  1.8977 -1.6678  0.2834
25933SOL     OW73144   2.957   4.961   3.042  0.8123 -0.7064  0.6797
25933SOL    HW173145   2.861   4.951   3.015  1.5509 -0.0448 -2.3975
25933SOL    HW273146   3.000   4.871   3.047  0.2432 -0.9486  1.2530
25935SOL     OW73147   9.015   1.488   6.788 -0.2199  0.0180 -0.0513
25935SOL    HW173148   8.985   1.395   6.811 -0.1983 -0.7947 -3.0962
25935SOL    HW273149   9.114   1.487   6.771  0.4458  1.3548  3.3653
25936SOL     OW73150   2.452   5.854   5.046 -0.1713 -0.2518 -0.1769
25936SOL    HW173151   2.422   5.922   5.112 -0.6819 -0.4130 -0.2397
25936SOL    HW273152   2.533   5.807   5.081  2.1901  2.6108 -1.5635
25937SOL     OW73153   4.340   0.570   0.715  0.5982 -0.1086  0.1790
25937SOL    HW173154   4.318   0.567   0.813  0.8112  1.0075  0.2675
25937SOL    HW273155   4.436   0.545   0.703  0.9152  0.9903  0.3830
25938SOL     OW73156   0.011   7.260   1.222  0.0560  0.4279 -0.2236
25938SOL    HW173157   0.010   7.352   1.183  0.7488 -0.0168 -1.2966
25938SOL    HW273158  -0.066   7.207   1.186 -1.2092  1.0243  1.5062
25940SOL     OW73159   1.165   8.353   3.337 -0.1812  0.0277  0.4219
25940SOL    HW173160   1.088   8.345   3.400  0.1862  0.9675  0.9951
25940SOL    HW273161   1.134   8.390   3.250 -0.6359 -0.9862  0.1406
25941SOL     OW73162   8.232   4.692   2.771 -0.4329 -0.5353  0.4188
25941SOL    HW173163   8.223   4.659   2.677 -1.2974  0.9091 -0.0285
25941SOL    HW273164   8.320   4.739   2.781 -1.1680  1.0302 -0.2424
25943SOL     OW73165   6.166   9.261   3.667  0.4295  0.1766 -0.1728
25943SOL    HW173166   6.170   9.300   3.575 -1.4240 -0.5362 -0.5842
25943SOL    HW273167   6.168   9.335   3.734 -0.3068  0.8405 -0.8658
25945SOL     OW73168   9.173   6.983   7.697  0.7923  0.5638 -0.4461
25945SOL    HW173169   9.158   7.013   7.791 -0.2613 -2.7076  0.5303
25945SOL    HW273170   9.271   6.977   7.679  1.0699 -1.5702  1.4852
25947SOL     OW73171   6.941   7.314   4.087  0.0090  0.1480  0.5083
25947SOL    HW173172   7.016   7.255   4.116 -1.5862 -1.4600  1.4503
25947SOL    HW273173   6.921   7.298   3.990  1.1786  0.9401  0.1230
25948SOL     OW73174   0.004   6.734   2.277 -0.3275 -0.3636  0.0090
25948SOL    HW173175   0.062   6.798   2.228  0.9446  1.4928  3.8004
25948SOL    HW273176  -0.091   6.765   2.274  0.1646  1.2662  1.1230
25949SOL     OW73177   4.112   2.303   2.531 -0.2974 -0.2557  0.1596
25949SOL    HW173178   4.069   2.217   2.501 -1.6774  0.4407  0.1218
25949SOL    HW273179   4.092   2.374   2.464  0.7400  0.1308  0.2622
25951SOL     OW73180   7.360   4.318   0.340 -0.4471  0.0259 -0.0101
25951SOL    HW173181   7.272   4.270   0.346 -0.1601 -0.5360 -0.2058
25951SOL    HW273182   7.350   4.412   0.372 -1.2756  0.1632 -0.6679
25952SOL     OW73183   2.865   6.350   2.184  0.0858  0.0146  0.3779
25952SOL    HW173184   2.894   6.369   2.278 -1.2880  1.9320  0.4386
25952SOL    HW273185   2.799   6.274   2.185  1.5312 -1.2690  0.7204
25953SOL     OW73186   8.261   5.143   4.479 -0.4319 -0.2996  0.1783
25953SOL    HW173187   8.358   5.131   4.461 -0.1634  2.1866 -0.2201
25953SOL    HW273188   8.245   5.142   4.578 -0.1126 -1.4888  0.2173
25955SOL     OW73189   5.307   8.184   3.015  0.3929 -0.4121 -0.2384
25955SOL    HW173190   5.331   8.242   3.093  0.5461 -0.4241 -0.2762
25955SOL    HW273191   5.380   8.189   2.947  0.0312 -0.0147 -0.5960
25956SOL     OW73192   9.483   9.041   2.071  0.2289  0.1155  0.3213
25956SOL    HW173193   9.576   9.049   2.106  0.3386  1.0240 -0.1611
25956SOL    HW273194   9.426   9.113   2.112 -0.4789 -0.9796  1.2987
25957SOL     OW73195   5.814   8.361   5.074 -0.0549 -0.2630 -0.4930
25957SOL    HW173196   5.832   8.354   5.172 -0.0055 -0.5327 -0.5218
25957SOL    HW273197   5.740   8.298   5.049  1.3684 -1.7685 -1.0061
25958SOL     OW73198   8.406   7.122   0.552 -0.1610 -0.1109  0.0104
25958SOL    HW173199   8.499   7.096   0.576  0.4090  0.1633 -1.8055
25958SOL    HW273200   8.381   7.207   0.599  0.9749  0.5032 -0.4747
25959SOL     OW73201   9.570   5.335   7.622 -0.1850 -0.1719 -0.3291
25959SOL    HW173202   9.618   5.331   7.710 -0.7820 -1.3965 -0.0548
25959SOL    HW273203   9.534   5.427   7.608  0.1486  0.1057  0.5813
25960SOL     OW73204   1.743   1.923   3.734 -0.5689  0.3030 -0.6330
25960SOL    HW173205   1.687   1.861   3.679  2.1513 -2.6449 -0.2230
25960SOL    HW273206   1.808   1.970   3.674 -0.3703  0.2088 -0.4917
25961SOL     OW73207   4.937   1.124   4.876  0.3295  0.2282 -0.3595
25961SOL    HW173208   4.894   1.053   4.820 -0.6454  0.9732 -0.5678
25961SOL    HW273209   4.929   1.100   4.972 -0.5752  0.3621 -0.3961
25962SOL     OW73210   2.789   1.535   2.342  0.1724  0.0629 -0.3057
25962SOL    HW173211   2.881   1.570   2.355  0.5150 -1.0202  0.2725
25962SOL    HW273212   2.735   1.601   2.290  1.3677  0.5593 -0.9440
25963SOL     OW73213   4.402   6.757   0.036 -0.3519  0.1833 -0.2090
25963SOL    HW173214   4.494   6.788   0.061 -0.8958  1.7316 -0.0412
25963SOL    HW273215   4.407   6.665  -0.003  1.2756  0.2910 -0.3004
25964SOL     OW73216   5.515   8.128   4.792  0.2110  0.7124  0.6463
25964SOL    HW173217   5.578   8.056   4.823  0.1483  0.6164  0.5475
25964SOL    HW273218   5.494   8.114   4.696 -0.2427  0.5395  0.7700
25967SOL     OW73219   8.204   4.708   3.071 -0.4918  0.1904 -0.2766
25967SOL    HW173220   8.200   4.743   2.977  0.3448 -1.8532 -1.1020
25967SOL    HW273221   8.114   4.674   3.097 -0.2366 -1.1820 -1.1284
25970SOL     OW73222   9.195   5.699   3.850  0.1186 -0.0326 -0.8682
25970SOL    HW173223   9.293   5.708   3.836  0.4256 -1.0095  0.5000
25970SOL    HW273224   9.171   5.733   3.941 -0.8955  0.6675 -1.3798
25971SOL     OW73225   9.701   9.836   7.754 -0.1116  0.1447 -0.1690
25971SOL    HW173226   9.660   9.898   7.688  0.5554  0.3296 -0.4186
25971SOL    HW273227   9.655   9.845   7.842 -0.5541  0.3941 -0.4249
25973SOL     OW73228   9.566   2.058   3.705  0.5998  0.3607  0.0626
25973SOL    HW173229   9.489   2.045   3.643  3.0520 -1.8333 -2.6442
25973SOL    HW273230   9.565   2.152   3.740 -2.8517  0.5778 -0.4287
25974SOL     OW73231   2.381   5.334   2.145  0.3666 -0.8099  0.3668
25974SOL    HW173232   2.285   5.357   2.129 -0.2647 -1.8837  2.3783
25974SOL    HW273233   2.435   5.355   2.063 -1.1833  1.9029  0.0048
25975SOL     OW73234   7.610   5.751   3.357 -0.7896 -0.5870  0.4606
25975SOL    HW173235   7.622   5.700   3.272 -0.1397 -0.5691  0.5385
25975SOL    HW273236   7.561   5.694   3.423 -0.6460 -0.8685  0.3248
25976SOL     OW73237   8.915   3.688   3.359  0.3927  0.1113 -0.3274
25976SOL    HW173238   8.937   3.592   3.339 -0.7850 -0.2182 -0.0918
25976SOL    HW273239   8.816   3.700   3.356  0.5671  1.4424 -0.8697
25977SOL     OW73240   8.699   4.537   1.569 -0.0888  0.3122 -0.1247
25977SOL    HW173241   8.758   4.475   1.621  0.5523  0.1547 -1.0260
25977SOL    HW273242   8.650   4.485   1.499 -0.3156  0.6585 -0.2242
25978SOL     OW73243   6.949   2.085   5.179  0.2739 -0.4605 -0.1208
25978SOL    HW173244   6.960   2.018   5.253  0.3822  0.3366  0.5944
25978SOL    HW273245   6.930   2.037   5.093 -2.3520 -1.3053  0.8717
25979SOL     OW73246   7.046   2.287   2.053 -0.2852  0.0565 -0.0688
25979SOL    HW173247   6.990   2.327   1.981 -0.0637  0.0167 -0.2624
25979SOL    HW273248   7.140   2.275   2.020 -0.1143  0.3060  0.3166
25980SOL     OW73249   0.404   7.073   6.123  0.3269  0.1280  0.2864
25980SOL    HW173250   0.307   7.090   6.136  0.2316 -0.5967  0.5585
25980SOL    HW273251   0.440   7.022   6.202  0.5132 -1.2748 -0.6892
25981SOL     OW73252   5.332   0.694   7.371  0.4654 -0.3801 -0.5403
25981SOL    HW173253   5.278   0.756   7.429 -1.2164 -2.0047 -0.3035
25981SOL    HW273254   5.359   0.614   7.425  3.3999  0.5264 -0.5856
25982SOL     OW73255   0.780   4.806   1.475 -0.7123  0.0953 -0.1456
25982SOL    HW173256   0.689   4.837   1.445 -0.6738  0.3882  0.0370
25982SOL    HW273257   0.812   4.733   1.414 -0.7631  0.4816 -0.6383
25983SOL     OW73258   1.077   4.388   0.412 -0.1221 -0.1096 -0.3723
25983SOL    HW173259   1.137   4.324   0.461  0.1297  1.1709  1.0339
25983SOL    HW273260   1.033   4.449   0.477 -1.5019  0.2045 -1.5747
25984SOL     OW73261   0.619   0.407   2.415  0.5254 -0.2625  0.2117
25984SOL    HW173262   0.630   0.329   2.477 -0.7328 -0.5374  0.0956
25984SOL    HW273263   0.693   0.473   2.431  0.6121 -0.6637  1.5070
25985SOL     OW73264   2.963   5.187   0.074  0.3250  0.9309 -0.3010
25985SOL    HW173265   2.897   5.217   0.142  0.7913  2.0476 -0.3298
25985SOL    HW273266   2.938   5.225  -0.016  0.8438  1.1230 -0.3652
25986SOL     OW73267   7.164   0.661   1.368  0.0718  0.2748 -0.5551
25986SOL    HW173268   7.165   0.753   1.406 -1.1275  0.2211 -0.3855
25986SOL    HW273269   7.070   0.629   1.359  0.5142 -1.3031  0.2808
25987SOL     OW73270   1.942   3.204   7.084  0.4204  0.0239  0.2247
25987SOL    HW173271   1.917   3.158   7.169  0.5717 -0.1064  0.1981
25987SOL    HW273272   2.041   3.210   7.076  0.4178 -0.5858 -0.2722
25988SOL     OW73273   7.505   0.200   3.565 -0.1167  0.1051  0.7358
25988SOL    HW173274   7.447   0.130   3.606 -0.6636 -0.5850 -1.1567
25988SOL    HW273275   7.454   0.285   3.557 -1.1353 -0.6692 -1.4981
25989SOL     OW73276   0.093   1.634   2.968  0.2444  0.0203 -0.3717
25989SOL    HW173277   0.151   1.552   2.965 -0.2884 -0.2897 -2.4481
25989SOL    HW273278   0.150   1.714   2.984  1.0051 -0.5175 -0.3468
25990SOL     OW73279   8.635   1.785   4.891  0.2872  0.4692 -0.0788
25990SOL    HW173280   8.580   1.770   4.973  1.1755  0.5215  0.5335
25990SOL    HW273281   8.715   1.724   4.893  0.0954  0.1710 -1.1055
25991SOL     OW73282   2.316   0.476   3.469 -0.5568  0.2429  0.2982
25991SOL    HW173283   2.325   0.573   3.448  2.7708 -0.3892 -1.5466
25991SOL    HW273284   2.346   0.459   3.563  0.5905  0.7775  0.0390
25994SOL     OW73285   9.954   4.495   3.807 -0.0436 -0.0816 -0.3094
25994SOL    HW173286   9.890   4.559   3.851  0.3241  0.7833 -1.0087
25994SOL    HW273287   9.984   4.533   3.720  1.5708 -0.3833  0.0956
25996SOL     OW73288   8.252   4.702   1.458 -0.2142  0.5654 -0.3341
25996SOL    HW173289   8.284   4.621   1.409 -2.6193 -0.6898  0.0966
25996SOL    HW273290   8.322   4.773   1.454  1.5912 -1.2277 -1.4372
25997SOL     OW73291   5.118   8.312   4.185 -0.1908  0.0340 -0.1979
25997SOL    HW173292   5.047   8.242   4.194 -1.5723  1.2423 -1.5365
25997SOL    HW273293   5.151   8.337   4.276  0.3812 -2.3742  0.3053
25998SOL     OW73294   0.734   8.532   5.373  0.3474  0.8205 -0.1223
25998SOL    HW173295   0.762   8.436   5.363 -0.3697  0.5251  0.7301
25998SOL    HW273296   0.639   8.536   5.405  0.1100  1.8178 -0.9377
25999SOL     OW73297   8.912   0.148   4.275  0.6593  0.1407  0.3259
25999SOL    HW173298   8.875   0.068   4.323  3.0916 -0.1183  1.8093
25999SOL    HW273299   8.895   0.230   4.329  1.8024  0.0840  0.7759
26000SOL     OW73300   3.763   5.887   7.389  0.0130 -0.5688  0.1200
26000SOL    HW173301   3.762   5.849   7.297 -0.1956  0.6080 -0.3650
26000SOL    HW273302   3.833   5.959   7.395 -0.7119  0.0988  0.5833
26001SOL     OW73303   7.256   4.097   7.326  0.7103  0.2989  0.4859
26001SOL    HW173304   7.224   4.184   7.289 -1.1590 -0.4448  0.2872
26001SOL    HW273305   7.190   4.064   7.394  0.6773 -1.6318 -0.4558
26002SOL     OW73306   6.845   3.498   2.003 -0.4456 -0.9325  0.1952
26002SOL    HW173307   6.855   3.573   1.937  0.6265 -0.4543  0.8843
26002SOL    HW273308   6.897   3.419   1.971 -0.5044 -0.9388  0.1146
26003SOL     OW73309   9.751   0.053   4.490 -0.2047 -0.3098 -0.0688
26003SOL    HW173310   9.741   0.042   4.589  1.4377 -1.8093 -0.0477
26003SOL    HW273311   9.793   0.141   4.470 -1.8587  0.6297  0.4678
26004SOL     OW73312   4.629   5.326   4.448 -0.0868 -0.0668 -0.3698
26004SOL    HW173313   4.626   5.315   4.349  0.0051 -0.9322 -0.2809
26004SOL    HW273314   4.668   5.415   4.471  0.9770 -0.3324 -1.0995
26006SOL     OW73315   9.031   0.837   4.167 -0.1355  0.0388 -0.7100
26006SOL    HW173316   9.071   0.865   4.080  1.5702 -1.2092 -0.3406
26006SOL    HW273317   8.950   0.781   4.149  1.5748 -2.2399 -1.5631
26007SOL     OW73318   4.328   5.838   7.860 -0.2743 -0.2613  0.2563
26007SOL    HW173319   4.328   5.779   7.941 -1.0715 -0.5390  0.0609
26007SOL    HW273320   4.267   5.799   7.791 -0.5541  0.6212  0.0009
26008SOL     OW73321   4.513   8.283   4.515 -0.1842  0.0287  0.3096
26008SOL    HW173322   4.458   8.246   4.441  0.1268  0.2596 -0.0361
26008SOL    HW273323   4.607   8.249   4.507  0.1985  1.1983 -0.2319
26009SOL     OW73324   0.860   6.131   2.382 -0.4224  0.4502  0.3802
26009SOL    HW173325   0.787   6.130   2.451 -0.4098  0.9999  0.4095
26009SOL    HW273326   0.935   6.072   2.411  0.5990  2.4651  1.9624
26010SOL     OW73327   9.330   7.781   5.433  0.3290 -0.0310  0.5848
26010SOL    HW173328   9.337   7.837   5.516  0.1429  0.8179  0.0312
26010SOL    HW273329   9.413   7.727   5.422  0.2452 -0.3551  1.4712
26012SOL     OW73330   2.323   8.937   4.697 -0.1783  0.1624  0.2274
26012SOL    HW173331   2.361   8.984   4.777 -1.0561 -0.2899  0.9172
26012SOL    HW273332   2.236   8.893   4.722 -1.0682  1.0341 -1.2899
26014SOL     OW73333   1.648   9.776   0.408  0.6575  0.1422 -0.1372
26014SOL    HW173334   1.716   9.849   0.410  1.3784 -0.3206 -4.2373
26014SOL    HW273335   1.571   9.802   0.351 -0.8636 -0.8639  1.3880
26015SOL     OW73336   1.127   2.995   4.256 -0.2014  0.0973 -0.2533
26015SOL    HW173337   1.126   2.946   4.169 -2.0583 -1.3260  0.5231
26015SOL    HW273338   1.043   3.049   4.265  0.0508  0.3637  0.5897
26016SOL     OW73339   0.829   7.005   1.879  0.3237 -0.3099 -0.6726
26016SOL    HW173340   0.772   7.022   1.959  0.6695  1.5152 -0.7930
26016SOL    HW273341   0.925   7.020   1.902  0.5304 -0.9359 -1.1166
26017SOL     OW73342   0.093   7.285   6.506  0.0308  0.4657  0.0425
26017SOL    HW173343   0.158   7.347   6.462 -0.2538 -0.5652 -1.8558
26017SOL    HW273344   0.083   7.311   6.602  1.8188  1.7998 -0.1012
26018SOL     OW73345   1.628   0.139   6.776 -0.0117  0.2798 -0.1301
26018SOL    HW173346   1.582   0.223   6.749 -0.3325 -0.0256 -0.5390
26018SOL    HW273347   1.573   0.060   6.748  0.1210 -0.0587  0.5489
26019SOL     OW73348   7.055   5.455   1.702 -0.4379 -0.1771 -0.2100
26019SOL    HW173349   7.053   5.365   1.746  1.3120 -0.2023 -0.1600
26019SOL    HW273350   6.970   5.469   1.652 -1.8023 -0.8161  1.8412
26020SOL     OW73351   1.539   8.410   0.470 -0.0858  0.6470  1.1361
26020SOL    HW173352   1.496   8.325   0.501 -0.9541  1.8226  3.1772
26020SOL    HW273353   1.638   8.395   0.461 -0.3756 -0.9085  0.3262
26022SOL     OW73354   7.820   1.188   5.450  0.7395  0.3115  0.3081
26022SOL    HW173355   7.805   1.166   5.354  3.1577  1.7985 -0.4462
26022SOL    HW273356   7.757   1.259   5.479 -0.2719 -0.4334 -0.0491
26023SOL     OW73357   9.100   0.824   6.954 -0.1005  0.0619  0.1225
26023SOL    HW173358   9.070   0.810   6.859 -2.0536  1.0325  0.5819
26023SOL    HW273359   9.020   0.834   7.013  1.1155 -0.0003  1.8008
26024SOL     OW73360   6.961   4.883   2.522  0.1870 -0.4612  0.1295
26024SOL    HW173361   6.952   4.858   2.618 -1.6417 -0.7187 -0.0976
26024SOL    HW273362   7.019   4.965   2.514 -1.5305  0.9279  1.6341
26025SOL     OW73363   1.235   6.843   6.346 -0.7754 -0.2661  0.4276
26025SOL    HW173364   1.188   6.768   6.300  1.2809 -1.9132  0.9860
26025SOL    HW273365   1.244   6.823   6.443 -0.5035  0.8520  0.6439
26026SOL     OW73366   7.134   7.379   6.530  0.4614 -0.2278 -0.3395
26026SOL    HW173367   7.058   7.412   6.473 -0.5483 -2.0446 -0.0940
26026SOL    HW273368   7.219   7.382   6.477  0.0124  0.6766 -1.0333
26028SOL     OW73369   0.165   2.776   1.587 -0.4047  0.1684 -0.1980
26028SOL    HW173370   0.211   2.834   1.520 -1.3229  1.6391  0.4154
26028SOL    HW273371   0.232   2.721   1.636  0.1811 -2.1032 -3.3594
26029SOL     OW73372   1.122   9.186   6.537  0.1944  0.3078 -0.0346
26029SOL    HW173373   1.174   9.132   6.604  2.7517  1.1623 -1.2590
26029SOL    HW273374   1.044   9.133   6.505  0.4337 -1.1357  1.6733
26030SOL     OW73375   1.335   6.662   2.622 -0.6834 -0.2422  0.1489
26030SOL    HW173376   1.260   6.717   2.584 -1.6767 -1.6477  0.0697
26030SOL    HW273377   1.422   6.704   2.595 -1.4126  0.9880 -0.3847
26031SOL     OW73378   5.460   1.975   5.231 -0.1415 -0.0313  0.5526
26031SOL    HW173379   5.453   1.993   5.133  0.5970  0.1053  0.5182
26031SOL    HW273380   5.462   1.876   5.247  1.4976 -0.0616  0.2791
26032SOL     OW73381   3.886   1.916   3.192  0.4084  0.5315 -0.2538
26032SOL    HW173382   3.830   1.835   3.212  0.9003  0.4707  0.9416
26032SOL    HW273383   3.826   1.995   3.180 -0.0528  0.0639 -1.0569
26033SOL     OW73384   7.684   6.316   4.552 -0.2246  0.1133 -0.4406
26033SOL    HW173385   7.607   6.301   4.614  1.4579 -0.8063  1.5246
26033SOL    HW273386   7.707   6.230   4.506  0.7402 -0.0721  0.3585
26034SOL     OW73387   9.689   1.124   4.417 -0.2553  0.0369  0.2404
26034SOL    HW173388   9.720   1.175   4.337  0.3926  0.6444  0.8782
26034SOL    HW273389   9.742   1.039   4.424  0.0756  0.2497  0.3404
26035SOL     OW73390   9.045   0.949   5.774  0.0858 -0.0038 -1.1721
26035SOL    HW173391   8.953   0.935   5.737  0.2032 -0.9048 -1.1158
26035SOL    HW273392   9.110   0.888   5.728  0.1440 -1.5280  0.9094
26036SOL     OW73393   1.100   8.595   2.972 -0.1750 -0.0241 -0.4755
26036SOL    HW173394   1.063   8.583   3.063  1.9562  1.9908  0.7134
26036SOL    HW273395   1.055   8.673   2.928 -0.2139 -0.1252 -0.6159
26039SOL     OW73396   2.144   2.638   0.515  0.0394  0.0929 -0.0607
26039SOL    HW173397   2.097   2.551   0.500  0.8866 -0.9014  2.8372
26039SOL    HW273398   2.076   2.712   0.523 -0.9565 -0.9938  1.8849
26040SOL     OW73399   9.600   8.864   0.372  0.0449 -0.2929  0.0807
26040SOL    HW173400   9.683   8.885   0.424 -0.5301  0.0552  0.8601
26040SOL    HW273401   9.575   8.942   0.315 -0.6322  0.2012  1.0363
26041SOL     OW73402   4.296   5.189   2.004  0.4627 -0.0557  0.1121
26041SOL    HW173403   4.328   5.144   1.921  1.8134  0.1207  0.5322
26041SOL    HW273404   4.219   5.137   2.042  0.8781 -1.0323 -0.3552
26042SOL     OW73405   9.834   3.923   4.226 -1.0335 -0.3167 -0.0983
26042SOL    HW173406   9.740   3.891   4.239 -1.3816 -0.0338 -1.7980
26042SOL    HW273407   9.836   4.023   4.232 -0.8216 -0.3331  0.0856
26043SOL     OW73408   9.784   6.776   2.733  0.1016  0.1178  0.1334
26043SOL    HW173409   9.821   6.801   2.643  1.4754  1.2950  1.0248
26043SOL    HW273410   9.811   6.683   2.755  2.9050  1.0960  0.9513
26046SOL     OW73411   4.662   1.986   0.100  0.0403 -0.0100  0.4039
26046SOL    HW173412   4.750   1.949   0.130  2.0762  2.7219 -1.9370
26046SOL    HW273413   4.633   2.057   0.164 -0.2570 -0.5611  0.8942
26048SOL     OW73414   9.418   1.806   5.706 -0.1069  0.2292 -0.2980
26048SOL    HW173415   9.337   1.747   5.699 -0.3273  0.3055  1.5599
26048SOL    HW273416   9.480   1.786   5.630 -2.1431  0.5829 -2.0973
26049SOL     OW73417   0.900   8.444   4.675  0.0557  0.1318 -0.9106
26049SOL    HW173418   0.979   8.478   4.624 -0.2081  0.7678 -0.8913
26049SOL    HW273419   0.876   8.509   4.747 -0.1368 -0.3298 -0.5553
26050SOL     OW73420   2.215   4.223   5.753  0.3896 -0.1217 -0.1321
26050SOL    HW173421   2.184   4.169   5.831  1.9217 -0.0874  0.5124
26050SOL    HW273422   2.236   4.162   5.676 -0.9956 -0.1639 -0.4919
26051SOL     OW73423   3.656   5.385   0.522  0.2039  0.6230 -0.1741
26051SOL    HW173424   3.556   5.396   0.526  0.2483  0.4939  1.7239
26051SOL    HW273425   3.700   5.455   0.577  1.0189 -1.0674  1.3995
26052SOL     OW73426   9.863   6.206   1.013  0.2054  0.2967 -0.1729
26052SOL    HW173427   9.837   6.201   0.916 -1.6161 -1.9514  0.3967
26052SOL    HW273428   9.798   6.264   1.062 -0.4090 -0.7108  0.1991
26055SOL     OW73429   9.335   0.112   7.449  0.8331  0.0381 -0.6280
26055SOL    HW173430   9.421   0.144   7.410  0.9218  0.1876 -0.3114
26055SOL    HW273431   9.261   0.128   7.383  0.5083  3.0139  0.3865
26056SOL     OW73432   8.372   2.473   5.097  0.0022 -0.1373  0.0345
26056SOL    HW173433   8.384   2.373   5.099  0.8001 -0.0300  0.8747
26056SOL    HW273434   8.440   2.516   5.156  0.0437  0.9503 -0.7868
26057SOL     OW73435   4.716   0.775   5.742  0.1812 -0.6832 -0.1258
26057SOL    HW173436   4.639   0.839   5.740 -0.6499 -1.6480  0.2030
26057SOL    HW273437   4.778   0.795   5.666 -0.4596  0.0252 -0.4719
26058SOL     OW73438   5.733   8.992   6.450  0.1313  0.0571 -0.0363
26058SOL    HW173439   5.819   8.998   6.503 -0.1071  1.5517  0.2052
26058SOL    HW273440   5.691   8.903   6.466  2.1895 -1.1459 -1.0195
26059SOL     OW73441   8.573   1.943   6.038 -0.2286 -0.1059  0.1516
26059SOL    HW173442   8.567   1.852   5.996  0.6284  0.0894 -0.3953
26059SOL    HW273443   8.651   1.993   6.000 -0.8104  0.9375  0.3048
26060SOL     OW73444   4.188   0.102   5.314 -0.1996 -0.7137  0.3518
26060SOL    HW173445   4.205   0.118   5.217 -0.7382  0.6523  0.4630
26060SOL    HW273446   4.257   0.040   5.351  0.3678 -0.7512 -0.7605
26061SOL     OW73447   7.369   2.221   3.367 -0.0279 -0.1860 -0.5335
26061SOL    HW173448   7.340   2.125   3.357  0.6058 -0.2764 -1.5864
26061SOL    HW273449   7.437   2.227   3.441 -2.8695  0.0761  2.1688
26062SOL     OW73450   4.127   4.828   6.294  0.5377 -0.2148  0.1133
26062SOL    HW173451   4.189   4.763   6.251  0.3377 -1.8350  2.2003
26062SOL    HW273452   4.035   4.815   6.257  0.6373 -0.6044  0.0029
26063SOL     OW73453   3.853   2.667   3.011  0.2305  0.3100  0.0205
26063SOL    HW173454   3.849   2.631   3.105 -1.9356  0.0206 -0.1488
26063SOL    HW273455   3.789   2.616   2.954  1.3294  0.6839 -1.5688
26064SOL     OW73456   0.284   3.278   7.346  0.2893  0.4446  0.3692
26064SOL    HW173457   0.339   3.199   7.372  0.0419 -0.2777 -1.2659
26064SOL    HW273458   0.187   3.257   7.362  0.3162  0.9565  1.2754
26065SOL     OW73459   7.270   0.720   1.856  0.7951 -0.5227  0.1828
26065SOL    HW173460   7.184   0.693   1.813  0.2251 -0.7366  1.4215
26065SOL    HW273461   7.290   0.815   1.834  0.5531 -0.6571 -0.6202
26066SOL     OW73462   4.844   2.549   4.989 -0.0592  0.4044  0.0028
26066SOL    HW173463   4.766   2.506   4.944 -0.0730 -0.0178  0.4324
26066SOL    HW273464   4.812   2.606   5.064 -0.1318  2.0690 -1.2571
26067SOL     OW73465   1.938   2.213   7.056 -0.0457 -0.3541 -0.1373
26067SOL    HW173466   1.903   2.278   7.124  1.9148  1.0679 -0.4665
26067SOL    HW273467   1.891   2.229   6.969  0.6101  0.8017 -0.2857
26068SOL     OW73468   1.484   1.450   3.353 -0.6594  0.2855  0.0761
26068SOL    HW173469   1.521   1.543   3.353  1.7740 -0.6442  0.6034
26068SOL    HW273470   1.407   1.445   3.289  1.0233  1.9469 -2.1701
26069SOL     OW73471   4.572   3.727   6.707  0.0059  0.0872 -0.4022
26069SOL    HW173472   4.517   3.702   6.627  3.0253 -0.5299 -2.3703
26069SOL    HW273473   4.556   3.662   6.781 -2.2573  0.2100 -0.7605
26070SOL     OW73474   1.821   7.303   7.867 -0.5188  0.8297 -0.3483
26070SOL    HW173475   1.727   7.294   7.899 -0.5608  0.0202 -0.6856
26070SOL    HW273476   1.824   7.364   7.788 -1.0294 -0.6100 -1.4976
26071SOL     OW73477   7.155   8.037   2.295 -0.3538  0.6414  0.1928
26071SOL    HW173478   7.061   8.061   2.271  0.2042  2.3516 -0.3318
26071SOL    HW273479   7.203   8.006   2.213 -0.8084 -1.4780  0.6987
26074SOL     OW73480   5.098   9.624   6.686  0.0076  0.0395  0.3608
26074SOL    HW173481   5.167   9.670   6.630  0.5952 -0.0962  0.9678
26074SOL    HW273482   5.113   9.525   6.684 -0.1289  0.0142  0.5485
26075SOL     OW73483   1.509   7.513   1.852 -0.2263 -0.0222 -0.4189
26075SOL    HW173484   1.411   7.527   1.837  0.3214  3.7657 -0.9497
26075SOL    HW273485   1.523   7.427   1.901 -3.6921 -1.3013 -1.4863
26076SOL     OW73486   1.014   3.328   3.398 -0.1168 -0.1274 -0.3298
26076SOL    HW173487   1.101   3.290   3.368 -0.0897 -0.9354  0.7490
26076SOL    HW273488   0.945   3.315   3.326  0.8784  1.4108 -1.5888
26077SOL     OW73489   3.301   7.962   0.765  0.2191  0.0352 -0.2200
26077SOL    HW173490   3.288   7.924   0.857 -1.1107 -3.0121 -1.6141
26077SOL    HW273491   3.394   7.996   0.756  0.6970 -0.6513  1.9198
26078SOL     OW73492   2.026   7.890   4.597  0.1002 -0.2197  0.1232
26078SOL    HW173493   2.031   7.974   4.543  2.0072 -0.8636 -0.7380
26078SOL    HW273494   2.028   7.810   4.537  0.5091 -0.9151  1.0355
26079SOL     OW73495   3.472   2.882   5.337 -0.2445  0.2563  0.2281
26079SOL    HW173496   3.473   2.812   5.408 -1.7109  0.5020  0.5117
26079SOL    HW273497   3.460   2.839   5.248  1.0008 -0.0063  0.1769
26081SOL     OW73498   9.194   5.665   0.722 -0.0960 -0.5242 -0.5556
26081SOL    HW173499   9.238   5.686   0.809  1.5786  0.7742 -1.6874
26081SOL    HW273500   9.193   5.566   0.708  1.2921 -0.6289  0.0781
26082SOL     OW73501   1.874   9.837   0.109  0.3573  0.0081  0.2608
26082SOL    HW173502   1.897   9.740   0.114  1.0739  0.2505  2.1038
26082SOL    HW273503   1.927   9.880   0.036  2.4216 -0.3485  1.5309
26083SOL     OW73504   0.806   9.627   5.528 -0.0945 -0.0785  0.3868
26083SOL    HW173505   0.832   9.724   5.530  0.9131 -0.3365  0.2442
26083SOL    HW273506   0.887   9.572   5.508 -0.9074 -0.8642 -0.7422
26084SOL     OW73507   1.361   5.087   4.291 -0.2642  0.5953  0.4864
26084SOL    HW173508   1.399   5.033   4.367 -1.3356  1.0856  1.3739
26084SOL    HW273509   1.370   5.184   4.312  0.5309  0.7580 -0.5621
26085SOL     OW73510   4.376   9.092   1.471 -0.1890 -0.3316  0.5622
26085SOL    HW173511   4.356   9.046   1.385 -1.0530  0.1859  0.4811
26085SOL    HW273512   4.398   9.025   1.541 -0.5406 -0.8079  0.2152
26087SOL     OW73513   1.604   2.586   5.125 -0.0869 -0.2801 -0.3177
26087SOL    HW173514   1.672   2.657   5.108  0.1942 -0.9527 -2.0415
26087SOL    HW273515   1.514   2.616   5.093  0.1072 -0.8399 -1.4179
26088SOL     OW73516   4.576   9.823   4.954  0.1217  0.4609 -0.4331
26088SOL    HW173517   4.549   9.906   4.904  0.8311  0.9528 -0.0136
26088SOL    HW273518   4.626   9.762   4.893 -2.1252 -0.5897 -1.3018
26089SOL     OW73519   8.252   2.251   2.922 -0.4571  0.1091 -0.1956
26089SOL    HW173520   8.275   2.279   2.829  1.0855 -1.0645 -0.1780
26089SOL    HW273521   8.153   2.255   2.934 -0.5347  2.0940 -1.2918
26091SOL     OW73522   6.666   0.301   1.744  0.5278 -0.5338 -0.2822
26091SOL    HW173523   6.613   0.373   1.788  0.9191 -2.7634  4.1480
26091SOL    HW273524   6.604   0.237   1.699 -0.1203  0.0364 -0.2048
26092SOL     OW73525   0.317   8.917   1.279  0.0529  0.2025  0.3002
26092SOL    HW173526   0.374   8.836   1.267  0.0311  0.1504  0.5444
26092SOL    HW273527   0.341   8.986   1.210  1.4819  0.7923  1.3779
26093SOL     OW73528   7.033   0.584   4.611 -0.1462 -0.5423  0.4848
26093SOL    HW173529   7.053   0.544   4.521 -1.0741  2.8911 -1.3295
26093SOL    HW273530   6.933   0.586   4.624 -0.0125 -1.0708  1.6350
26094SOL     OW73531   3.111   4.611   3.546  0.3675  0.5305  0.2303
26094SOL    HW173532   3.136   4.522   3.583  0.0919 -1.0665 -3.2831
26094SOL    HW273533   3.194   4.661   3.518  0.4357  0.8650  1.0129
26095SOL     OW73534   1.067   2.898   0.627  0.4792  0.3117 -0.4823
26095SOL    HW173535   0.979   2.862   0.596 -0.1640  0.5036  1.0990
26095SOL    HW273536   1.140   2.837   0.597 -0.3290 -0.7144 -0.3973
26096SOL     OW73537   6.993   1.778   1.340 -0.8641  0.2366  0.8858
26096SOL    HW173538   6.966   1.874   1.334 -1.1358  0.1849  1.2605
26096SOL    HW273539   6.961   1.740   1.427 -0.4365 -0.0924  0.9006
26097SOL     OW73540   9.525   3.734   1.712  0.4981 -0.3106 -0.3149
26097SOL    HW173541   9.539   3.636   1.725  3.1369 -0.0790 -1.0851
26097SOL    HW273542   9.448   3.764   1.768 -1.4466 -3.1070 -1.3754
26098SOL     OW73543   1.549   5.217   5.505 -0.3551 -0.1105  0.5173
26098SOL    HW173544   1.513   5.305   5.474 -0.4905 -0.3064  0.1195
26098SOL    HW273545   1.506   5.143   5.453 -1.0945 -0.4855  1.6361
26099SOL     OW73546   2.740   3.934   4.074 -0.1113  0.3683 -0.0251
26099SOL    HW173547   2.665   3.893   4.125 -0.8276 -0.0185 -1.3700
26099SOL    HW273548   2.808   3.971   4.138 -0.3251 -1.3049  1.2086
26100SOL     OW73549   1.165   1.648   4.333  0.2109 -0.0667 -0.2393
26100SOL    HW173550   1.121   1.724   4.381 -0.4110 -0.5817  0.0141
26100SOL    HW273551   1.115   1.563   4.352 -0.4602 -0.1731 -2.3146
26102SOL     OW73552   3.894   3.371   3.571 -0.0612  0.2157  0.1511
26102SOL    HW173553   3.913   3.382   3.669 -0.2119  0.9091  0.1084
26102SOL    HW273554   3.833   3.293   3.558  0.0275  0.0655  0.6026
26103SOL     OW73555   6.545   1.659   4.975 -0.0000 -0.3038 -0.0017
26103SOL    HW173556   6.593   1.621   4.896 -0.0509  0.4105 -0.3819
26103SOL    HW273557   6.558   1.599   5.054  3.0600  0.7786  0.3947
26104SOL     OW73558   0.447   8.685   6.306 -0.2707 -0.1269  0.7722
26104SOL    HW173559   0.494   8.657   6.222 -0.2651  0.3753  0.6097
26104SOL    HW273560   0.515   8.699   6.379 -0.4223 -2.4236  1.4042
26105SOL     OW73561   8.211   3.153   1.416 -0.8918  0.0689 -0.6242
26105SOL    HW173562   8.241   3.198   1.332 -1.0842  0.1832 -0.6316
26105SOL    HW273563   8.136   3.090   1.395 -0.7838 -0.0758 -0.5757
26106SOL     OW73564   7.364   5.458   3.439 -0.0543 -0.0521 -0.1290
26106SOL    HW173565   7.273   5.448   3.398 -0.0349 -0.4164 -0.0834
26106SOL    HW273566   7.366   5.541   3.495 -0.7800 -0.7663  0.9780
26107SOL     OW73567   7.449   4.587   7.218  0.3607 -0.0182 -0.0589
26107SOL    HW173568   7.504   4.516   7.173 -0.3959 -1.7727  1.7045
26107SOL    HW273569   7.358   4.589   7.177 -0.2136 -1.3735  1.0938
26108SOL     OW73570   1.625   5.249   0.500 -0.5636 -0.1025 -0.2647
26108SOL    HW173571   1.684   5.319   0.462  2.0843 -2.4911 -0.6957
26108SOL    HW273572   1.630   5.166   0.444 -0.1792 -2.1324  2.6463
26110SOL     OW73573   6.246   8.795   4.805 -0.0145  0.1807 -0.2190
26110SOL    HW173574   6.273   8.808   4.710 -1.5733  0.7437 -0.5917
26110SOL    HW273575   6.307   8.847   4.865 -0.2853  1.4762 -1.0546
26112SOL     OW73576   1.167   0.477   3.522  0.4854  0.0534 -0.4608
26112SOL    HW173577   1.178   0.508   3.427  0.2609 -0.9314 -0.8164
26112SOL    HW273578   1.110   0.542   3.571 -0.4340 -0.0729 -1.3406
26113SOL     OW73579   0.225   8.532   6.385 -0.7268 -0.4965  0.1902
26113SOL    HW173580   0.224   8.458   6.318 -1.2132  0.2683 -0.6578
26113SOL    HW273581   0.308   8.587   6.373 -0.0940 -1.2193  1.1790
26114SOL     OW73582   5.817   8.657   3.268  0.0341 -0.0301  0.1836
26114SOL    HW173583   5.841   8.727   3.336  0.5444 -1.0148  1.0197
26114SOL    HW273584   5.855   8.569   3.295 -1.4833 -0.8630 -0.3315
26116SOL     OW73585   6.626   1.377   1.814 -0.0814 -0.0693 -0.5418
26116SOL    HW173586   6.597   1.467   1.848  0.0043 -0.6900  1.2240
26116SOL    HW273587   6.547   1.330   1.775 -1.4217 -1.4291  3.5240
26117SOL     OW73588   5.738   9.985   6.148 -0.1739  0.2752  0.0896
26117SOL    HW173589   5.784  10.073   6.138 -0.9702  0.7007  0.1014
26117SOL    HW273590   5.670   9.991   6.221  0.3158 -0.5840  0.6146
26118SOL     OW73591   8.543   1.508   7.316  0.1454  0.4371 -0.5988
26118SOL    HW173592   8.632   1.544   7.290  0.6690 -0.4397 -0.0448
26118SOL    HW273593   8.540   1.410   7.298 -1.3713  0.7784 -2.3686
26119SOL     OW73594   8.308   7.590   2.672  0.3199 -0.1008 -0.1616
26119SOL    HW173595   8.317   7.501   2.628 -2.0508 -0.5937  0.2993
26119SOL    HW273596   8.333   7.662   2.607  2.2509 -1.0658 -0.5328
26120SOL     OW73597   1.560   8.799   3.751 -0.4593 -0.5957 -0.2468
26120SOL    HW173598   1.545   8.898   3.751  0.1926 -0.4888 -1.1362
26120SOL    HW273599   1.658   8.780   3.752 -0.5816 -1.2296 -0.0971
26121SOL     OW73600   3.309   0.022   6.577  0.5172 -0.2740 -0.0508
26121SOL    HW173601   3.386  -0.036   6.604  0.7676 -0.1275 -0.4403
26121SOL    HW273602   3.295   0.015   6.479  2.7120  2.8679 -0.6698
26122SOL     OW73603   8.786   5.764   0.311 -0.2937 -0.1476 -0.7621
26122SOL    HW173604   8.757   5.855   0.280 -1.4720  0.1154  1.0483
26122SOL    HW273605   8.883   5.767   0.336 -0.2022  0.4790 -1.1832
26123SOL     OW73606   7.062   0.750   3.687 -0.4059 -0.2795  0.3974
26123SOL    HW173607   7.041   0.844   3.712  0.2059 -0.4770  1.6948
26123SOL    HW273608   7.157   0.744   3.655  0.1026 -0.7539  1.9707
26124SOL     OW73609   7.791   6.489   3.694 -0.3078  0.6039  0.5106
26124SOL    HW173610   7.876   6.459   3.651 -0.9686  1.3749 -1.3872
26124SOL    HW273611   7.746   6.412   3.739 -0.8437 -0.7955 -2.3387
26125SOL     OW73612   1.598   4.513   7.692 -0.3814  0.0649  0.1947
26125SOL    HW173613   1.511   4.551   7.720 -0.2237  0.2908  0.3773
26125SOL    HW273614   1.671   4.580   7.708 -0.0981 -0.3242  0.5596
26126SOL     OW73615   1.412   4.668   5.708 -0.3201 -0.1725  0.0346
26126SOL    HW173616   1.334   4.647   5.649  1.7139 -0.4660 -2.6180
26126SOL    HW273617   1.448   4.758   5.685  0.7127 -0.4279  0.6276
26127SOL     OW73618   5.121   9.138   5.549  0.7696 -0.8490  0.0615
26127SOL    HW173619   5.095   9.063   5.610 -0.2308 -0.3909  0.1987
26127SOL    HW273620   5.136   9.221   5.604 -0.6816 -0.2950 -0.3830
26128SOL     OW73621   1.684   7.774   4.981 -0.3684 -0.0539 -0.7888
26128SOL    HW173622   1.607   7.711   4.996 -0.4911  0.2914  0.0308
26128SOL    HW273623   1.708   7.773   4.884  1.1349 -3.1084 -0.4478
26129SOL     OW73624   5.309   5.258   1.971 -0.7477 -0.2023  0.3133
26129SOL    HW173625   5.253   5.177   1.991 -0.0183 -1.0792 -1.1304
26129SOL    HW273626   5.254   5.326   1.924 -0.9609 -0.5026  0.1287
26130SOL     OW73627   1.963   2.321   6.193  0.2256  0.0988  0.0091
26130SOL    HW173628   1.954   2.407   6.142 -0.1519 -0.0756 -0.2207
26130SOL    HW273629   2.003   2.251   6.134  1.2027  0.3065  0.4078
26131SOL     OW73630   6.938   0.159   7.616  0.6947 -0.3649 -0.0675
26131SOL    HW173631   6.982   0.194   7.532 -0.1285  1.6595  0.3209
26131SOL    HW273632   6.841   0.179   7.613  0.5012 -1.1457  0.9651
26132SOL     OW73633   4.625   7.891   2.751  0.0397  0.6117 -0.2516
26132SOL    HW173634   4.721   7.876   2.777 -0.2941 -3.1266 -0.8756
26132SOL    HW273635   4.622   7.924   2.657  0.7060  0.2308 -0.4149
26133SOL     OW73636   5.849   8.025   5.216 -0.1730 -0.1061  0.0067
26133SOL    HW173637   5.839   8.120   5.245  3.3540  0.3038  0.1429
26133SOL    HW273638   5.887   8.022   5.124  2.7601 -1.3088  1.1844
26136SOL     OW73639   7.880   9.204   3.027 -0.3086 -0.0452 -0.1363
26136SOL    HW173640   7.925   9.191   3.115 -0.6181  1.0927  0.2025
26136SOL    HW273641   7.783   9.180   3.035 -0.3314  0.0355 -0.1627
26137SOL     OW73642   6.292   0.564   1.061 -0.0775 -0.1600 -0.6786
26137SOL    HW173643   6.259   0.469   1.061  1.4938 -0.7305 -1.6905
26137SOL    HW273644   6.285   0.601   1.154  0.0616 -1.5610 -0.0802
26139SOL     OW73645   4.575   3.475   0.459  0.1966 -0.1979  0.1976
26139SOL    HW173646   4.573   3.431   0.549  0.6511 -0.6347 -0.0029
26139SOL    HW273647   4.567   3.574   0.471  1.6002 -0.1380  0.8304
26140SOL     OW73648   7.352   1.357   4.686 -0.3038 -0.0274  0.3299
26140SOL    HW173649   7.254   1.361   4.664 -0.5493 -0.1568  1.3691
26140SOL    HW273650   7.405   1.343   4.602 -1.1681  0.1931 -0.2552
26144SOL     OW73651   4.548   4.579   2.878 -0.4551 -0.8202  0.9410
26144SOL    HW173652   4.470   4.519   2.893 -0.7395 -0.7685 -0.3054
26144SOL    HW273653   4.515   4.671   2.856 -0.0349 -0.6163  1.1545
26145SOL     OW73654   3.120   1.160   2.256 -0.1008  0.0582 -0.2032
26145SOL    HW173655   3.195   1.220   2.285 -0.7877  0.6304  0.4315
26145SOL    HW273656   3.059   1.210   2.194 -0.3952 -0.1447 -0.0787
26146SOL     OW73657   2.365   7.595   7.065  0.0813 -0.0996  0.1944
26146SOL    HW173658   2.443   7.655   7.083 -2.3288  2.5379  2.0281
26146SOL    HW273659   2.311   7.632   6.989 -1.7751  0.4291  1.7531
26148SOL     OW73660   2.391   9.137   3.878 -0.9888 -0.7429 -0.1267
26148SOL    HW173661   2.456   9.076   3.833 -1.3600  0.5068 -2.4254
26148SOL    HW273662   2.326   9.082   3.931  0.1948 -2.1710 -0.0922
26149SOL     OW73663   0.580   3.063   0.586 -0.2075  0.0990 -0.2289
26149SOL    HW173664   0.562   3.018   0.498 -0.2723  0.6903 -0.5200
26149SOL    HW273665   0.586   3.162   0.572 -2.3503  0.3891  0.7737
26150SOL     OW73666   2.212   6.315   2.515  0.1470  0.3083  0.3250
26150SOL    HW173667   2.271   6.300   2.594  0.3748 -0.3051  0.0338
26150SOL    HW273668   2.119   6.338   2.547 -0.5326 -2.9119  0.7784
26153SOL     OW73669   0.550   2.243   6.891 -0.2371 -0.1576  0.4055
26153SOL    HW173670   0.641   2.235   6.931 -0.7159 -1.0260  1.3703
26153SOL    HW273671   0.504   2.154   6.894 -1.1177  0.2714 -0.0450
26155SOL     OW73672   6.543   8.224   6.907  0.1423 -0.4724  0.3414
26155SOL    HW173673   6.511   8.298   6.966  2.1163  0.5875  0.1326
26155SOL    HW273674   6.559   8.259   6.815 -0.6802 -1.5856 -0.2373
26157SOL     OW73675   9.871   5.768   2.759 -0.3126  0.3267 -0.5235
26157SOL    HW173676   9.935   5.804   2.827 -2.2106 -0.2555  1.6338
26157SOL    HW273677   9.827   5.844   2.711  0.1978  0.7622 -0.3019
26158SOL     OW73678   8.557   4.880   5.794 -0.0071  0.0174 -0.3763
26158SOL    HW173679   8.585   4.974   5.772  1.8088 -0.3243  0.3736
26158SOL    HW273680   8.635   4.819   5.782 -1.4492 -1.5560 -1.7998
26160SOL     OW73681   1.239   0.205   4.077  0.0111  0.4192  0.2991
26160SOL    HW173682   1.185   0.136   4.125  1.2074 -1.0478 -0.4288
26160SOL    HW273683   1.331   0.208   4.116  1.0478 -0.9116 -1.9746
26161SOL     OW73684   4.359   5.525   0.766  0.2274 -0.3182  0.0615
26161SOL    HW173685   4.283   5.463   0.747 -0.2187  0.1340  0.3401
26161SOL    HW273686   4.343   5.612   0.719  0.0333  0.1575  0.9956
26162SOL     OW73687   0.376   7.348   5.002  0.4873 -0.0659  0.0483
26162SOL    HW173688   0.461   7.389   5.035  0.0027  1.2033 -0.2434
26162SOL    HW273689   0.395   7.258   4.964  1.3722 -0.6664  1.8712
26163SOL     OW73690   8.450   3.407   6.476  0.6490  0.6260 -0.4160
26163SOL    HW173691   8.419   3.501   6.491 -0.6914  0.0859  0.3306
26163SOL    HW273692   8.382   3.343   6.514  1.6662 -0.6357 -0.6792
26164SOL     OW73693   9.248   8.324   5.958  0.3977 -0.3479  0.5618
26164SOL    HW173694   9.164   8.377   5.973  0.1232 -1.1731  1.9827
26164SOL    HW273695   9.252   8.296   5.862 -0.4807  0.4861  0.2654
26165SOL     OW73696   0.696   4.692   5.447  0.0304  0.1348 -0.2534
26165SOL    HW173697   0.706   4.631   5.369  2.6025  0.2372 -0.0281
26165SOL    HW273698   0.619   4.754   5.430 -0.9326 -1.3929 -1.6374
26167SOL     OW73699   9.032   3.539   0.172  0.0667 -0.0901 -0.2991
26167SOL    HW173700   8.997   3.526   0.265  3.9065  0.7117  1.3309
26167SOL    HW273701   9.032   3.636   0.150 -0.0010 -0.2040 -0.8104
26168SOL     OW73702   5.500   0.693   1.773 -0.0083  0.5109 -0.3088
26168SOL    HW173703   5.426   0.664   1.834  0.1553 -1.1090 -0.8619
26168SOL    HW273704   5.525   0.618   1.713  2.4535  0.8678  0.2058
26171SOL     OW73705   0.743   6.528   1.226  0.4901 -0.1275 -0.2195
26171SOL    HW173706   0.763   6.619   1.191 -0.6107  0.1295 -0.2064
26171SOL    HW273707   0.751   6.528   1.326  2.0598 -0.4560 -0.3405
26172SOL     OW73708   2.263   7.556   3.043 -0.5073  0.4443  0.5446
26172SOL    HW173709   2.248   7.457   3.043 -0.2757  0.3961  1.6121
26172SOL    HW273710   2.251   7.591   3.136  2.7281  0.8981  0.8366
26174SOL     OW73711   8.654   7.007   3.805 -0.2900 -0.6199  0.5931
26174SOL    HW173712   8.635   6.909   3.814 -1.1424 -0.4708  0.4687
26174SOL    HW273713   8.678   7.028   3.711 -1.9405 -0.4057  0.2128
26176SOL     OW73714   0.795   2.801   5.947  0.4903  0.2278  0.7384
26176SOL    HW173715   0.761   2.893   5.966  0.3355  0.2793  0.2151
26176SOL    HW273716   0.734   2.733   5.989 -1.1210  0.2661 -1.4383
26177SOL     OW73717   7.328   6.664   3.871  0.0632  0.4356 -0.5742
26177SOL    HW173718   7.394   6.593   3.846  0.1701  1.0812 -2.1752
26177SOL    HW273719   7.364   6.753   3.844 -0.3095  1.0510  0.9520
26178SOL     OW73720   4.010   4.721   7.413  0.3047  0.1141  0.5410
26178SOL    HW173721   4.038   4.810   7.449  0.7130 -0.3682  1.4336
26178SOL    HW273722   3.985   4.660   7.489 -0.6857 -0.3000 -0.0957
26179SOL     OW73723   1.067   5.146   4.636  0.2221  0.4730  0.2298
26179SOL    HW173724   1.071   5.246   4.634  0.0911  0.4741 -0.0499
26179SOL    HW273725   1.160   5.109   4.640  0.2941  0.5974 -0.2435
26181SOL     OW73726   5.893   1.245   7.101  0.1077  0.1359  0.1306
26181SOL    HW173727   5.842   1.195   7.171  1.3666  1.3527  1.9638
26181SOL    HW273728   5.972   1.190   7.071  0.6102  0.3648  1.0176
26182SOL     OW73729   2.168   6.191   3.104 -0.1483  0.1507  0.5436
26182SOL    HW173730   2.155   6.277   3.055  1.1893 -0.4935 -0.9860
26182SOL    HW273731   2.083   6.165   3.148 -0.8721  1.6984  0.1056
26183SOL     OW73732   6.954   6.106   3.044  0.5152  0.0276 -0.0899
26183SOL    HW173733   7.001   6.195   3.047  2.2846 -0.8676 -0.4528
26183SOL    HW273734   6.940   6.079   2.949 -1.3414  0.5848  0.0163
26185SOL     OW73735   1.866   4.256   5.410  0.4885 -0.8247  0.5118
26185SOL    HW173736   1.825   4.178   5.362  0.0118 -0.4365  0.2922
26185SOL    HW273737   1.944   4.290   5.358  0.0994 -0.5360  0.1131
26186SOL     OW73738   3.298   0.843   6.527 -0.0699  0.5577 -0.3460
26186SOL    HW173739   3.201   0.840   6.554  0.3935  1.7541  1.5436
26186SOL    HW273740   3.352   0.790   6.592  0.5929  0.1156 -1.2511
26187SOL     OW73741   9.491   2.912   3.125 -0.2872 -0.0611  0.0472
26187SOL    HW173742   9.464   3.007   3.111 -0.0894 -0.0526 -0.2839
26187SOL    HW273743   9.454   2.879   3.212  0.4249  0.6074  0.6128
26188SOL     OW73744   5.383   8.937   7.911  0.0745 -0.2749 -0.1981
26188SOL    HW173745   5.294   8.927   7.955 -0.1583 -0.1876 -0.6415
26188SOL    HW273746   5.402   8.856   7.855  0.1647 -0.1882 -0.2935
26189SOL     OW73747   8.237   1.863   2.147  0.2019  0.2143 -0.3277
26189SOL    HW173748   8.267   1.835   2.238 -0.4052  2.3324  0.5569
26189SOL    HW273749   8.137   1.853   2.141  0.3697 -0.9586 -1.1343
26190SOL     OW73750   1.466   5.839   6.977  0.2127  0.0455  0.0378
26190SOL    HW173751   1.396   5.895   7.020  0.1485  1.0362 -1.3254
26190SOL    HW273752   1.423   5.766   6.923  0.2642 -0.2375  0.3751
26192SOL     OW73753   9.155   8.892   6.941  0.0722  0.0533 -0.0993
26192SOL    HW173754   9.063   8.922   6.916  0.6056  1.0197 -0.9561
26192SOL    HW273755   9.156   8.793   6.952 -1.2964  0.1455  0.9170
26193SOL     OW73756   8.811   2.614   1.572 -0.3301  0.2041 -0.1746
26193SOL    HW173757   8.718   2.634   1.544  0.0016  1.2453 -0.5591
26193SOL    HW273758   8.847   2.537   1.518 -0.1292  1.3778 -1.7433
26194SOL     OW73759   9.157   2.434   0.390 -0.6861 -0.4016  0.2205
26194SOL    HW173760   9.210   2.508   0.348  0.6355  0.6059  3.4882
26194SOL    HW273761   9.061   2.444   0.365 -0.8409  3.5191  1.9755
26196SOL     OW73762   8.468   5.801   0.717  0.5353  0.2512  0.5574
26196SOL    HW173763   8.530   5.730   0.751 -0.0264  0.0235  1.1107
26196SOL    HW273764   8.515   5.855   0.646  0.2174 -2.0832 -1.4973
26197SOL     OW73765   2.622   9.941   1.523 -0.2485  0.2996 -0.1676
26197SOL    HW173766   2.600  10.015   1.458 -2.4568 -0.9864 -0.9430
26197SOL    HW273767   2.602   9.972   1.616 -2.0685  0.4074 -0.5647
26198SOL     OW73768   7.677   6.321   2.754 -0.3284  0.0310  0.4997
26198SOL    HW173769   7.623   6.286   2.831  0.5466  0.7151  1.4389
26198SOL    HW273770   7.743   6.252   2.725  0.8432  0.5823  1.8179
26199SOL     OW73771   9.934   2.385   6.361  0.1013 -0.8180  0.3096
26199SOL    HW173772   9.934   2.408   6.458 -0.2289 -0.1436  0.1510
26199SOL    HW273773   9.844   2.403   6.322  0.3340 -0.7376 -0.2020
26201SOL     OW73774   2.301   3.360   3.062 -0.7264  0.1625 -0.5751
26201SOL    HW173775   2.311   3.296   2.986 -0.3891  0.8966 -1.1581
26201SOL    HW273776   2.390   3.396   3.087 -0.9315  0.5357 -0.3742
26202SOL     OW73777   9.678   3.851   5.985  0.4635  0.0435  0.4405
26202SOL    HW173778   9.684   3.851   6.085 -1.4610 -0.2143  0.5679
26202SOL    HW273779   9.671   3.757   5.952  0.7635  0.1455  0.0847
26203SOL     OW73780   2.694   0.826   7.563  0.0139 -0.2472  0.0884
26203SOL    HW173781   2.668   0.738   7.523  0.1502  0.0250 -0.6169
26203SOL    HW273782   2.695   0.819   7.663 -1.5997 -0.5826  0.0908
26205SOL     OW73783   0.042   5.921   2.958 -0.0605  0.4637  0.3383
26205SOL    HW173784  -0.027   5.930   3.030  0.0656 -2.2447  0.8676
26205SOL    HW273785   0.106   5.998   2.963 -1.1444  1.3039  1.9176
26206SOL     OW73786   6.805   7.773   3.256 -0.3830 -0.4082  0.1122
26206SOL    HW173787   6.821   7.792   3.353 -3.1344 -1.4707  0.8263
26206SOL    HW273788   6.877   7.713   3.222  2.6889  2.8928  0.4699
26207SOL     OW73789   0.163   1.995   4.846 -0.9122  0.3046 -0.6489
26207SOL    HW173790   0.121   1.907   4.867  0.4441 -0.2749 -0.3694
26207SOL    HW273791   0.199   2.036   4.929  0.2244  0.2069 -1.0909
26208SOL     OW73792   6.685   1.960   0.251  0.5798  0.1070 -0.1716
26208SOL    HW173793   6.603   2.011   0.277  2.2164  0.8278  3.9041
26208SOL    HW273794   6.687   1.873   0.301  1.3582 -0.8348 -1.7782
26210SOL     OW73795   1.322   5.958   4.471 -0.4004  0.2243 -0.7213
26210SOL    HW173796   1.293   5.914   4.386 -1.1575  0.0944 -0.4021
26210SOL    HW273797   1.243   5.971   4.530  0.3046 -0.7786  0.4720
26211SOL     OW73798   7.667   7.761   4.084  0.1225 -0.5492  0.3565
26211SOL    HW173799   7.738   7.691   4.085  0.2996 -0.4183 -1.7005
26211SOL    HW273800   7.667   7.808   3.996 -0.0509  1.9922  1.6855
26212SOL     OW73801   2.049   2.081   4.791  0.2910 -0.1669 -0.4704
26212SOL    HW173802   2.020   2.091   4.696 -0.7989  0.2023 -0.1018
26212SOL    HW273803   1.996   2.143   4.849 -1.2391 -2.6041  0.8218
26213SOL     OW73804   0.577   3.845   6.658 -0.4787  0.0283 -0.3910
26213SOL    HW173805   0.677   3.844   6.661 -0.4752  0.0777 -0.5156
26213SOL    HW273806   0.543   3.927   6.703 -0.4853 -0.4318  0.4460
26217SOL     OW73807   5.707   6.544   1.004 -0.4480 -0.1624 -0.4045
26217SOL    HW173808   5.615   6.583   1.014 -0.0408  1.1121 -1.5041
26217SOL    HW273809   5.717   6.506   0.911  1.0501  2.1943 -1.2488
26218SOL     OW73810   0.108   4.519   6.892  0.2142 -0.4073 -0.0690
26218SOL    HW173811   0.030   4.474   6.935  0.1188  2.5500  3.1153
26218SOL    HW273812   0.077   4.565   6.808 -1.3705  0.2188  0.8288
26219SOL     OW73813   9.971   9.760   7.233 -0.6188 -0.8177  0.4926
26219SOL    HW173814   9.946   9.822   7.158 -1.1094 -0.2822  1.0926
26219SOL    HW273815  10.050   9.706   7.206  0.0858  0.3793  0.1135
26221SOL     OW73816   3.069   4.028   5.080  0.0494 -0.0982 -0.3787
26221SOL    HW173817   3.018   4.103   5.040  1.9337  0.5392 -1.6581
26221SOL    HW273818   3.006   3.966   5.127 -1.7472  1.1696 -1.0611
26222SOL     OW73819   1.791   5.755   3.677  0.0742  0.4242 -0.1943
26222SOL    HW173820   1.878   5.752   3.727 -0.3263 -0.2197  0.4693
26222SOL    HW273821   1.802   5.709   3.589  0.0864 -0.7015  0.3916
26224SOL     OW73822   4.581   4.868   0.777 -0.2335 -0.2535  0.1737
26224SOL    HW173823   4.670   4.828   0.752  0.0686  0.2510  0.4286
26224SOL    HW273824   4.508   4.805   0.752  0.2693 -1.2078  1.0749
26225SOL     OW73825   0.065   9.911   7.672  0.0576  0.5243  0.4592
26225SOL    HW173826   0.017   9.921   7.759  0.1447  3.0275  0.2546
26225SOL    HW273827   0.156   9.874   7.688 -0.6967 -1.0778  1.1833
26226SOL     OW73828   9.948   0.748   2.893 -0.1521  0.4992  0.3488
26226SOL    HW173829  10.039   0.710   2.881  0.3992  1.0078  2.7312
26226SOL    HW273830   9.952   0.827   2.955 -2.0243  1.2665 -0.4750
26227SOL     OW73831   1.771   4.862   5.548 -0.4606 -0.3250  0.2091
26227SOL    HW173832   1.846   4.797   5.538 -1.0668 -1.1245  0.7437
26227SOL    HW273833   1.807   4.955   5.552  0.5799 -0.7796  1.6060
26229SOL     OW73834   7.403   7.376   4.485 -0.1305 -0.4527  0.1352
26229SOL    HW173835   7.410   7.413   4.392 -0.0300 -1.6207 -0.3272
26229SOL    HW273836   7.451   7.437   4.548  0.2160  0.1011 -0.6524
26230SOL     OW73837   1.017   2.122   3.692 -0.0668 -0.1426  0.7534
26230SOL    HW173838   0.955   2.067   3.748 -0.0935 -0.2489  0.6193
26230SOL    HW273839   1.090   2.159   3.750 -0.2152 -0.0771  0.8958
26231SOL     OW73840   3.689   0.258   3.756  0.2387  0.3715  0.4214
26231SOL    HW173841   3.636   0.199   3.816 -0.2653  0.8579  0.4620
26231SOL    HW273842   3.778   0.216   3.737 -0.7786 -1.2109 -0.9501
26232SOL     OW73843   8.309   5.725   1.025  0.2962 -0.3875 -0.2110
26232SOL    HW173844   8.235   5.790   1.036 -0.2538 -1.2460  1.2270
26232SOL    HW273845   8.288   5.663   0.948 -1.1680 -1.5354  1.0841
26233SOL     OW73846   6.404   8.216   2.847  0.2643  0.0803 -1.1003
26233SOL    HW173847   6.483   8.155   2.841  1.0679  0.7269  1.8570
26233SOL    HW273848   6.432   8.309   2.823  0.4699  0.3466  0.1474
26234SOL     OW73849   9.207   0.584   2.798  0.2420 -0.1830  0.1388
26234SOL    HW173850   9.247   0.579   2.706 -1.4737 -0.6980 -0.5926
26234SOL    HW273851   9.232   0.502   2.849 -0.7928 -1.0361 -0.7032
26235SOL     OW73852   1.928   7.874   2.646  0.6179  0.2297 -0.0946
26235SOL    HW173853   1.885   7.848   2.733  2.5153 -0.3716  0.6952
26235SOL    HW273854   1.899   7.966   2.621 -0.9966 -0.0955  0.4746
26236SOL     OW73855   2.212   3.576   2.795  0.6882 -0.3914  0.1607
26236SOL    HW173856   2.132   3.637   2.790  2.2929  1.7294 -0.2082
26236SOL    HW273857   2.197   3.497   2.736 -0.1399  1.2080 -1.8332
26237SOL     OW73858   5.021   0.225   3.483 -0.2176 -0.8650 -0.2745
26237SOL    HW173859   5.087   0.151   3.475  2.6084  1.3257  1.7327
26237SOL    HW273860   4.980   0.224   3.574  1.2372  1.1037  0.4406
26238SOL     OW73861   2.614   9.775   7.686  0.3370  0.3210  0.1986
26238SOL    HW173862   2.556   9.856   7.673 -1.7620 -1.1639  0.0833
26238SOL    HW273863   2.703   9.791   7.644  0.5412  3.2042  1.6285
26239SOL     OW73864   4.354   8.334   5.964  0.1745  0.1032  1.0605
26239SOL    HW173865   4.448   8.316   5.994 -0.3618  0.6657  3.1328
26239SOL    HW273866   4.292   8.327   6.041 -1.4488  0.2210 -0.2044
26240SOL     OW73867   0.703   0.391   6.426 -0.2081  0.5387 -0.1227
26240SOL    HW173868   0.676   0.445   6.507  0.3697  1.6092 -0.6356
26240SOL    HW273869   0.777   0.438   6.378 -0.3982 -0.2084 -1.1538
26241SOL     OW73870   9.559   9.065   0.155  0.4708  0.3284  0.2565
26241SOL    HW173871   9.517   9.040   0.068 -1.3762  2.9816  0.3369
26241SOL    HW273872   9.575   9.164   0.157 -0.2934  0.4428  3.2385
26246SOL     OW73873   3.054   7.544   7.105  0.4130 -0.1832 -0.2540
26246SOL    HW173874   2.980   7.483   7.134 -0.6769  2.1977  2.2249
26246SOL    HW273875   3.046   7.561   7.007 -0.3718 -2.5258 -0.6125
26247SOL     OW73876   7.987   8.997   7.722 -0.3148  0.7106 -0.1857
26247SOL    HW173877   7.920   9.043   7.781  0.7121  0.9778  0.8073
26247SOL    HW273878   7.942   8.963   7.640 -1.7372  0.5582  0.6423
26248SOL     OW73879   4.832   7.067   2.977  0.3431 -0.1028  0.5133
26248SOL    HW173880   4.827   7.098   3.072  1.0433  0.4459  0.3719
26248SOL    HW273881   4.907   7.113   2.930 -0.0270 -0.3322 -0.3251
26249SOL     OW73882   8.114   2.445   3.904  0.8006 -0.0905 -0.1455
26249SOL    HW173883   8.084   2.376   3.838 -2.2745  2.6772 -1.7660
26249SOL    HW273884   8.114   2.405   3.995  1.0575 -2.7876 -1.2589
26250SOL     OW73885   2.992   4.456   6.992 -0.1272 -0.7268 -0.2707
26250SOL    HW173886   3.016   4.479   7.086  0.7070 -0.1695 -0.6119
26250SOL    HW273887   3.066   4.483   6.931 -2.1780  2.3515 -1.5415
26254SOL     OW73888   7.747   8.582   3.832 -0.1325 -0.0810  0.5836
26254SOL    HW173889   7.711   8.490   3.815  0.2672  0.0323 -0.9117
26254SOL    HW273890   7.688   8.628   3.899 -0.8959 -1.0655  0.6105
26258SOL     OW73891   6.416   8.943   4.965  0.3033  0.4530  0.6655
26258SOL    HW173892   6.389   8.943   5.061  0.1150  0.7905  0.6140
26258SOL    HW273893   6.434   9.037   4.936 -0.5663  0.4509  0.1102
26259SOL     OW73894   0.965   1.618   3.494  0.0593  0.2118  0.2454
26259SOL    HW173895   0.915   1.702   3.518  0.5075  0.4613  0.3200
26259SOL    HW273896   0.933   1.542   3.550 -0.1144  0.4114  0.4160
26261SOL     OW73897   0.718   5.783   5.678 -0.1494 -0.3481  0.3281
26261SOL    HW173898   0.680   5.844   5.608 -0.9609 -0.3756  0.7445
26261SOL    HW273899   0.818   5.788   5.675 -0.1986  1.3228  0.6276
26262SOL     OW73900   8.236   6.992   4.160  0.1330  0.1088  0.0295
26262SOL    HW173901   8.315   7.034   4.114  0.6935 -0.1395  0.7603
26262SOL    HW273902   8.235   6.894   4.140 -0.8792  0.3593 -1.2460
26263SOL     OW73903   7.960   5.403   0.235  0.7683 -0.0582 -0.1277
26263SOL    HW173904   7.926   5.483   0.186  0.0769 -0.2437  0.0398
26263SOL    HW273905   7.883   5.350   0.270  1.2313 -0.5362  0.1829
26264SOL     OW73906   1.631   1.723   5.202 -0.7296 -0.3056 -0.3719
26264SOL    HW173907   1.679   1.750   5.286 -1.2956 -0.6283  0.0572
26264SOL    HW273908   1.556   1.661   5.225 -1.7440  0.6958 -0.9765
26265SOL     OW73909   1.222   9.013   1.025 -0.2435  0.6935 -0.1814
26265SOL    HW173910   1.203   8.940   0.960  1.9087  0.1494 -0.2072
26265SOL    HW273911   1.198   9.101   0.984  1.7805  0.4310 -2.0263
26266SOL     OW73912   8.471   0.004   0.530  0.3146  0.1901 -0.2045
26266SOL    HW173913   8.450   0.063   0.453 -0.5371 -0.6367 -0.6100
26266SOL    HW273914   8.488  -0.089   0.498  0.5670 -0.0259  0.5375
26267SOL     OW73915   8.894   7.904   5.383 -0.3176  0.3852  0.0387
26267SOL    HW173916   8.814   7.915   5.324  1.3525 -0.6898 -2.4920
26267SOL    HW273917   8.978   7.912   5.329  1.3231  1.0651  2.5562
26268SOL     OW73918   0.985   8.591   1.872 -0.4048  0.2838 -0.0121
26268SOL    HW173919   1.047   8.613   1.796  0.7821 -1.7784  0.2918
26268SOL    HW273920   1.037   8.588   1.958 -1.1524 -0.2945  0.4314
26269SOL     OW73921   3.133   9.593   2.748  0.2261 -1.0233  0.8124
26269SOL    HW173922   3.151   9.634   2.658 -0.1556 -0.2544  1.0786
26269SOL    HW273923   3.042   9.621   2.779  0.1212 -1.7605  1.1842
26270SOL     OW73924   9.538   5.772   5.101  0.1764  0.0872  0.3013
26270SOL    HW173925   9.607   5.712   5.060  0.6072  0.9776 -0.2739
26270SOL    HW273926   9.564   5.792   5.196  1.6479  1.8195 -0.4229
26271SOL     OW73927   3.254   4.135   7.415 -0.3526 -0.6839 -0.7578
26271SOL    HW173928   3.312   4.056   7.398 -1.0451 -1.0561 -1.4057
26271SOL    HW273929   3.306   4.219   7.395  0.6477 -0.9331  0.7248
26272SOL     OW73930   0.127   6.267   3.859  0.4116  0.1203 -0.4200
26272SOL    HW173931   0.171   6.335   3.918 -0.7868  0.8034 -0.2892
26272SOL    HW273932   0.076   6.314   3.787  0.5495 -0.6787 -1.0470
26274SOL     OW73933   8.484   3.985   2.947 -0.2551  0.0888  0.1218
26274SOL    HW173934   8.444   3.952   2.862 -1.2662  1.0077  0.2250
26274SOL    HW273935   8.417   4.041   2.996  0.7000  0.5204  0.9645
26275SOL     OW73936   5.512   4.730   0.812  0.2196 -0.1648  0.0737
26275SOL    HW173937   5.528   4.798   0.883  0.4845  0.7881 -0.8858
26275SOL    HW273938   5.563   4.755   0.730  0.7036 -1.7860 -0.1322
26276SOL     OW73939   9.600   5.961   7.868  0.1438  0.0378 -0.9868
26276SOL    HW173940   9.632   6.056   7.869 -0.2400  0.1594  0.3461
26276SOL    HW273941   9.550   5.942   7.953  1.1130 -1.6522 -0.7807
26277SOL     OW73942   0.458   6.598   3.666 -0.0258 -0.3354  0.3510
26277SOL    HW173943   0.536   6.632   3.613  0.7481 -0.8799  1.1134
26277SOL    HW273944   0.492   6.536   3.737 -1.1822 -0.7237  0.5648
26279SOL     OW73945   4.922   0.218   0.722  0.1033  0.2707 -0.4107
26279SOL    HW173946   4.991   0.233   0.793  1.2051  0.4787 -1.5063
26279SOL    HW273947   4.903   0.304   0.675 -0.1483  0.0085 -0.7968
26281SOL     OW73948   8.119   6.795   2.688  0.1123 -0.1890 -0.1097
26281SOL    HW173949   8.215   6.767   2.689  0.9519  2.3973 -1.2848
26281SOL    HW273950   8.081   6.780   2.597 -0.0417  0.4694 -0.1566
26282SOL     OW73951   9.139   2.293   0.154  0.0900 -0.7286 -0.1537
26282SOL    HW173952   9.042   2.270   0.146 -0.3023  0.2742  1.4323
26282SOL    HW273953   9.157   2.329   0.246  1.4191  1.6463 -1.2872
26284SOL     OW73954   9.029   3.036   2.918 -0.0694  0.6936 -0.1091
26284SOL    HW173955   8.931   3.044   2.940 -0.7649  1.3942 -3.2195
26284SOL    HW273956   9.083   3.074   2.993 -2.2256  1.3744  1.1473
26285SOL     OW73957   7.411   6.414   3.760  0.4466 -0.6018 -0.2281
26285SOL    HW173958   7.427   6.406   3.661 -0.5582 -1.8615 -0.2989
26285SOL    HW273959   7.494   6.384   3.808  0.4442 -1.3510 -0.6726
26286SOL     OW73960   8.597   5.118   5.233  0.0137 -0.0546  0.5525
26286SOL    HW173961   8.562   5.205   5.268 -0.0838 -0.2173  0.8573
26286SOL    HW273962   8.525   5.048   5.239  0.0925 -0.1590  0.3099
26288SOL     OW73963   0.197   9.153   0.101 -0.3742  0.1133 -0.4491
26288SOL    HW173964   0.201   9.240   0.150 -0.4625 -0.4235  0.5279
26288SOL    HW273965   0.249   9.084   0.151 -2.1079 -0.9438 -0.0535
26292SOL     OW73966   8.817   2.735   6.829 -0.4747  0.0101 -0.3996
26292SOL    HW173967   8.748   2.671   6.795  1.0820 -0.9158 -1.8678
26292SOL    HW273968   8.805   2.824   6.784 -1.4948  0.2411  0.3014
26294SOL     OW73969   7.226   3.344   7.942 -0.2142 -0.3259  0.3285
26294SOL    HW173970   7.245   3.318   7.847 -1.2939 -1.6470  0.4521
26294SOL    HW273971   7.147   3.406   7.944  0.7224  0.8992  0.2597
26298SOL     OW73972   8.964   8.595   5.015  0.1676 -0.1825  0.0874
26298SOL    HW173973   9.017   8.667   4.970  1.4648 -1.8256 -1.0864
26298SOL    HW273974   8.889   8.566   4.956 -0.4417  0.2782  0.6204
26299SOL     OW73975   8.917   0.013   6.503  0.0599  0.4384 -0.0725
26299SOL    HW173976   8.996   0.005   6.563  0.7213  0.2883 -0.9419
26299SOL    HW273977   8.895  -0.077   6.464  0.3178  0.7216 -0.8936
26300SOL     OW73978   8.172   4.029   7.423  0.2650 -0.4314  0.3986
26300SOL    HW173979   8.138   3.938   7.448 -0.4050 -0.3848 -0.3524
26300SOL    HW273980   8.220   4.023   7.336 -0.9222  0.1876 -0.3039
26301SOL     OW73981   0.564   3.095   4.467  0.3370  0.2555 -0.0776
26301SOL    HW173982   0.519   3.009   4.490  0.7860  0.2077  0.6318
26301SOL    HW273983   0.587   3.096   4.370  0.4964 -0.5065 -0.0525
26302SOL     OW73984   2.181   2.335   2.564  0.3093  0.1270 -0.1643
26302SOL    HW173985   2.221   2.372   2.648  0.2208  2.3779 -1.0779
26302SOL    HW273986   2.089   2.372   2.551 -0.6900 -2.2099  0.0520
26303SOL     OW73987   9.455   2.281   2.022 -0.5343  0.0526 -0.0018
26303SOL    HW173988   9.453   2.190   2.063  0.3508 -0.4352 -1.0269
26303SOL    HW273989   9.480   2.274   1.926 -1.3938  1.2965 -0.3369
26304SOL     OW73990   7.961   3.536   1.696 -0.0036 -0.2376  0.0606
26304SOL    HW173991   8.017   3.505   1.618  1.1279  0.1246  0.7198
26304SOL    HW273992   7.998   3.621   1.731 -0.6811 -0.2602  0.8294
26306SOL     OW73993   9.332   3.250   4.653  0.2457 -0.0782 -0.3456
26306SOL    HW173994   9.339   3.191   4.572 -1.5302  1.2657 -1.5329
26306SOL    HW273995   9.420   3.294   4.670  0.8370 -0.9578 -1.0901
26307SOL     OW73996   7.479   6.698   6.407 -0.3038 -0.0750  0.0195
26307SOL    HW173997   7.509   6.605   6.389  0.5192  0.2241 -0.1526
26307SOL    HW273998   7.540   6.742   6.472 -0.8588  0.2508  0.3318
26308SOL     OW73999   8.036   7.377   3.417  0.0383 -0.0453  0.3147
26308SOL    HW174000   8.015   7.385   3.319  1.1818  2.4375  0.2329
26308SOL    HW274001   7.957   7.409   3.470  0.0015  0.1099  0.1682
26310SOL     OW74002   8.911   1.994   3.838  0.1606  0.0181  0.2334
26310SOL    HW174003   8.814   1.978   3.821  0.1239 -0.1888  0.6330
26310SOL    HW274004   8.924   2.019   3.934  0.7222 -1.7100  0.6175
26311SOL     OW74005   8.169   4.872   0.854  0.4909 -1.0353 -0.3660
26311SOL    HW174006   8.266   4.892   0.867  0.3563 -1.7182  1.8713
26311SOL    HW274007   8.154   4.832   0.764  1.9853  0.9313 -1.5209
26312SOL     OW74008   0.825   1.876   3.563 -0.2121 -0.3662  0.3898
26312SOL    HW174009   0.891   1.931   3.512  0.4470 -0.4459  1.1452
26312SOL    HW274010   0.736   1.922   3.563  0.1708  0.3924  0.4654
26313SOL     OW74011   2.272   6.734   5.785 -0.6355 -0.3563 -0.3684
26313SOL    HW174012   2.352   6.702   5.835  0.5427 -0.7882 -2.4691
26313SOL    HW274013   2.193   6.739   5.847  1.3077  1.4325  2.0489
26314SOL     OW74014   9.614   2.644   1.286 -0.4358  0.3061  0.1046
26314SOL    HW174015   9.521   2.658   1.320 -0.0716  1.0485  0.7911
26314SOL    HW274016   9.623   2.550   1.251 -1.3328  0.1207  0.3715
26315SOL     OW74017   0.527   0.514   3.079 -0.0183 -0.4976 -0.2981
26315SOL    HW174018   0.624   0.531   3.066  0.4647 -1.1807  2.1815
26315SOL    HW274019   0.495   0.448   3.012  1.3368 -0.6415 -0.8075
26316SOL     OW74020   0.428   6.327   1.575 -0.0279 -0.4180 -0.2971
26316SOL    HW174021   0.514   6.290   1.538  1.7108  0.1629  2.9740
26316SOL    HW274022   0.420   6.423   1.551  1.9740  0.4267  2.1786
26317SOL     OW74023   8.713   8.778   5.521 -0.5603 -0.6216  0.7116
26317SOL    HW174024   8.727   8.709   5.450 -1.1351 -1.3222  1.2656
26317SOL    HW274025   8.791   8.777   5.583 -0.1622 -0.1682  0.2228
26319SOL     OW74026   8.453   8.443   5.392  0.2876 -0.3898  0.6487
26319SOL    HW174027   8.448   8.427   5.490 -0.1595  0.4066  0.7568
26319SOL    HW274028   8.527   8.507   5.372  0.9858 -1.2697  0.3725
26320SOL     OW74029   3.147   1.406   7.077 -0.0714  0.2428  0.4714
26320SOL    HW174030   3.156   1.382   7.174 -0.0251  0.9705  0.6496
26320SOL    HW274031   3.142   1.323   7.022 -1.9350 -0.2079  1.2707
26321SOL     OW74032   5.642   1.091   7.136 -0.3653  0.4873  0.4347
26321SOL    HW174033   5.680   1.095   7.043 -1.9876 -1.1241 -0.3449
26321SOL    HW274034   5.603   1.000   7.151 -0.3413  0.8272  2.6208
26322SOL     OW74035   9.262   9.076   1.649 -0.2566 -0.1901  0.4649
26322SOL    HW174036   9.295   9.134   1.574  0.3742 -1.1250  0.0006
26322SOL    HW274037   9.336   9.061   1.715 -0.3803 -0.5300  0.5296
26323SOL     OW74038   8.454   8.442   6.578  0.6602  0.6618  0.1217
26323SOL    HW174039   8.393   8.483   6.510 -0.2103 -0.4338  0.2238
26323SOL    HW274040   8.495   8.359   6.540 -1.0680 -0.8513  1.4659
26324SOL     OW74041   3.096   1.359   1.443 -0.0098  0.4239  0.4400
26324SOL    HW174042   3.068   1.449   1.477  0.7193  1.0095 -0.4996
26324SOL    HW274043   3.014   1.302   1.432 -0.5371  1.1490  0.5091
26325SOL     OW74044   1.467   1.859   7.842 -0.9780 -0.3789 -0.0008
26325SOL    HW174045   1.406   1.920   7.892 -0.2858  0.6991 -0.4485
26325SOL    HW274046   1.442   1.764   7.861 -1.8263  0.0321  1.0024
26326SOL     OW74047   9.153   1.570   0.888 -0.0589 -0.6272 -0.0450
26326SOL    HW174048   9.188   1.586   0.980 -0.1796  1.2325 -0.3094
26326SOL    HW274049   9.211   1.618   0.822 -1.9309  0.8512 -0.6520
26327SOL     OW74050   1.794   5.494   6.985  0.1716 -0.0302 -0.0812
26327SOL    HW174051   1.806   5.411   6.930  0.7680 -0.1999  0.3110
26327SOL    HW274052   1.706   5.490   7.032  0.2449 -0.4879  0.0181
26328SOL     OW74053   9.171   3.204   7.362 -0.3954  0.1225  0.2289
26328SOL    HW174054   9.099   3.216   7.293  1.0064  0.2797 -1.2572
26328SOL    HW274055   9.200   3.294   7.395  0.3139  0.1660 -0.4786
26329SOL     OW74056   2.692   7.309   1.358 -0.0938  0.3795  0.3664
26329SOL    HW174057   2.636   7.375   1.407  0.4608  0.7785  0.4720
26329SOL    HW274058   2.738   7.249   1.424 -1.9700 -1.2576  0.2124
26330SOL     OW74059   3.138   7.148   5.122  0.5440  0.0466  0.2720
26330SOL    HW174060   3.101   7.081   5.058 -0.0286 -1.0111  1.6784
26330SOL    HW274061   3.064   7.207   5.154  0.5138 -0.4669  1.1747
26333SOL     OW74062   8.253   7.989   4.191  0.1269  0.0886 -0.2099
26333SOL    HW174063   8.338   7.968   4.240  1.0214 -1.0088 -2.1740
26333SOL    HW274064   8.208   8.068   4.233  0.3666 -1.3977  2.9542
26334SOL     OW74065   7.241   3.285   1.256  0.7255  0.2501 -0.0877
26334SOL    HW174066   7.233   3.325   1.347  2.0512  1.4400 -0.4712
26334SOL    HW274067   7.150   3.274   1.216  0.2748  1.9614  0.4275
26335SOL     OW74068   2.137   1.325   6.768  0.4354 -0.1488  0.1447
26335SOL    HW174069   2.097   1.240   6.802 -1.4844  0.0616 -1.4586
26335SOL    HW274070   2.116   1.334   6.670  3.4776  0.5548 -0.4787
26337SOL     OW74071   9.200   1.959   7.680 -0.0748  0.3778  0.2205
26337SOL    HW174072   9.273   1.951   7.612  2.1593  2.3412  2.3023
26337SOL    HW274073   9.190   2.054   7.707  1.4299 -0.7171  5.0855
26338SOL     OW74074   9.383   0.176   0.111  0.2427  0.1670  0.2909
26338SOL    HW174075   9.449   0.250   0.126  1.4752 -0.8056 -0.1972
26338SOL    HW274076   9.402   0.101   0.174  1.5458 -1.3656 -1.8295
26340SOL     OW74077   3.701   1.710   3.220  0.3982  0.1963  0.0391
26340SOL    HW174078   3.677   1.631   3.164 -0.7830  0.5092  0.0960
26340SOL    HW274079   3.692   1.687   3.317  0.1165  0.3737  0.0569
26341SOL     OW74080   3.896   8.095   3.705 -0.0655  0.1478 -0.3619
26341SOL    HW174081   3.961   8.031   3.746 -1.1447 -0.6111  0.1822
26341SOL    HW274082   3.908   8.095   3.606  1.2580  0.5518 -0.2003
26343SOL     OW74083   8.565   2.418   1.158 -0.7799  0.0476 -0.0365
26343SOL    HW174084   8.482   2.364   1.168 -1.0818  0.4504 -0.3795
26343SOL    HW274085   8.618   2.415   1.243 -1.9888  1.2248  0.7634
26344SOL     OW74086   6.392   2.206   5.435 -0.1820 -0.2921  0.3312
26344SOL    HW174087   6.344   2.274   5.381  0.1076  0.0420  0.4950
26344SOL    HW274088   6.489   2.207   5.412 -0.0638 -0.1710  0.8300
26345SOL     OW74089   0.352   3.813   2.455 -0.2361  0.2356  0.2206
26345SOL    HW174090   0.391   3.776   2.539  1.4779  0.2037 -0.5623
26345SOL    HW274091   0.385   3.759   2.377  1.2492  2.5661 -0.8179
26346SOL     OW74092   0.374   7.820   2.396  0.2068  0.0156  0.0227
26346SOL    HW174093   0.436   7.877   2.449  2.5516 -1.6642 -0.8589
26346SOL    HW274094   0.365   7.731   2.439  2.3079 -1.4542 -2.4116
26347SOL     OW74095   4.536   1.556   7.902 -0.2028  0.6268 -0.0292
26347SOL    HW174096   4.568   1.626   7.966 -1.1752 -1.4163  2.8018
26347SOL    HW274097   4.437   1.543   7.914 -0.2082 -0.4950 -1.2105
26348SOL     OW74098   9.271   1.342   2.498 -0.7387 -0.1996  0.6020
26348SOL    HW174099   9.314   1.432   2.506  0.2191 -0.4807 -1.2346
26348SOL    HW274100   9.228   1.333   2.409 -1.6954 -1.2036  1.1477
26349SOL     OW74101   4.014   0.180   5.700 -0.4013  0.0820 -0.2161
26349SOL    HW174102   3.990   0.175   5.604 -0.9617  0.0972 -0.0781
26349SOL    HW274103   4.055   0.269   5.720  2.6272 -1.0494 -1.0900
26350SOL     OW74104   2.985   6.981   6.676 -0.4009  0.0138  0.3051
26350SOL    HW174105   2.893   6.942   6.683 -0.4677  0.2371  0.6973
26350SOL    HW274106   3.036   6.935   6.604 -0.4355 -0.8744  0.8486
26353SOL     OW74107   3.756   3.564   5.334 -0.0012 -0.1145 -0.0889
26353SOL    HW174108   3.754   3.524   5.426 -2.4345  0.4618  0.1407
26353SOL    HW274109   3.764   3.664   5.342  0.3464 -0.1074 -0.5213
26354SOL     OW74110   6.464   0.410   7.038 -0.1229  0.8194  0.3609
26354SOL    HW174111   6.475   0.493   6.984 -0.9779  0.7230  0.0305
26354SOL    HW274112   6.547   0.355   7.031  0.2116  1.3520  0.0828
26357SOL     OW74113   9.737   1.459   4.896 -0.3363  0.1335  0.0750
26357SOL    HW174114   9.649   1.430   4.858 -0.3679 -1.3278  1.2219
26357SOL    HW274115   9.804   1.386   4.885  0.1466  0.4047  1.1888
26358SOL     OW74116   1.322   3.815   1.800 -0.0637  0.1903 -0.0842
26358SOL    HW174117   1.410   3.820   1.753 -0.3319  2.0507 -0.4436
26358SOL    HW274118   1.325   3.872   1.883 -0.7152 -0.2582  0.2530
26359SOL     OW74119   9.207   9.882   3.572  0.0210 -0.4375  0.1151
26359SOL    HW174120   9.241   9.788   3.573  1.3987  0.0373 -1.1842
26359SOL    HW274121   9.273   9.941   3.527 -2.3676  0.5663 -2.2024
26361SOL     OW74122   2.407   0.029   4.858 -0.1679  0.0290 -0.9420
26361SOL    HW174123   2.494   0.019   4.811 -0.5871 -0.8183 -1.5543
26361SOL    HW274124   2.397  -0.044   4.926 -0.2801  0.2819 -0.6862
26362SOL     OW74125   1.439   0.309   0.367 -0.4713 -0.3006 -0.3343
26362SOL    HW174126   1.454   0.231   0.428  1.2065 -0.1149 -0.5025
26362SOL    HW274127   1.490   0.297   0.283  0.0261  1.1052 -0.2558
26363SOL     OW74128   2.879   8.624   4.349  0.3427 -0.3239 -0.1600
26363SOL    HW174129   2.973   8.590   4.347  0.6560  0.6092 -2.2763
26363SOL    HW274130   2.880   8.724   4.341 -0.8632 -0.4025 -1.4536
26364SOL     OW74131   4.069   1.671   3.261 -0.1775 -0.9859  0.4354
26364SOL    HW174132   4.138   1.703   3.197  1.6148 -2.6431  1.4787
26364SOL    HW274133   4.019   1.594   3.220 -0.3053 -0.8310  0.3006
26365SOL     OW74134   9.914   5.666   1.091  0.1809 -0.3064  0.4148
26365SOL    HW174135   9.939   5.602   1.019 -0.0048 -1.4407  1.3403
26365SOL    HW274136   9.979   5.742   1.092 -0.3010  0.1656 -1.4756
26367SOL     OW74137   2.423   4.722   4.169  0.2653  0.1808  1.3696
26367SOL    HW174138   2.344   4.779   4.145  0.6611 -0.5233 -1.8625
26367SOL    HW274139   2.392   4.629   4.191  0.1691 -0.2197 -0.3461
26368SOL     OW74140   1.196   7.636   5.535  0.3578 -0.1189 -0.2615
26368SOL    HW174141   1.293   7.618   5.524  0.6960  0.7536  1.2238
26368SOL    HW274142   1.182   7.732   5.556 -0.6216 -0.7050  1.9086
26369SOL     OW74143   9.922   8.007   7.032 -0.0664  0.2126 -0.0196
26369SOL    HW174144  10.010   7.977   7.069  0.1173 -0.0341 -0.6409
26369SOL    HW274145   9.902   8.100   7.063  0.6939  0.4867 -0.3654
26370SOL     OW74146   5.743   8.173   6.696 -0.0802  0.0903  0.2534
26370SOL    HW174147   5.664   8.157   6.637 -0.4567 -1.0508  1.0560
26370SOL    HW274148   5.815   8.107   6.675 -0.1548 -0.2237  0.9414
26371SOL     OW74149   2.442   0.692   0.872 -0.0944 -0.1143  0.1084
26371SOL    HW174150   2.358   0.682   0.925 -1.2983 -0.3148 -1.7859
26371SOL    HW274151   2.520   0.694   0.933 -1.4304 -0.6283  1.8630
26373SOL     OW74152   3.068   7.497   4.405  0.2573 -0.5755  0.1898
26373SOL    HW174153   3.077   7.533   4.499 -0.7782 -1.0005  0.4541
26373SOL    HW274154   3.154   7.512   4.356  0.6027  0.2218  1.0105
26374SOL     OW74155   3.953   9.220   7.506 -0.0019  0.3219 -0.0085
26374SOL    HW174156   3.916   9.302   7.550  0.3497  0.2833  0.3597
26374SOL    HW274157   3.891   9.191   7.433 -0.9549 -0.0194  0.9263
26376SOL     OW74158   2.495   3.304   5.595 -0.2885 -0.0645 -0.6922
26376SOL    HW174159   2.415   3.345   5.552 -1.9285 -0.2414  2.0616
26376SOL    HW274160   2.550   3.375   5.638 -0.9085 -0.2783  0.4868
26377SOL     OW74161   2.551   0.985   2.920  0.2411 -0.6551  0.4902
26377SOL    HW174162   2.625   0.991   2.853 -1.2005  1.0331 -0.9989
26377SOL    HW274163   2.573   1.044   2.998 -0.2134  1.0899 -0.6642
26378SOL     OW74164   9.010   9.858   5.238  0.0067  0.0355  0.0762
26378SOL    HW174165   9.038   9.897   5.325  1.0410  1.5950 -0.9407
26378SOL    HW274166   8.971   9.930   5.180 -2.2791 -1.3016 -0.1115
26379SOL     OW74167   1.000   8.557   5.953  0.2538  0.8219 -0.0583
26379SOL    HW174168   1.042   8.630   6.007  0.7018  1.3677 -1.1316
26379SOL    HW274169   1.008   8.579   5.856 -2.1933  0.7463 -0.2915
26380SOL     OW74170   3.705   2.234   1.309  0.3254 -0.1975  0.1133
26380SOL    HW174171   3.741   2.189   1.227 -0.5851 -0.4274 -0.1679
26380SOL    HW274172   3.761   2.315   1.330  2.4295 -1.8580  1.0572
26381SOL     OW74173   0.050   7.617   2.364  0.0772 -0.3540  0.1941
26381SOL    HW174174   0.132   7.565   2.388  0.0646 -0.9363 -0.9895
26381SOL    HW274175   0.076   7.704   2.323  0.1024 -0.2997  0.3259
26382SOL     OW74176   4.243   7.892   5.580  0.7671 -0.4630 -0.0382
26382SOL    HW174177   4.152   7.905   5.620  0.8332 -0.0183 -0.0296
26382SOL    HW274178   4.234   7.859   5.486  0.5590  1.5264 -0.7396
26383SOL     OW74179   9.089   1.870   4.686 -0.4162  0.4723  0.0233
26383SOL    HW174180   9.011   1.912   4.732 -0.3551  1.8348 -1.0806
26383SOL    HW274181   9.072   1.867   4.588  1.2135  1.4504 -0.3066
26384SOL     OW74182   9.072   3.352   4.653 -0.3792 -0.6620  0.7412
26384SOL    HW174183   9.133   3.273   4.664 -1.3485 -1.5332  0.0198
26384SOL    HW274184   9.123   3.429   4.616  0.1248 -1.6597 -0.7231
26385SOL     OW74185   6.318   2.555   0.040 -0.3581  0.2506  0.4509
26385SOL    HW174186   6.253   2.554  -0.036  0.0694  1.6046  0.0399
26385SOL    HW274187   6.292   2.486   0.107 -1.0845 -0.5520 -0.6383
26386SOL     OW74188   1.996   2.369   1.904 -0.0363 -0.3586 -0.3422
26386SOL    HW174189   2.076   2.311   1.890  0.9768  1.0667 -0.6145
26386SOL    HW274190   1.935   2.360   1.825  1.3025  0.7826 -1.5353
26387SOL     OW74191   2.097   7.019   1.503 -0.3627 -0.2778 -0.5969
26387SOL    HW174192   2.157   7.003   1.581 -2.4805 -0.0037  1.1003
26387SOL    HW274193   2.067   7.114   1.502 -2.6176 -0.9560 -0.0870
26388SOL     OW74194   7.533   4.366   4.018  0.0722  0.0158  0.2291
26388SOL    HW174195   7.612   4.427   4.017 -0.3224  0.5268 -0.7165
26388SOL    HW274196   7.450   4.420   4.003 -0.1348 -0.9598 -2.3370
26389SOL     OW74197   0.304   7.159   2.162 -0.4055  0.1417 -0.8511
26389SOL    HW174198   0.374   7.088   2.169 -0.4588  0.0544 -1.1915
26389SOL    HW274199   0.260   7.154   2.072 -1.5552 -0.4634 -0.2680
26390SOL     OW74200   6.751   9.834   7.408  0.0545  0.3913 -0.3899
26390SOL    HW174201   6.702   9.776   7.343 -0.0648  1.6084 -1.4065
26390SOL    HW274202   6.813   9.894   7.359  1.5032 -0.1123  0.7882
26392SOL     OW74203   9.506   6.459   5.360 -0.2582  0.3469  0.1743
26392SOL    HW174204   9.469   6.376   5.402  0.5712  0.1857  0.5840
26392SOL    HW274205   9.587   6.435   5.306  0.4366  1.0200  0.9316
26393SOL     OW74206   2.963   4.244   5.525 -0.1137 -0.0729 -0.0822
26393SOL    HW174207   3.021   4.167   5.551 -1.6140 -1.0160  0.5375
26393SOL    HW274208   2.975   4.263   5.428  2.7850  1.1037  0.4453
26394SOL     OW74209   2.778   8.050   7.336  0.4568 -0.3410 -0.0058
26394SOL    HW174210   2.802   7.958   7.305  2.1508  0.0876 -0.0258
26394SOL    HW274211   2.861   8.105   7.343 -0.8770  2.3399 -3.7395
26395SOL     OW74212   6.216   2.438   2.751 -0.0642  0.4088  0.3516
26395SOL    HW174213   6.254   2.348   2.773 -0.7799  0.0564  0.1457
26395SOL    HW274214   6.214   2.494   2.834 -1.4635 -0.4428  0.9155
26396SOL     OW74215   6.931   2.647   1.785 -0.1997 -0.1435 -0.2013
26396SOL    HW174216   6.895   2.554   1.794 -0.0914 -0.3961 -2.1944
26396SOL    HW274217   6.854   2.711   1.781 -0.3331 -0.3281 -0.6601
26401SOL     OW74218   0.214   4.315   3.833 -0.1411  0.5395  0.2994
26401SOL    HW174219   0.117   4.293   3.822 -0.3228  1.2240  0.4573
26401SOL    HW274220   0.222   4.407   3.873  0.5963  1.1365 -1.1981
26402SOL     OW74221   1.338   8.480   6.784 -0.3805 -0.8404 -0.3706
26402SOL    HW174222   1.379   8.497   6.873 -0.2133  1.1911 -0.8064
26402SOL    HW274223   1.253   8.428   6.795 -0.9902  0.4428  1.0768
26405SOL     OW74224   6.860   9.290   2.461  0.4493 -0.3841  0.4028
26405SOL    HW174225   6.915   9.372   2.473  0.2705 -0.4777  1.9831
26405SOL    HW274226   6.900   9.215   2.516 -0.3752 -0.8698  0.3455
26406SOL     OW74227   4.910   2.774   5.604 -0.1383 -0.1641 -0.2087
26406SOL    HW174228   4.925   2.871   5.624  2.5241 -0.4581 -0.6257
26406SOL    HW274229   4.929   2.757   5.507  4.2788 -1.9632  0.8682
26407SOL     OW74230   4.265   1.883   4.316  0.3669  0.8569 -0.6918
26407SOL    HW174231   4.319   1.926   4.388  0.2715 -0.0163 -0.0927
26407SOL    HW274232   4.177   1.930   4.308  0.2297  0.7275  0.0159
26408SOL     OW74233   9.620   3.453   3.992 -0.1055  0.3991 -0.3278
26408SOL    HW174234   9.617   3.363   3.948  1.5781  0.8958 -1.5488
26408SOL    HW274235   9.653   3.443   4.086 -0.9289 -0.3631 -0.1103
26409SOL     OW74236   6.729   8.651   2.696 -0.2005  0.4826  0.1641
26409SOL    HW174237   6.734   8.687   2.789  0.7686  0.9382 -0.0564
26409SOL    HW274238   6.816   8.608   2.672 -0.7443 -0.4020 -0.2265
26410SOL     OW74239   3.390   3.337   5.167  0.3842  0.5567 -0.2404
26410SOL    HW174240   3.315   3.322   5.231  1.0416  1.3926  0.7341
26410SOL    HW274241   3.399   3.257   5.107 -0.9804  0.2641 -0.0653
26411SOL     OW74242   1.001   8.003   1.957  0.1351 -0.1960 -0.2120
26411SOL    HW174243   1.089   8.050   1.958  0.0316 -0.0058  0.1599
26411SOL    HW274244   0.939   8.048   1.893  0.0333  0.1834  0.1515
26412SOL     OW74245   9.565   0.486   5.735  0.0188  0.3309 -0.0741
26412SOL    HW174246   9.499   0.435   5.791 -0.2057 -0.0815 -0.7022
26412SOL    HW274247   9.626   0.421   5.690  0.4897  0.6862  0.0489
26413SOL     OW74248   3.933   3.307   6.158  0.4596  0.0378  0.1669
26413SOL    HW174249   3.963   3.401   6.174  2.1178 -0.1589 -1.5951
26413SOL    HW274250   4.012   3.246   6.157 -0.7121 -1.6032  2.5474
26414SOL     OW74251   4.473   4.548   6.377 -0.1008  0.1150 -0.1385
26414SOL    HW174252   4.439   4.602   6.454  0.8136 -0.4600  0.6913
26414SOL    HW274253   4.511   4.609   6.308  1.5925  0.5411  1.1175
26416SOL     OW74254   4.677   2.012   4.893  0.5757  0.4440  0.2005
26416SOL    HW174255   4.712   2.095   4.937 -2.4313  1.3639  0.9929
26416SOL    HW274256   4.579   2.022   4.877  0.8223 -1.5803 -2.9438
26417SOL     OW74257   7.891   9.305   6.429  0.1102  0.2971  0.0302
26417SOL    HW174258   7.978   9.274   6.391 -1.3991 -1.8173 -1.8498
26417SOL    HW274259   7.856   9.380   6.373 -0.3969 -0.4468 -0.6658
26418SOL     OW74260   8.077   7.603   7.253 -0.2657 -0.3472 -0.1512
26418SOL    HW174261   8.070   7.675   7.184  0.8997 -0.0604  0.0350
26418SOL    HW274262   8.053   7.515   7.211 -1.7683  0.1471 -0.3574
26419SOL     OW74263   5.186   0.957   4.242  0.2065 -0.5176 -0.0831
26419SOL    HW174264   5.140   0.924   4.325  1.3568  1.8782  1.5685
26419SOL    HW274265   5.237   0.882   4.201 -1.3570 -2.0477  0.6856
26420SOL     OW74266   1.481   0.663   5.558 -0.3596  0.5436  0.2253
26420SOL    HW174267   1.474   0.574   5.603  1.8619 -0.2063 -0.8260
26420SOL    HW274268   1.550   0.719   5.606 -0.8028  1.1996  0.1010
26421SOL     OW74269   9.590   2.523   2.925  0.1861  0.3351  0.0275
26421SOL    HW174270   9.517   2.518   2.857 -0.7068 -0.0839  1.0012
26421SOL    HW274271   9.557   2.574   3.005  1.2995  1.0262  0.0587
26422SOL     OW74272   6.121   2.605   1.167 -0.6822 -0.0930  0.2027
26422SOL    HW174273   6.120   2.505   1.168 -2.3522 -0.0792  1.9673
26422SOL    HW274274   6.092   2.638   1.077  1.5963 -1.1705 -0.9742
26423SOL     OW74275   9.666   5.623   7.155  0.0080 -0.4555  0.1676
26423SOL    HW174276   9.728   5.629   7.077 -0.4603 -1.0768 -0.2564
26423SOL    HW274277   9.571   5.620   7.122 -0.1120 -2.7960  0.6521
26424SOL     OW74278   7.697   6.637   3.489  0.0502 -0.1162  0.0747
26424SOL    HW174279   7.734   6.727   3.514  1.7204 -0.5802 -0.6839
26424SOL    HW274280   7.728   6.570   3.556 -0.3329 -0.3089  0.0550
26426SOL     OW74281   6.979   1.103   1.078 -0.3391 -0.1545  0.2309
26426SOL    HW174282   6.905   1.169   1.063  0.1857  0.4890  0.4705
26426SOL    HW274283   6.966   1.025   1.017 -1.7521 -0.4964  0.9478
26427SOL     OW74284   9.105   2.029   5.408 -0.4092  0.5715 -0.2960
26427SOL    HW174285   9.189   2.084   5.407  0.3327 -0.4577  2.3815
26427SOL    HW274286   9.102   1.973   5.325  1.2676  1.0136 -0.6795
26428SOL     OW74287   3.083   0.701   7.608  0.1943  0.3461  0.3465
26428SOL    HW174288   3.110   0.770   7.675  1.5269  0.7911 -0.6576
26428SOL    HW274289   3.164   0.662   7.565 -0.3680 -3.3759  2.3854
26429SOL     OW74290   1.508   5.054   1.990 -0.2479  0.2593 -0.0720
26429SOL    HW174291   1.550   5.089   2.074 -1.3565  1.8451 -0.1672
26429SOL    HW274292   1.451   4.974   2.012 -1.3031  1.2432  0.8386
26430SOL     OW74293   2.989   9.235   5.356  0.2400 -0.0078  0.5209
26430SOL    HW174294   2.981   9.327   5.316 -1.2184 -0.5310 -0.4411
26430SOL    HW274295   3.030   9.174   5.288  1.0272 -0.1111  1.0923
26431SOL     OW74296   8.799   0.689   1.926  0.0167  0.2589  0.4525
26431SOL    HW174297   8.736   0.612   1.934  0.8917 -0.4696  0.4465
26431SOL    HW274298   8.813   0.711   1.829  0.3281 -0.0481  0.4264
26432SOL     OW74299   1.807   6.614   6.985  0.3099 -0.3865 -0.5969
26432SOL    HW174300   1.770   6.701   7.016  0.4683 -0.0697 -1.2927
26432SOL    HW274301   1.739   6.566   6.929  0.4751 -0.3896 -0.7987
26433SOL     OW74302   1.120   6.934   4.106 -0.1660 -0.1463 -0.5916
26433SOL    HW174303   1.052   6.874   4.149  0.3301  0.0694  0.5108
26433SOL    HW274304   1.077   6.984   4.030 -0.4689 -2.2422 -1.8560
26434SOL     OW74305   8.884   3.451   6.620  0.4750 -0.3989  0.5416
26434SOL    HW174306   8.971   3.502   6.617  0.9421 -1.2719 -1.5407
26434SOL    HW274307   8.816   3.506   6.668  1.5238  1.3590  0.0978
26435SOL     OW74308   0.037   5.972   5.760 -0.1862  0.5040 -0.7193
26435SOL    HW174309   0.106   5.903   5.738 -0.7770 -0.1177 -0.6140
26435SOL    HW274310  -0.034   5.932   5.818 -1.2874  0.8198 -1.8331
26436SOL     OW74311   2.003   7.909   5.484  0.1241 -0.2415 -0.4022
26436SOL    HW174312   2.028   7.845   5.412 -1.0173 -0.5210 -0.5559
26436SOL    HW274313   1.909   7.940   5.470  0.0813  0.1175  0.6534
26437SOL     OW74314   7.415   5.562   1.540 -0.3100 -0.3288  0.3071
26437SOL    HW174315   7.381   5.497   1.608  1.4352  0.2079  1.7618
26437SOL    HW274316   7.506   5.533   1.509 -0.4083  0.2933 -0.5884
26438SOL     OW74317   0.387   2.379   1.964 -0.4783  0.2321  0.0215
26438SOL    HW174318   0.393   2.471   2.004 -2.2184  0.3188  0.1305
26438SOL    HW274319   0.381   2.311   2.038  0.7552  0.0346 -0.0598
26440SOL     OW74320   9.124   2.889   3.904 -0.7493  0.5476  0.2840
26440SOL    HW174321   9.064   2.894   3.983 -0.7211  0.1572  0.3312
26440SOL    HW274322   9.070   2.874   3.821 -0.6996 -0.0914  0.3618
26441SOL     OW74323   8.967   3.951   3.393 -0.5410  0.0349  0.3028
26441SOL    HW174324   8.942   3.857   3.369  0.9331 -0.5684  1.1076
26441SOL    HW274325   9.025   3.951   3.474  1.2857  1.4754 -0.9580
26442SOL     OW74326   3.523   9.594   3.311 -0.0399 -0.4804 -0.2120
26442SOL    HW174327   3.567   9.550   3.233 -0.7774 -1.4254 -0.0941
26442SOL    HW274328   3.510   9.527   3.384 -1.9346 -0.2760 -0.3440
26443SOL     OW74329   1.427   2.594   1.507  0.1974  0.5796  0.4292
26443SOL    HW174330   1.410   2.692   1.514 -0.5940  0.3197  2.5055
26443SOL    HW274331   1.346   2.544   1.537  0.5612 -0.7129 -0.6984
26444SOL     OW74332   9.362   8.324   3.223  0.1945  0.0077 -0.5098
26444SOL    HW174333   9.283   8.263   3.218  0.5527 -0.6807  1.7158
26444SOL    HW274334   9.434   8.282   3.278  2.0722  0.6895 -2.3952
26446SOL     OW74335   1.872   5.230   2.498  0.0390 -0.1115 -0.7104
26446SOL    HW174336   1.794   5.179   2.534  1.0035  0.2282  2.0209
26446SOL    HW274337   1.956   5.181   2.520  0.8427  1.5951  0.1414
26447SOL     OW74338   3.885   7.176   5.886 -0.0162  0.4091  0.5301
26447SOL    HW174339   3.816   7.165   5.957  0.5176  1.0983  1.1729
26447SOL    HW274340   3.970   7.130   5.914 -0.4906 -1.2475 -0.6753
26448SOL     OW74341   4.213   7.514   0.437 -0.2573 -0.3368  0.4553
26448SOL    HW174342   4.137   7.578   0.424 -0.0789 -0.3308 -0.5787
26448SOL    HW274343   4.191   7.427   0.393  1.0001  0.1928 -1.2768
26449SOL     OW74344   1.692   7.269   2.637 -0.0842  0.3734  0.5087
26449SOL    HW174345   1.760   7.268   2.710 -1.1354  0.3712  1.5014
26449SOL    HW274346   1.711   7.345   2.575  1.1675  0.0139  0.4335
26450SOL     OW74347   7.705   8.790   5.751 -0.1376 -0.0848 -0.0070
26450SOL    HW174348   7.733   8.870   5.804  1.2374  0.1504 -1.0678
26450SOL    HW274349   7.649   8.819   5.673  0.2554 -0.1529 -0.3208
26451SOL     OW74350   1.326   8.158   1.086 -0.1246 -0.4233 -0.0918
26451SOL    HW174351   1.404   8.202   1.041 -0.6094 -0.4665 -0.9736
26451SOL    HW274352   1.359   8.083   1.144  0.5185 -0.2613 -0.2465
26452SOL     OW74353   6.342   5.070   2.161 -0.0230 -0.0595  0.4781
26452SOL    HW174354   6.245   5.086   2.144 -0.4371 -2.0447  0.8461
26452SOL    HW274355   6.353   4.985   2.212  1.8341  0.8582  1.6559
26453SOL     OW74356   1.124   3.996   0.255  0.2902 -0.2854  0.1335
26453SOL    HW174357   1.074   3.936   0.318 -0.3599 -0.0823 -0.1848
26453SOL    HW274358   1.059   4.052   0.204  0.8132 -0.3742 -0.6419
26454SOL     OW74359   8.052   5.939   2.281  0.1859  0.1793 -0.7083
26454SOL    HW174360   7.962   5.901   2.262  0.6266 -0.8774 -0.7535
26454SOL    HW274361   8.064   6.024   2.230  0.1838 -1.0211 -2.7675
26455SOL     OW74362   7.606   5.170   6.965  0.0920 -0.6265 -0.3017
26455SOL    HW174363   7.583   5.074   6.978 -0.6899 -0.3500  0.3201
26455SOL    HW274364   7.531   5.216   6.917  0.1715 -0.1620  0.0245
26456SOL     OW74365   8.767   6.375   2.850  0.2068 -0.3924 -0.2929
26456SOL    HW174366   8.746   6.279   2.831 -0.8457 -0.1197 -0.5256
26456SOL    HW274367   8.740   6.397   2.944  0.8136 -0.4226 -0.1074
26459SOL     OW74368   7.519   7.968   6.214 -0.1241 -0.0031 -0.6586
26459SOL    HW174369   7.540   8.053   6.263  0.5278 -0.0161 -0.9055
26459SOL    HW274370   7.428   7.973   6.175 -0.2068  0.4611 -0.4099
26460SOL     OW74371   3.937   7.431   4.467 -0.5178 -0.5061  0.2255
26460SOL    HW174372   3.967   7.512   4.517  0.7173 -1.2039  0.6515
26460SOL    HW274373   3.954   7.350   4.523  1.9497 -1.4096 -1.7378
26461SOL     OW74374   2.356   0.862   4.683 -0.1627  0.2122 -0.0632
26461SOL    HW174375   2.373   0.881   4.780 -0.9828  2.0268 -0.2617
26461SOL    HW274376   2.435   0.893   4.629 -0.7578  1.5040 -0.2106
26462SOL     OW74377   1.930   6.882   6.744  0.6465  0.1758  0.1572
26462SOL    HW174378   1.895   6.912   6.833  1.0943  0.1928  0.3295
26462SOL    HW274379   1.923   6.957   6.678  0.6222  0.2690  0.2660
26463SOL     OW74380   5.708   0.097   6.670 -0.4666 -0.4066 -0.9037
26463SOL    HW174381   5.733   0.020   6.729 -0.2268  0.4386  0.1018
26463SOL    HW274382   5.715   0.182   6.722  0.7117  0.4452 -2.4236
26464SOL     OW74383   7.306   1.533   3.477 -0.0232  0.7133  0.3186
26464SOL    HW174384   7.286   1.630   3.487  0.5783  0.7337  1.4358
26464SOL    HW274385   7.226   1.486   3.439 -0.5270  1.5426  0.3454
26466SOL     OW74386   0.564   3.217   2.125  0.3680  0.5888 -0.0778
26466SOL    HW174387   0.662   3.231   2.143  0.5463 -0.7479  0.0057
26466SOL    HW274388   0.511   3.260   2.199  0.7306  4.5554 -2.0143
26467SOL     OW74389   2.587   4.379   3.778  0.1197 -0.2817  1.0294
26467SOL    HW174390   2.500   4.329   3.780  0.2557 -0.5184  0.9892
26467SOL    HW274391   2.573   4.470   3.816 -0.7617  0.6635 -1.4293
26468SOL     OW74392   7.638   8.785   4.018 -0.0667 -0.3183 -0.2022
26468SOL    HW174393   7.734   8.812   4.030 -0.9825  2.8687  0.2363
26468SOL    HW274394   7.610   8.727   4.095  0.5258  1.6600  1.5550
26469SOL     OW74395   7.084   8.704   6.001 -0.1830  0.6109  1.1023
26469SOL    HW174396   7.089   8.798   6.035 -0.7713  0.7120  0.9094
26469SOL    HW274397   7.165   8.653   6.032  0.5605  1.4127  0.4873
26470SOL     OW74398   8.450   3.973   0.076  0.3378  0.4909 -0.3494
26470SOL    HW174399   8.386   3.944   0.005  0.3011 -1.4349  0.4380
26470SOL    HW274400   8.419   4.060   0.115  0.0634  1.2834 -2.2865
26471SOL     OW74401   9.700   9.082   4.087  0.5341 -0.3138  0.0563
26471SOL    HW174402   9.612   9.107   4.049  1.2577 -0.2546 -1.5987
26471SOL    HW274403   9.723   9.144   4.162 -0.1142  0.6309 -0.5202
26472SOL     OW74404   6.618   8.684   6.468 -0.0877  0.2220  0.4545
26472SOL    HW174405   6.643   8.778   6.491 -1.6677 -0.0532  3.6045
26472SOL    HW274406   6.533   8.685   6.414  0.5884  0.6455 -0.6136
26474SOL     OW74407   0.137   6.326   6.459 -1.0729 -0.1065  0.3136
26474SOL    HW174408   0.154   6.353   6.553 -1.0661 -1.1337  0.6134
26474SOL    HW274409   0.039   6.319   6.443 -1.1413  1.8318 -0.2750
26475SOL     OW74410   5.321   7.339   2.872 -0.4001 -0.0777 -0.0923
26475SOL    HW174411   5.415   7.367   2.887 -0.9885  0.7032  2.3705
26475SOL    HW274412   5.290   7.373   2.783  1.1937  0.8493 -0.3165
26476SOL     OW74413   1.528   4.717   7.251 -0.2635  0.0507  0.3964
26476SOL    HW174414   1.509   4.799   7.305 -0.1195  0.6333 -0.4319
26476SOL    HW274415   1.502   4.636   7.304  0.2293  0.5940  1.4881
26477SOL     OW74416   2.784   1.367   6.657  0.2596 -0.4119  0.0177
26477SOL    HW174417   2.881   1.349   6.638  0.4120 -0.5620  0.9252
26477SOL    HW274418   2.762   1.461   6.629  0.5021 -0.5918 -0.7898
26479SOL     OW74419   2.647   0.197   2.132 -0.7104 -0.2223  0.1903
26479SOL    HW174420   2.577   0.251   2.085 -0.5644 -0.3444 -0.1780
26479SOL    HW274421   2.725   0.183   2.070 -1.0185 -1.3884  0.0365
26480SOL     OW74422   4.402   0.647   1.185 -0.4315 -0.3164 -0.0343
26480SOL    HW174423   4.450   0.732   1.207 -1.5009 -0.0129  1.1903
26480SOL    HW274424   4.423   0.578   1.254 -0.5256 -0.6664 -0.3534
26482SOL     OW74425   6.666   5.447   0.542  0.0263 -0.1859  0.1982
26482SOL    HW174426   6.646   5.351   0.564 -0.0469  0.0430  1.1487
26482SOL    HW274427   6.765   5.463   0.551  0.0148 -0.1270  0.2219
26483SOL     OW74428   4.326   3.302   6.377  0.1858 -0.9480 -0.4058
26483SOL    HW174429   4.354   3.228   6.438 -1.1912  0.1370  1.5880
26483SOL    HW274430   4.284   3.262   6.295  0.3656 -2.3873  0.1808
26484SOL     OW74431   8.532   8.058   3.535  0.0176  0.5598  0.7719
26484SOL    HW174432   8.468   8.041   3.460  0.6079  1.2540  0.1065
26484SOL    HW274433   8.603   8.122   3.505  0.5448  0.4539  1.7671
26485SOL     OW74434   3.274   8.605   1.630  0.1770  0.4294 -0.4451
26485SOL    HW174435   3.219   8.613   1.547  1.0981  1.0430 -1.0042
26485SOL    HW274436   3.218   8.567   1.703 -1.6583  3.0426 -0.3952
26486SOL     OW74437   3.199   0.641   6.262 -0.1215 -0.7218 -0.1011
26486SOL    HW174438   3.233   0.735   6.260 -1.1662 -0.3060  0.9769
26486SOL    HW274439   3.101   0.642   6.282  0.0481 -2.0705  0.8651
26487SOL     OW74440   9.042   7.513   7.766 -0.1165 -0.4955  0.1778
26487SOL    HW174441   8.976   7.483   7.697 -1.8738  1.8591  0.7465
26487SOL    HW274442   9.134   7.515   7.727 -0.8745 -0.6141 -1.6559
26488SOL     OW74443   9.347   0.870   1.855  0.2161 -0.2589 -0.7626
26488SOL    HW174444   9.447   0.864   1.858  0.2303 -0.4456 -1.4735
26488SOL    HW274445   9.308   0.805   1.921  0.5975  1.5019  1.2212
26489SOL     OW74446   8.866   7.630   5.877  0.1303 -0.4036 -0.5826
26489SOL    HW174447   8.843   7.539   5.912 -1.4094  0.2777  0.2545
26489SOL    HW274448   8.845   7.634   5.780 -0.9575 -0.5749 -0.3628
26491SOL     OW74449   4.468   4.339   5.796  0.3042  0.7144  0.0667
26491SOL    HW174450   4.498   4.308   5.886  1.5312  0.5121 -0.3859
26491SOL    HW274451   4.374   4.371   5.800 -0.3436 -1.2174  0.9872
26492SOL     OW74452   5.223   8.292   7.479 -0.0342 -0.1590 -0.2774
26492SOL    HW174453   5.265   8.252   7.560 -1.5368 -0.5938  0.3024
26492SOL    HW274454   5.126   8.308   7.496 -0.2444  0.2771 -1.7970
26493SOL     OW74455   9.192   5.240   6.566 -0.3630  0.5961 -0.1112
26493SOL    HW174456   9.232   5.250   6.475  1.1000  0.3990  0.4969
26493SOL    HW274457   9.160   5.146   6.578 -0.6097  0.6395 -0.4519
26494SOL     OW74458   1.656   2.826   4.564 -0.1913  0.0104 -0.2160
26494SOL    HW174459   1.661   2.854   4.660  1.6514  0.3837 -0.3994
26494SOL    HW274460   1.581   2.762   4.552 -0.2382 -0.2882  1.5484
26495SOL     OW74461   4.568   5.080   4.600  0.0380 -0.0493 -0.0888
26495SOL    HW174462   4.583   5.174   4.570 -2.5721  0.5237  0.2925
26495SOL    HW274463   4.520   5.079   4.688  0.1201 -1.7235 -0.0314
26496SOL     OW74464   0.625   2.081   3.584 -0.2422 -0.3707 -0.2850
26496SOL    HW174465   0.559   2.149   3.552 -0.6720 -0.0736  1.2037
26496SOL    HW274466   0.657   2.105   3.675  1.0731 -1.1336 -0.5286
26497SOL     OW74467   9.298   9.819   5.714 -0.4478  0.0207 -0.5908
26497SOL    HW174468   9.341   9.865   5.635  1.0387  0.6154  0.5323
26497SOL    HW274469   9.270   9.727   5.687 -0.7274  0.5142 -2.0461
26498SOL     OW74470   2.016   4.909   6.635 -0.1874  0.0437 -0.4240
26498SOL    HW174471   2.067   4.982   6.589 -0.2842  1.4529  1.5888
26498SOL    HW274472   2.064   4.884   6.719 -0.3353 -2.0182 -0.9310
26501SOL     OW74473   3.353   0.363   2.579  0.1071 -0.2564  0.2145
26501SOL    HW174474   3.389   0.368   2.486  0.2364  0.4118  0.3003
26501SOL    HW274475   3.424   0.329   2.640  0.6037  1.0520  0.3839
26502SOL     OW74476   8.106   4.724   7.506  0.2313  0.3703 -0.3469
26502SOL    HW174477   8.026   4.697   7.452 -0.7076 -0.0422  1.2269
26502SOL    HW274478   8.178   4.656   7.492 -0.6237 -0.6876  0.2628
26503SOL     OW74479   9.831   5.932   3.139 -0.2063  0.6633  0.4564
26503SOL    HW174480   9.835   5.950   3.237 -0.6894  0.5746  0.4943
26503SOL    HW274481   9.760   5.990   3.098 -0.6330  0.0335  0.3087
26505SOL     OW74482   2.783   4.342   0.870  0.1303 -0.3582 -0.6875
26505SOL    HW174483   2.745   4.256   0.837 -0.2770 -0.4044 -0.1065
26505SOL    HW274484   2.798   4.336   0.969 -0.1073  0.3169 -0.6078
26506SOL     OW74485   7.039   4.855   3.093 -0.5495  0.5662  0.6128
26506SOL    HW174486   7.119   4.816   3.138 -0.2923  0.1944 -0.1511
26506SOL    HW274487   7.067   4.934   3.039 -0.6304  0.1956  0.0281
26508SOL     OW74488   8.396   3.692   7.654  0.5841 -0.0231 -0.6898
26508SOL    HW174489   8.437   3.670   7.742 -0.0398  1.1418 -0.0875
26508SOL    HW274490   8.360   3.609   7.611 -1.5544 -0.2341  1.4165
26509SOL     OW74491   3.089   8.805   7.104  0.0830 -0.6590  0.4896
26509SOL    HW174492   3.086   8.779   7.007  0.9370  0.4344  0.1566
26509SOL    HW274493   3.121   8.728   7.158  1.5107 -0.6703 -0.3471
26510SOL     OW74494   6.763   0.969   6.428 -0.3536  0.0631  0.1508
26510SOL    HW174495   6.760   1.060   6.470 -0.5339 -0.0235  0.3244
26510SOL    HW274496   6.721   0.902   6.489  1.5540 -0.4861  0.8828
26511SOL     OW74497   0.136   2.244   4.733  0.7951  0.6485  0.4266
26511SOL    HW174498   0.171   2.154   4.760 -1.0952 -0.5048 -0.8739
26511SOL    HW274499   0.212   2.302   4.705  1.8877 -1.0323 -0.1774
26512SOL     OW74500   4.915   2.042   7.694  0.2620 -0.3243 -0.7261
26512SOL    HW174501   4.930   2.000   7.604  0.5604 -0.7207 -0.4908
26512SOL    HW274502   4.834   2.001   7.736  0.1441 -0.1655 -0.7969
26513SOL     OW74503   3.928   6.216   3.142  0.0336  0.0976  0.0205
26513SOL    HW174504   3.862   6.289   3.131 -0.9930 -0.7899  0.2039
26513SOL    HW274505   4.004   6.248   3.199 -0.4814  0.9671  0.2252
26514SOL     OW74506   7.401   9.777   2.976  0.1453  0.3374 -0.3048
26514SOL    HW174507   7.393   9.776   3.076  0.1518 -0.9875 -0.3045
26514SOL    HW274508   7.453   9.697   2.947 -0.6963  0.1944 -1.4335
26516SOL     OW74509   7.796   2.227   2.198 -0.1251 -0.5073  0.4844
26516SOL    HW174510   7.786   2.288   2.119  0.7405  0.0880  0.8232
26516SOL    HW274511   7.707   2.187   2.220 -0.7595  0.7910  0.3703
26517SOL     OW74512   4.823   9.767   4.100  0.4414  0.2985 -0.0312
26517SOL    HW174513   4.884   9.719   4.037 -0.0986  0.6110 -0.7997
26517SOL    HW274514   4.748   9.808   4.049  0.3792  1.1518  0.7341
26518SOL     OW74515   4.209   3.541   1.875  0.2489 -0.0237  0.0686
26518SOL    HW174516   4.154   3.531   1.793  0.6213  0.4214 -0.2345
26518SOL    HW274517   4.159   3.594   1.943 -1.0536 -2.4098  1.0482
26519SOL     OW74518   5.572   1.469   4.653 -0.5754  0.0571 -0.1339
26519SOL    HW174519   5.561   1.417   4.738 -0.1255 -0.2567 -0.2645
26519SOL    HW274520   5.551   1.565   4.669  1.0063  0.2755  0.6904
26520SOL     OW74521   7.236   0.964   3.862  0.0670 -0.3236  0.3212
26520SOL    HW174522   7.331   0.951   3.834  0.3982 -1.6630  1.9597
26520SOL    HW274523   7.218   1.062   3.876  1.3067 -0.0980  0.3558
26523SOL     OW74524   0.618   2.973   6.308 -0.2633 -0.0146  0.0707
26523SOL    HW174525   0.543   3.002   6.368 -2.7707 -0.9709 -2.4643
26523SOL    HW274526   0.599   2.880   6.275  1.8543 -0.1086 -0.9246
26524SOL     OW74527   4.282   4.899   2.940 -0.3896 -0.3267 -0.2312
26524SOL    HW174528   4.283   4.999   2.939  0.0240 -0.3266  0.4426
26524SOL    HW274529   4.367   4.863   2.902 -0.2566 -0.4228  0.1568
26525SOL     OW74530   3.828   0.206   4.818 -0.2020  0.1763 -0.2538
26525SOL    HW174531   3.752   0.151   4.784 -0.0472 -1.5404  2.0310
26525SOL    HW274532   3.908   0.191   4.760 -0.3239 -1.5942  0.0120
26527SOL     OW74533   1.402   6.905   7.544 -0.0537  0.0912  0.3292
26527SOL    HW174534   1.459   6.874   7.620 -0.7581  1.2367  1.3564
26527SOL    HW274535   1.372   6.999   7.562  1.4047  1.0944 -2.3265
26528SOL     OW74536   0.154   2.946   4.486 -0.4089 -0.1137  0.1068
26528SOL    HW174537   0.107   2.858   4.476 -0.4531 -0.1497  0.6540
26528SOL    HW274538   0.182   2.959   4.581  1.1805 -0.3339 -0.3285
26531SOL     OW74539   4.675   7.627   5.744  0.0322  0.0113 -0.2207
26531SOL    HW174540   4.619   7.613   5.826  0.5552 -0.1729  0.1076
26531SOL    HW274541   4.760   7.575   5.754  1.8043  3.0185  0.7782
26532SOL     OW74542   9.485   8.747   0.819  0.7258  0.1648  0.1033
26532SOL    HW174543   9.419   8.821   0.810  2.1321  1.0941 -3.2048
26532SOL    HW274544   9.523   8.748   0.912 -0.0288  2.9627  0.4348
26533SOL     OW74545   3.319   2.313   1.765 -0.1125 -0.2692 -0.1685
26533SOL    HW174546   3.326   2.268   1.854 -1.4622  0.1708  0.1757
26533SOL    HW274547   3.407   2.356   1.743  0.2749 -0.4785  0.9056
26534SOL     OW74548   5.089   7.554   3.792  0.6189 -0.2955  0.1221
26534SOL    HW174549   5.118   7.520   3.703  0.5279  0.2302 -0.1117
26534SOL    HW274550   5.000   7.516   3.815 -0.0985  0.8130 -0.7443
26535SOL     OW74551   2.343   6.531   3.943  0.3625  0.4373 -0.1186
26535SOL    HW174552   2.438   6.504   3.959  0.3941  0.5637 -0.0904
26535SOL    HW274553   2.338   6.630   3.932  0.2843  0.3923 -0.4848
26536SOL     OW74554   3.465   9.204   1.644  0.5015  0.4334 -0.0053
26536SOL    HW174555   3.420   9.184   1.556  0.9582  0.5159 -0.2569
26536SOL    HW274556   3.409   9.167   1.718  0.7137 -0.6797 -0.3937
26537SOL     OW74557   7.522   1.137   1.195 -0.0598  0.6524 -0.5895
26537SOL    HW174558   7.425   1.156   1.183 -0.0299  1.9762  1.1321
26537SOL    HW274559   7.575   1.219   1.175  0.5116  0.6803  0.9510
26538SOL     OW74560   0.704   6.167   7.098  0.0801 -0.0736  0.1511
26538SOL    HW174561   0.681   6.216   7.182  1.8934 -0.9019  1.1648
26538SOL    HW274562   0.779   6.213   7.051 -0.5091  0.0396 -0.7023
26541SOL     OW74563   2.769   0.906   6.315 -0.3306  0.3158  0.3170
26541SOL    HW174564   2.716   0.991   6.318 -1.5833 -0.4872  1.3267
26541SOL    HW274565   2.709   0.828   6.335  1.0387 -0.6920  0.5695
26542SOL     OW74566   2.787   6.871   0.477  0.1622 -0.5706  0.3049
26542SOL    HW174567   2.786   6.970   0.490 -1.1284 -0.8630  2.6915
26542SOL    HW274568   2.700   6.832   0.506  0.2803 -2.3215 -1.5532
26543SOL     OW74569   6.073   8.886   2.444 -0.2820 -1.0923 -1.2013
26543SOL    HW174570   6.031   8.798   2.420 -0.2183 -2.3425  2.9106
26543SOL    HW274571   6.129   8.874   2.526 -1.5511  3.1505  0.3883
26544SOL     OW74572   8.954   8.875   1.781 -0.1807  0.6186  0.0063
26544SOL    HW174573   8.984   8.942   1.714 -0.7288  1.5228  0.6610
26544SOL    HW274574   9.003   8.890   1.867  0.8615 -0.8229 -0.3055
26545SOL     OW74575   9.027   4.313   7.318  0.2012  0.8942  0.4466
26545SOL    HW174576   9.090   4.372   7.266  2.0721 -1.3516  0.1098
26545SOL    HW274577   9.077   4.236   7.356 -1.9974  0.1742  1.9698
26546SOL     OW74578   6.457   3.797   1.696  0.0995 -0.2605 -0.1262
26546SOL    HW174579   6.492   3.857   1.768  0.7272  0.0651 -0.6975
26546SOL    HW274580   6.483   3.703   1.715 -0.9273 -0.3663  0.7976
26547SOL     OW74581   8.078   2.240   2.633 -0.3357  0.1149 -0.0901
26547SOL    HW174582   8.173   2.210   2.623 -0.6112 -0.7146 -0.2760
26547SOL    HW274583   8.047   2.283   2.548  0.0301  0.8509  0.1435
26548SOL     OW74584   7.059   5.379   2.355  0.3025  0.3646  0.8599
26548SOL    HW174585   7.149   5.378   2.312  0.2214  1.8833  0.6169
26548SOL    HW274586   7.042   5.470   2.395 -0.7601 -0.1725  1.6669
26550SOL     OW74587   2.371   9.548   2.570 -0.1429  0.1852 -0.0012
26550SOL    HW174588   2.464   9.536   2.537 -0.2421  0.8294 -0.5133
26550SOL    HW274589   2.307   9.507   2.506 -0.3646  1.8340 -0.8629
26552SOL     OW74590   7.353   0.468   1.525 -0.0112  0.2796  0.6426
26552SOL    HW174591   7.303   0.522   1.457  0.7649  1.3491  0.9032
26552SOL    HW274592   7.367   0.375   1.491 -0.2721  0.5951 -0.3326
26553SOL     OW74593   2.851   6.293   3.431 -0.2743 -0.0524  0.2261
26553SOL    HW174594   2.838   6.368   3.367  0.3252  1.6920  2.0670
26553SOL    HW274595   2.789   6.218   3.408 -0.8572  0.9786 -1.6792
26554SOL     OW74596   9.891   3.169   7.857  0.0165 -0.9607 -0.3038
26554SOL    HW174597   9.854   3.213   7.938  2.0944 -1.9186  1.2158
26554SOL    HW274598   9.902   3.237   7.784 -0.5018  0.2171  0.7077
26556SOL     OW74599   1.805   3.755   7.623  0.1153 -0.4284  0.5836
26556SOL    HW174600   1.807   3.692   7.545  0.0008  1.7015 -1.1615
26556SOL    HW274601   1.899   3.774   7.651  0.2020 -0.1921  0.1402
26557SOL     OW74602   9.633   9.113   5.696  0.0720 -0.6201 -0.2150
26557SOL    HW174603   9.707   9.134   5.633 -0.0119  0.2528 -0.0279
26557SOL    HW274604   9.666   9.052   5.768  0.4948 -0.5618 -0.3613
26558SOL     OW74605   1.366   5.868   5.400  0.3844  0.1050  0.0103
26558SOL    HW174606   1.350   5.862   5.302  0.5285  1.2866 -0.0975
26558SOL    HW274607   1.411   5.955   5.421 -3.7793  2.0004  1.6449
26559SOL     OW74608   8.560   9.239   5.517  0.1182  0.8762  0.0404
26559SOL    HW174609   8.463   9.216   5.525 -0.2902  1.1437 -3.3890
26559SOL    HW274610   8.569   9.335   5.489  1.2815  0.3438 -1.4794
26560SOL     OW74611   3.995   3.754   2.988  0.3493  0.0630  0.2390
26560SOL    HW174612   4.014   3.842   3.031  1.7277  0.8462 -1.8502
26560SOL    HW274613   3.927   3.765   2.916  0.3484 -0.6119  0.1275
26561SOL     OW74614   9.153   4.147   2.256 -0.6217 -0.3454  0.1708
26561SOL    HW174615   9.113   4.056   2.246  1.2807 -1.0256 -1.8845
26561SOL    HW274616   9.251   4.138   2.274 -0.6395  1.2921  1.1411
26562SOL     OW74617   8.956   8.448   0.790 -0.0292 -0.0563  0.2912
26562SOL    HW174618   8.982   8.358   0.824 -0.6550 -0.2151  0.3619
26562SOL    HW274619   9.038   8.499   0.763  0.4756  0.0432  1.9362
26564SOL     OW74620   9.538   2.028   2.154  0.4930 -0.2703 -0.1549
26564SOL    HW174621   9.570   1.941   2.193 -1.8231 -0.9228  0.3491
26564SOL    HW274622   9.573   2.104   2.209 -0.2294 -1.0486  1.4305
26565SOL     OW74623   9.322   9.345   5.158 -0.0355 -0.4846 -0.8337
26565SOL    HW174624   9.408   9.330   5.207  0.8456  0.1637 -2.1737
26565SOL    HW274625   9.246   9.318   5.217  1.0137  0.2547  0.8924
26566SOL     OW74626   9.210   2.744   5.490  0.2864 -0.2009  0.4850
26566SOL    HW174627   9.281   2.687   5.446  0.4175 -0.0173  0.4620
26566SOL    HW274628   9.246   2.782   5.575  0.9731  1.6914 -0.6285
26569SOL     OW74629   9.008   2.747   5.304  0.1341 -0.0547 -0.5475
26569SOL    HW174630   9.094   2.736   5.354 -0.6511 -2.7460  0.2953
26569SOL    HW274631   9.026   2.739   5.206  0.7105 -1.8804 -0.3222
26570SOL     OW74632   5.941   7.887   3.914  0.3894 -0.0342  0.3506
26570SOL    HW174633   5.914   7.796   3.943 -0.4876 -0.3327 -1.3075
26570SOL    HW274634   5.878   7.920   3.844  0.6933  1.8548  0.9228
26571SOL     OW74635   8.131   9.655   0.885 -0.3898  0.1905 -0.0987
26571SOL    HW174636   8.182   9.705   0.955  0.6355  0.4558 -1.0225
26571SOL    HW274637   8.119   9.560   0.914  1.7357 -0.2019 -0.4168
26573SOL     OW74638   0.379   5.248   2.750 -0.2155  0.4002  0.2304
26573SOL    HW174639   0.375   5.343   2.780  2.2230 -0.3398  3.1427
26573SOL    HW274640   0.408   5.190   2.826  0.8687 -2.3397 -2.1611
26575SOL     OW74641   7.118   7.435   6.071 -0.0916 -0.0624  0.0443
26575SOL    HW174642   7.177   7.364   6.110  0.1965 -0.4411 -1.0627
26575SOL    HW274643   7.097   7.412   5.976 -2.0614  0.0628  0.4476
26576SOL     OW74644   8.917   7.092   7.568  0.0808 -0.4185 -0.7333
26576SOL    HW174645   8.999   7.059   7.613 -0.3766 -0.9950 -0.3110
26576SOL    HW274646   8.940   7.169   7.508  0.3241  2.1424  2.4889
26577SOL     OW74647   5.993   2.059   5.747  0.6148  0.5186 -0.3151
26577SOL    HW174648   6.092   2.062   5.756  0.8022  0.2076 -2.1912
26577SOL    HW274649   5.955   2.004   5.822  1.8857  0.1501  0.0791
26579SOL     OW74650   9.010   0.268   1.562  0.1091  0.1828  0.1596
26579SOL    HW174651   9.038   0.257   1.658  0.3532 -1.7355 -0.1012
26579SOL    HW274652   9.088   0.294   1.507  0.9492 -2.8438 -0.1767
26581SOL     OW74653   7.605   3.396   3.248 -0.0173  0.6262  0.5528
26581SOL    HW174654   7.586   3.440   3.160  4.3483 -0.2155 -0.9023
26581SOL    HW274655   7.657   3.459   3.306  0.2158 -0.1206  1.1596
26582SOL     OW74656   1.570   6.370   7.103  0.4612 -0.1668 -0.5317
26582SOL    HW174657   1.473   6.347   7.109  0.2299  0.6474 -1.0125
26582SOL    HW274658   1.600   6.363   7.007  0.9168 -0.5556 -0.3651
26584SOL     OW74659   2.189   6.825   6.456 -0.3226  0.0810 -0.4099
26584SOL    HW174660   2.251   6.815   6.378 -1.2374 -1.4339 -0.9580
26584SOL    HW274661   2.206   6.751   6.521 -0.0643  0.9203  0.4859
26585SOL     OW74662   1.334   8.741   6.990  0.4149  0.3425 -0.7209
26585SOL    HW174663   1.267   8.808   7.023  0.8580  0.2740  0.3172
26585SOL    HW274664   1.369   8.771   6.901 -1.8607 -0.2010 -1.8583
26586SOL     OW74665   5.930   9.811   7.035  0.0705  0.0823 -0.3760
26586SOL    HW174666   5.885   9.840   6.950  0.4205  1.8235  0.0115
26586SOL    HW274667   6.020   9.854   7.041 -0.1739  0.4103  1.1414
26587SOL     OW74668   2.298   3.030   4.950 -0.2718  0.1678  0.2463
26587SOL    HW174669   2.393   3.000   4.964 -0.5346 -0.8960 -0.2133
26587SOL    HW274670   2.287   3.063   4.856 -0.1740  1.0202  0.5261
26588SOL     OW74671   6.411   5.374   1.913  0.4878 -0.8786 -0.0787
26588SOL    HW174672   6.351   5.411   1.984 -2.4942 -3.8707 -0.9267
26588SOL    HW274673   6.461   5.296   1.949  0.7754 -0.9241 -0.5762
26589SOL     OW74674   3.990   5.680   4.374 -0.3200  0.7060 -0.2801
26589SOL    HW174675   3.942   5.649   4.457 -0.5189 -1.6352 -1.2372
26589SOL    HW274676   3.929   5.738   4.321 -1.0737  0.1986  0.0126
26590SOL     OW74677   3.995   6.340   7.835 -0.1094 -0.4780  0.1407
26590SOL    HW174678   3.980   6.286   7.752  0.7171 -0.1131 -0.2501
26590SOL    HW274679   4.038   6.427   7.812  0.3782 -0.4857  0.9770
26591SOL     OW74680   6.988   2.076   0.342  0.2650 -0.0459  0.1220
26591SOL    HW174681   6.901   2.062   0.294  0.2513  1.4699 -0.3267
26591SOL    HW274682   7.059   2.023   0.296  0.1490  0.9976 -1.3079
26593SOL     OW74683   5.693   4.052   0.033 -0.2656 -0.6035 -0.4254
26593SOL    HW174684   5.749   4.133   0.016 -0.0627 -0.4257  1.0258
26593SOL    HW274685   5.601   4.081   0.060  0.2130 -0.8293  1.4708
26594SOL     OW74686   7.342   6.834   5.185  0.1545 -0.2260  0.1052
26594SOL    HW174687   7.429   6.807   5.226  0.6080  1.6874  0.4436
26594SOL    HW274688   7.333   6.789   5.096  1.1797 -0.9584  0.3554
26596SOL     OW74689   3.175   6.054   5.346 -0.1424 -0.2878 -0.0314
26596SOL    HW174690   3.171   6.137   5.401  0.1848 -0.6927  0.6128
26596SOL    HW274691   3.257   6.002   5.371  0.1257 -0.3711 -1.0523
26599SOL     OW74692   2.089   0.048   4.395 -0.4875  0.3948  1.0009
26599SOL    HW174693   2.001   0.063   4.440 -0.9704 -0.6039  0.4061
26599SOL    HW274694   2.129  -0.038   4.426 -0.3803  0.1648  0.2463
26601SOL     OW74695   0.055   6.488   2.099 -0.7021  0.1718  0.2600
26601SOL    HW174696   0.139   6.525   2.138  0.7255 -1.7288 -0.9667
26601SOL    HW274697   0.011   6.559   2.043 -0.3101  1.3976  1.4660
26603SOL     OW74698   6.539   2.473   3.717 -0.7129 -0.1864  0.5624
26603SOL    HW174699   6.612   2.514   3.771  0.6557 -2.9117  0.8680
26603SOL    HW274700   6.555   2.490   3.620  0.6216 -1.1502  0.5973
26604SOL     OW74701   4.466   6.895   3.181 -0.1973  0.0851 -0.0840
26604SOL    HW174702   4.367   6.880   3.179 -0.3844  1.3597 -1.4223
26604SOL    HW274703   4.486   6.979   3.232  0.2969 -0.8728  1.3088
26605SOL     OW74704   3.448   8.852   0.635  0.5419  0.6073  0.3889
26605SOL    HW174705   3.383   8.848   0.712 -0.9241  1.1115 -0.7961
26605SOL    HW274706   3.518   8.782   0.648  1.0879  1.5325  2.8503
26606SOL     OW74707   9.724   9.677  10.082  0.7232  0.8277  0.2903
26606SOL    HW174708   9.708   9.712   9.989  2.5649 -1.9753 -1.1508
26606SOL    HW274709   9.636   9.665  10.128 -0.2713  1.6257 -1.3325
26607SOL     OW74710   1.426   7.081   1.278 -0.2467  0.1921  0.2047
26607SOL    HW174711   1.453   7.177   1.292  0.1844 -0.0530  1.1548
26607SOL    HW274712   1.329   7.071   1.298  0.1736  0.0280  2.2914
26608SOL     OW74713   6.614   2.806   4.047 -0.3768  0.4839  0.1333
26608SOL    HW174714   6.522   2.783   4.079  0.0481 -0.1142  0.9573
26608SOL    HW274715   6.650   2.730   3.993  0.2446  0.0415  1.1534
26610SOL     OW74716   2.382   8.077   1.387 -0.2313 -0.3404 -0.4206
26610SOL    HW174717   2.376   8.098   1.485  0.7249  0.3508 -0.5050
26610SOL    HW274718   2.350   8.155   1.334 -0.5279 -0.6265 -0.6592
26611SOL     OW74719   1.799   8.374   0.408  0.1114 -0.2255 -1.0704
26611SOL    HW174720   1.780   8.389   0.311  0.1977  1.4394 -0.8547
26611SOL    HW274721   1.896   8.353   0.420  0.1066 -0.4014 -1.3461
26612SOL     OW74722   1.272   5.102   5.441  0.0550 -0.0857 -0.1534
26612SOL    HW174723   1.229   5.013   5.425 -1.9927  0.7327  0.7357
26612SOL    HW274724   1.272   5.122   5.539  1.4475  0.4572 -0.2519
26613SOL     OW74725   0.815   1.187   3.982 -0.5587 -0.4006  0.2988
26613SOL    HW174726   0.792   1.105   4.033  1.6408 -1.1122  0.2157
26613SOL    HW274727   0.841   1.260   4.046  2.6494 -1.4330  0.2752
26614SOL     OW74728   7.447   0.116   2.397  0.0122 -0.3786 -0.5122
26614SOL    HW174729   7.468   0.040   2.335 -0.9722 -1.7148  0.7295
26614SOL    HW274730   7.404   0.079   2.480 -1.2497  1.6343 -0.2432
26615SOL     OW74731   7.547   8.246   6.261 -0.2956 -0.1459  0.2279
26615SOL    HW174732   7.574   8.311   6.331 -0.7310  1.2197 -0.8440
26615SOL    HW274733   7.618   8.241   6.191 -1.2565  0.8903 -0.8406
26616SOL     OW74734   0.015   4.892   4.157 -0.0645  0.3410 -0.4479
26616SOL    HW174735  -0.068   4.893   4.213 -1.0379 -1.4381 -1.7935
26616SOL    HW274736   0.043   4.797   4.141  0.1497  0.7849 -2.9906
26617SOL     OW74737   7.744   5.170   0.715 -0.6712  0.0308  0.0773
26617SOL    HW174738   7.707   5.234   0.647  0.2018  1.4810  0.9288
26617SOL    HW274739   7.800   5.221   0.781  0.5143 -1.7059  0.4479
26618SOL     OW74740   2.284   4.573   0.582  0.1518 -0.1899 -0.1427
26618SOL    HW174741   2.335   4.658   0.593 -0.8949  0.4876 -0.4882
26618SOL    HW274742   2.273   4.529   0.672 -0.6377  0.8151  0.2574
26619SOL     OW74743   4.228   5.390   3.577 -0.2813 -0.1276 -0.3607
26619SOL    HW174744   4.142   5.352   3.611 -1.2314  0.4130 -2.1332
26619SOL    HW274745   4.259   5.463   3.639 -1.4286  0.0957 -0.0461
26620SOL     OW74746   0.599   9.386   0.167 -0.0446 -0.4270  0.0981
26620SOL    HW174747   0.550   9.463   0.207  0.4238  0.3364 -0.7528
26620SOL    HW274748   0.697   9.398   0.183  0.0440 -0.7533 -0.1992
26621SOL     OW74749   6.539   0.453   0.685 -0.2620  0.0239 -0.3229
26621SOL    HW174750   6.533   0.544   0.644 -0.2800 -0.4566 -1.4158
26621SOL    HW274751   6.448   0.417   0.701 -0.2612 -0.0834 -0.5484
26622SOL     OW74752   2.164   7.198   0.445  0.2724  0.3918 -0.4927
26622SOL    HW174753   2.202   7.111   0.415  2.1668  1.5715 -1.5666
26622SOL    HW274754   2.142   7.193   0.543  0.0668 -1.3696 -0.6161
26623SOL     OW74755   0.002   7.346   4.343 -0.0930 -0.3459 -0.0100
26623SOL    HW174756  -0.031   7.286   4.416  0.9692 -0.0851  0.6997
26623SOL    HW274757   0.090   7.385   4.370  1.1575 -1.5861 -2.1463
26625SOL     OW74758   1.541   2.789   5.465 -0.2940  0.1477 -0.1586
26625SOL    HW174759   1.448   2.757   5.480 -1.5307  2.1836 -3.1298
26625SOL    HW274760   1.554   2.876   5.512  0.2696 -0.3349  0.5960
26626SOL     OW74761   8.341   6.563   5.279 -0.1384  0.0901  0.3170
26626SOL    HW174762   8.315   6.472   5.247 -0.6506  0.6692 -0.9816
26626SOL    HW274763   8.277   6.630   5.241  1.5996  1.2436 -0.6244
26627SOL     OW74764   6.150   9.254   4.062  0.6899 -0.5254 -0.2163
26627SOL    HW174765   6.166   9.304   3.976 -0.2427 -0.1847 -0.1925
26627SOL    HW274766   6.225   9.273   4.125  0.4025  0.7579 -0.2518
26628SOL     OW74767   1.548   1.123   3.891 -0.5517  0.0628 -0.3835
26628SOL    HW174768   1.533   1.129   3.792 -0.0012  0.5651 -0.4374
26628SOL    HW274769   1.583   1.210   3.925  1.1752 -0.7187 -0.0839
26629SOL     OW74770   9.113   0.579   1.785  0.4138 -0.1037  0.1690
26629SOL    HW174771   9.033   0.575   1.725  0.1494  0.1504  0.5027
26629SOL    HW274772   9.121   0.671   1.824  0.7855 -0.1690  0.2480
26630SOL     OW74773   5.242   4.686   0.776 -0.7599  0.3416  0.3208
26630SOL    HW174774   5.342   4.691   0.773 -0.7619  0.5178  0.5386
26630SOL    HW274775   5.213   4.671   0.871 -0.9859  1.3605  0.4187
26631SOL     OW74776   0.909   2.528   4.697  0.4412  0.4260 -0.5315
26631SOL    HW174777   0.939   2.554   4.788 -2.2246 -0.6239  0.7046
26631SOL    HW274778   0.843   2.595   4.663 -1.6932 -1.2852  0.0783
26632SOL     OW74779   0.805   7.843   0.789  0.1976  0.1665  0.0133
26632SOL    HW174780   0.848   7.900   0.719  0.4086  0.8187  0.6700
26632SOL    HW274781   0.708   7.831   0.766  0.2746  0.3329 -0.4144
26633SOL     OW74782   0.893   4.221   5.406  0.3980  0.1519  0.0260
26633SOL    HW174783   0.886   4.311   5.449 -2.6745 -0.4297  0.8391
26633SOL    HW274784   0.866   4.151   5.472 -0.2902 -1.1068 -1.5912
26634SOL     OW74785   3.542   1.059   1.772 -0.1478 -0.5662  0.2970
26634SOL    HW174786   3.549   1.117   1.691 -2.6320 -2.0430 -1.0231
26634SOL    HW274787   3.631   1.018   1.792  0.3097 -0.8303 -2.1619
26635SOL     OW74788   9.009   0.951   2.599  0.3141  0.1473  0.3676
26635SOL    HW174789   8.977   0.861   2.630 -0.7945 -0.1950 -1.6480
26635SOL    HW274790   9.019   0.950   2.499  0.8833  2.0841  0.3835
26636SOL     OW74791   4.760   8.430   4.248  0.2484 -0.2481  1.2159
26636SOL    HW174792   4.814   8.472   4.321  1.3263  0.9713 -0.2476
26636SOL    HW274793   4.813   8.356   4.206  0.0668 -0.2211  0.9383
26638SOL     OW74794   7.124   2.830   3.343  0.4901 -0.2875 -0.1092
26638SOL    HW174795   7.194   2.762   3.322  0.8040  0.2936 -0.9830
26638SOL    HW274796   7.128   2.903   3.275 -1.7176 -0.8279 -0.8710
26639SOL     OW74797   5.839   0.519   6.583 -0.1919 -0.6179  0.0440
26639SOL    HW174798   5.889   0.585   6.527 -0.1091 -0.0457  0.7876
26639SOL    HW274799   5.902   0.449   6.617  0.2134  0.3926  1.4059
26641SOL     OW74800   6.905   7.650   4.434 -1.1985 -0.0065  0.2881
26641SOL    HW174801   6.959   7.570   4.462 -0.9663  0.4037  1.0318
26641SOL    HW274802   6.889   7.646   4.335  1.4236  0.6050 -0.2037
26642SOL     OW74803   9.156   3.167   2.073 -0.3986 -0.1170  0.3030
26642SOL    HW174804   9.073   3.174   2.017 -0.3331  2.2410  0.4516
26642SOL    HW274805   9.136   3.117   2.156 -1.2906 -0.9100 -0.3756
26644SOL     OW74806   6.460   1.034   6.929 -0.0491 -0.1962  0.2216
26644SOL    HW174807   6.537   1.079   6.883 -0.2748 -1.5921 -1.5932
26644SOL    HW274808   6.459   1.060   7.025  1.0586  2.0005 -0.3274
26645SOL     OW74809   6.698   9.760   1.505  0.0960 -0.6190  0.2746
26645SOL    HW174810   6.687   9.803   1.595 -0.3273 -0.6744  0.2490
26645SOL    HW274811   6.783   9.708   1.504  1.2708  1.2387 -0.1055
26646SOL     OW74812   4.965   9.942   0.776 -0.1270 -0.4364 -0.2544
26646SOL    HW174813   4.941  10.032   0.739  1.0443  0.4424  1.0827
26646SOL    HW274814   4.899   9.916   0.847 -0.4479 -0.6375 -0.6204
26650SOL     OW74815   4.081   4.991   7.131 -0.4009 -0.6695 -0.0055
26650SOL    HW174816   4.107   5.056   7.060  0.3732 -2.9895 -1.8897
26650SOL    HW274817   4.158   4.977   7.193 -0.1583 -0.7489 -0.3260
26651SOL     OW74818   1.468   9.575   3.962  0.0217 -0.0507  0.3129
26651SOL    HW174819   1.459   9.574   4.061  0.4431  0.7541  0.3647
26651SOL    HW274820   1.384   9.539   3.920 -0.7295  0.9676  0.9252
26652SOL     OW74821   7.287   6.204   1.617 -0.3667  0.0086  0.0494
26652SOL    HW174822   7.275   6.167   1.709  1.3815 -0.0305  0.2841
26652SOL    HW274823   7.202   6.248   1.587 -1.0841 -0.3621  1.4996
26653SOL     OW74824   7.013   1.115   6.235  0.5051  0.0407  0.1551
26653SOL    HW174825   6.955   1.159   6.167  1.0507 -1.5402 -1.3554
26653SOL    HW274826   6.960   1.099   6.319 -1.4817 -2.0079 -1.4338
26654SOL     OW74827   3.580   9.460   1.538  0.6470 -0.0668  0.0725
26654SOL    HW174828   3.667   9.428   1.576  0.4459  1.3760  1.7897
26654SOL    HW274829   3.512   9.387   1.546  1.3128 -0.6904  0.0761
26655SOL     OW74830   0.010   6.835   2.991  0.1408  0.2490 -0.2792
26655SOL    HW174831  -0.010   6.790   2.904  0.1683 -0.1080 -0.1041
26655SOL    HW274832   0.074   6.778   3.044 -1.9041 -0.8446  1.1068
26656SOL     OW74833   4.847   9.674   2.654  0.6296 -0.1826  0.1933
26656SOL    HW174834   4.816   9.640   2.742 -0.3252 -0.9730 -0.4395
26656SOL    HW274835   4.803   9.761   2.634 -0.5566 -0.8922 -0.3215
26657SOL     OW74836   1.086   9.217   2.669 -0.3263  0.3805 -0.1841
26657SOL    HW174837   1.089   9.227   2.768 -0.1366 -0.8941 -0.0550
26657SOL    HW274838   1.177   9.194   2.635  0.0660  2.8421 -0.8999
26659SOL     OW74839   1.170   8.335   2.157 -0.3674 -0.0205  1.5110
26659SOL    HW174840   1.074   8.329   2.182 -0.1458 -1.5663  1.9907
26659SOL    HW274841   1.201   8.248   2.118  0.5809  0.7755  0.4221
26661SOL     OW74842   8.065   9.071   5.841  0.2619  0.7844  0.2357
26661SOL    HW174843   8.024   9.096   5.753  0.6531  1.4155  0.2303
26661SOL    HW274844   8.138   9.004   5.826 -0.5138 -0.0700  0.2113
26662SOL     OW74845   2.895   3.545   4.094  0.5660  0.0220 -0.1842
26662SOL    HW174846   2.974   3.603   4.078  0.1960  0.4825 -0.3587
26662SOL    HW274847   2.924   3.450   4.100  1.6043  0.4633  3.0326
26663SOL     OW74848   8.693   3.579   2.351 -0.1921 -0.0058  0.2143
26663SOL    HW174849   8.634   3.525   2.290  0.0895  0.9156 -0.8825
26663SOL    HW274850   8.778   3.529   2.368 -0.8977 -0.9277  1.0544
26665SOL     OW74851   1.038   5.289   3.879  0.3070  0.2766  0.7822
26665SOL    HW174852   1.078   5.210   3.832  0.1145  0.1730  0.7917
26665SOL    HW274853   1.009   5.262   3.971 -1.4481 -0.1186  0.1303
26666SOL     OW74854   8.411   5.660   7.574 -0.1873 -0.0025  0.2929
26666SOL    HW174855   8.506   5.644   7.546 -0.2686  1.1927 -0.7700
26666SOL    HW274856   8.398   5.631   7.668  1.3735  0.2644  0.6061
26667SOL     OW74857   0.847   2.714   1.993 -0.4389 -0.0772  0.3479
26667SOL    HW174858   0.925   2.661   2.023  1.0224  1.3032 -0.8981
26667SOL    HW274859   0.793   2.661   1.927  1.2482  0.1042 -1.2162
26669SOL     OW74860   3.922   3.460   2.634  0.4716  0.2559  0.0747
26669SOL    HW174861   3.888   3.417   2.718 -0.4991  1.9202  0.5769
26669SOL    HW274862   4.021   3.448   2.627  0.8087  1.4424  2.2929
26670SOL     OW74863   6.806   8.755   2.958 -0.2988 -0.7792  0.3634
26670SOL    HW174864   6.790   8.853   2.975 -2.7200 -0.9249 -0.8911
26670SOL    HW274865   6.753   8.701   3.023  0.0743 -1.2667  0.2628
26671SOL     OW74866   3.762   4.934   2.892 -0.3329 -0.0051 -0.8928
26671SOL    HW174867   3.733   4.841   2.914  0.7764  0.0766  1.0343
26671SOL    HW274868   3.682   4.987   2.861 -1.3645 -1.0403 -0.0696
26675SOL     OW74869   6.680   5.822   1.500 -0.1664 -0.2162  0.1022
26675SOL    HW174870   6.641   5.914   1.504 -1.5464 -0.7720 -0.2896
26675SOL    HW274871   6.669   5.786   1.407  0.2338 -0.8432  0.2970
26676SOL     OW74872   7.723   0.798   1.766  0.1682 -0.4164 -0.6286
26676SOL    HW174873   7.782   0.718   1.753 -0.3715 -0.7555 -1.0148
26676SOL    HW274874   7.632   0.778   1.732  0.2533  0.6629 -1.5455
26677SOL     OW74875   6.938   0.584   5.048 -0.2984 -0.1827  0.0496
26677SOL    HW174876   6.878   0.525   5.102 -0.0757 -0.5684 -0.1244
26677SOL    HW274877   6.919   0.680   5.070 -0.8684 -0.3089  0.1106
26680SOL     OW74878   9.446   9.180   4.678  0.4002  0.3861  0.0374
26680SOL    HW174879   9.411   9.091   4.707  0.0081  0.6996  0.5278
26680SOL    HW274880   9.518   9.166   4.610 -0.6813 -0.2715 -1.0124
26681SOL     OW74881   0.102   7.112   6.893 -0.0431 -0.3780  0.3261
26681SOL    HW174882   0.092   7.199   6.844 -0.2686  0.5823  2.0507
26681SOL    HW274883   0.035   7.046   6.857  0.0285  0.1950 -0.8860
26682SOL     OW74884   1.339   4.762   2.511 -0.4536 -0.1345 -0.1644
26682SOL    HW174885   1.344   4.676   2.460  0.8344  0.3233 -0.8329
26682SOL    HW274886   1.268   4.755   2.581 -0.0018 -1.9275  0.1382
26683SOL     OW74887   5.436   9.090   5.495  0.2335  0.2480  0.2866
26683SOL    HW174888   5.341   9.121   5.497  0.2656  0.3705  0.0207
26683SOL    HW274889   5.488   9.147   5.431  0.5579  0.3907  0.6803
26684SOL     OW74890   5.725   8.696   3.630 -0.2566  0.3284 -0.0308
26684SOL    HW174891   5.763   8.749   3.555  1.9979 -0.3075  0.6269
26684SOL    HW274892   5.649   8.746   3.672  0.0181  1.7468 -1.1960
26685SOL     OW74893   4.939   3.891   7.298  0.0285 -0.3380  0.6241
26685SOL    HW174894   4.875   3.897   7.375  0.8864 -0.6651  1.3570
26685SOL    HW274895   4.912   3.958   7.228 -0.0552  0.7824  1.7191
26686SOL     OW74896   8.081   1.187   3.754  0.0535 -0.3432  0.3927
26686SOL    HW174897   8.006   1.247   3.724  0.2223  0.0080  0.6599
26686SOL    HW274898   8.092   1.112   3.689 -1.4596 -1.1869  1.0956
26687SOL     OW74899   0.944   9.758   7.734 -0.0506  0.0264 -0.0242
26687SOL    HW174900   0.985   9.678   7.689  3.0169  0.5642  1.6704
26687SOL    HW274901   0.934   9.832   7.668 -0.0995 -0.7556 -0.9136
26688SOL     OW74902   8.814   9.668   7.128  0.6246  0.2932  0.1024
26688SOL    HW174903   8.859   9.756   7.112  0.1798  0.6427  0.7588
26688SOL    HW274904   8.736   9.659   7.066  0.1063  0.7734  0.6753
26689SOL     OW74905   2.448   2.570   6.085  0.3151  0.5262  0.8844
26689SOL    HW174906   2.469   2.479   6.121  0.4880  0.2823  0.1689
26689SOL    HW274907   2.532   2.613   6.050 -0.2289 -0.2463 -1.5028
26690SOL     OW74908   8.822   5.503   5.314 -0.0317  0.3606 -0.4351
26690SOL    HW174909   8.747   5.552   5.271  0.5635  0.2178 -1.6529
26690SOL    HW274910   8.794   5.409   5.334  0.2422 -0.0890 -2.1008
26691SOL     OW74911   3.338   0.981   2.800  0.4035  0.2648 -0.5144
26691SOL    HW174912   3.355   1.080   2.796  0.6722  0.2260 -0.3437
26691SOL    HW274913   3.307   0.957   2.892  0.4767  0.1661 -0.5161
26692SOL     OW74914   0.057   6.706   4.777  0.3520 -0.8069  0.1785
26692SOL    HW174915   0.044   6.698   4.876 -1.2253 -0.2965  0.0150
26692SOL    HW274916  -0.031   6.724   4.733  1.4173  1.4812 -1.0758
26693SOL     OW74917   0.127   5.025   1.649 -0.0802 -0.2970 -0.4527
26693SOL    HW174918   0.030   5.034   1.670 -0.0213  0.2190 -0.3705
26693SOL    HW274919   0.145   5.065   1.559  0.2612  0.7862  0.0793
26695SOL     OW74920   0.335   2.599   2.891  0.0740  0.0520 -0.3509
26695SOL    HW174921   0.314   2.532   2.962 -1.1736  0.6813 -0.1079
26695SOL    HW274922   0.396   2.669   2.928 -0.1013  0.0552 -0.0687
26696SOL     OW74923   9.980   3.493   6.190  0.1995 -0.2397 -0.1927
26696SOL    HW174924  10.020   3.543   6.113  0.6686  0.4890  0.5230
26696SOL    HW274925   9.923   3.418   6.154 -1.0515  1.2061 -1.2890
26697SOL     OW74926   3.706   6.643   5.080  0.1246 -0.0206 -0.0473
26697SOL    HW174927   3.715   6.544   5.071 -1.0878 -0.2778  1.3403
26697SOL    HW274928   3.614   6.671   5.053  0.4917  0.7585 -0.5341
26699SOL     OW74929   9.106   1.071   3.024  0.1866  0.0872  0.4119
26699SOL    HW174930   9.139   1.000   2.962  2.0867  2.0300 -0.8881
26699SOL    HW274931   9.148   1.059   3.114  0.7063 -0.3055  0.1181
26700SOL     OW74932   4.118   6.761   4.885 -0.6483  0.2258  0.1985
26700SOL    HW174933   4.157   6.779   4.975  1.0494  0.9432 -0.6753
26700SOL    HW274934   4.023   6.732   4.896  0.9264 -4.5763  2.5847
26701SOL     OW74935   4.355   3.839   5.644  0.1020  0.0217 -0.2714
26701SOL    HW174936   4.444   3.807   5.677 -0.1560 -1.4918 -0.9997
26701SOL    HW274937   4.284   3.811   5.709  0.1185  0.9987  0.1744
26703SOL     OW74938   9.339   4.263   1.179 -0.0845 -0.1216  1.0440
26703SOL    HW174939   9.308   4.191   1.241  1.5292 -1.7142  0.0627
26703SOL    HW274940   9.277   4.267   1.100  0.7837 -1.6684  0.2491
26709SOL     OW74941   2.770   5.896   1.140 -0.1642  0.4409  0.3304
26709SOL    HW174942   2.681   5.852   1.131  0.0581 -0.1967  1.1985
26709SOL    HW274943   2.798   5.935   1.052 -1.2548  0.5617  0.0404
26710SOL     OW74944   2.808   1.866   3.397 -0.2211 -0.6612  0.0262
26710SOL    HW174945   2.814   1.943   3.333 -1.3639  0.6433  1.4343
26710SOL    HW274946   2.897   1.820   3.402  0.6497  0.9232 -0.4028
26711SOL     OW74947   1.992   6.837   4.089  0.3720  0.7108 -0.5161
26711SOL    HW174948   2.067   6.894   4.054  0.2891 -0.0102 -1.9338
26711SOL    HW274949   2.029   6.750   4.121  0.3539  1.0776  0.5091
26712SOL     OW74950   8.578   3.668   5.879  0.8614  0.9492  0.2961
26712SOL    HW174951   8.553   3.682   5.975 -0.3644 -0.2177  0.1522
26712SOL    HW274952   8.654   3.730   5.855  0.8692  1.5699  1.8768
26713SOL     OW74953   2.893   2.956   5.154 -0.2293  0.4586  0.2370
26713SOL    HW174954   2.956   3.025   5.116  0.2551  0.1153  0.4133
26713SOL    HW274955   2.938   2.907   5.229 -0.0822 -0.9931 -0.7808
26714SOL     OW74956   0.567   7.855   2.947 -1.0704  0.8691 -0.3830
26714SOL    HW174957   0.620   7.920   2.893 -0.1013  0.4041 -0.0142
26714SOL    HW274958   0.475   7.891   2.962 -0.4590  2.2859  0.0586
26715SOL     OW74959   9.851   8.616   0.518 -0.0363 -0.1404 -0.4466
26715SOL    HW174960   9.755   8.596   0.495 -0.0748  2.2012 -2.5503
26715SOL    HW274961   9.857   8.642   0.614 -1.6108  0.1658 -0.4107
26716SOL     OW74962   2.389   4.937   1.096 -0.3472 -0.1710  0.2542
26716SOL    HW174963   2.346   4.992   1.025 -1.0390 -0.0607  0.7528
26716SOL    HW274964   2.457   4.876   1.054  0.4416  1.0621 -0.2920
26718SOL     OW74965   6.449   2.775   3.523  0.5337  0.8783 -0.3854
26718SOL    HW174966   6.432   2.716   3.444 -1.8299 -1.3540  1.6910
26718SOL    HW274967   6.546   2.799   3.527  1.6689 -3.2624 -1.0885
26719SOL     OW74968   7.422   9.189   1.933  0.6130 -0.5537 -0.7956
26719SOL    HW174969   7.366   9.244   1.871 -1.7110 -0.5221  1.2222
26719SOL    HW274970   7.396   9.093   1.923 -1.4248 -0.3138  1.6621
26721SOL     OW74971   5.782   9.561   5.993 -0.1827  0.4592 -0.4794
26721SOL    HW174972   5.713   9.625   5.959  1.1695  2.6596  0.7243
26721SOL    HW274973   5.762   9.469   5.961 -2.7454  1.3248 -1.4762
26722SOL     OW74974   3.330   5.371   3.620  0.4360 -0.1166 -0.1037
26722SOL    HW174975   3.284   5.432   3.685  1.4454  0.9064 -0.3296
26722SOL    HW274976   3.263   5.337   3.554 -0.1140  0.9329 -0.1009
26724SOL     OW74977   0.854   9.294   2.828  0.2918 -0.5219  0.3389
26724SOL    HW174978   0.837   9.234   2.907 -1.7583 -1.3032 -0.6594
26724SOL    HW274979   0.866   9.238   2.746  1.7998  0.3153 -0.0231
26725SOL     OW74980   4.068   5.229   7.676 -0.4353  0.2267  0.8980
26725SOL    HW174981   4.142   5.269   7.729 -0.1569  2.6527 -1.2472
26725SOL    HW274982   4.035   5.295   7.609 -0.7561 -2.7133 -1.9728
26726SOL     OW74983   7.502   0.849   1.461 -0.2934  0.2047 -0.5387
26726SOL    HW174984   7.513   0.938   1.507  0.7919 -0.5839  0.7822
26726SOL    HW274985   7.507   0.776   1.529 -0.0949 -0.9319 -1.7575
26727SOL     OW74986   8.305   4.653   6.171  0.5948  0.7036 -0.8739
26727SOL    HW174987   8.404   4.657   6.165  0.7433  0.4289  0.8993
26727SOL    HW274988   8.265   4.738   6.137  1.5168  1.3911 -0.2615
26728SOL     OW74989   6.460   1.322   6.348 -0.3848 -0.1893 -0.2813
26728SOL    HW174990   6.478   1.421   6.349  0.9230 -0.4297  0.7438
26728SOL    HW274991   6.445   1.292   6.254 -0.6435  0.9591 -0.6185
26729SOL     OW74992   9.411   9.162   6.251  0.0006 -0.0234  0.5212
26729SOL    HW174993   9.422   9.247   6.200 -0.7160 -0.1084  0.2170
26729SOL    HW274994   9.403   9.183   6.348 -0.6589  0.2917  0.3993
26731SOL     OW74995   0.008   1.027   6.044 -0.3982  0.0376  0.0720
26731SOL    HW174996   0.092   1.010   5.993 -0.1526  0.9223  0.1755
26731SOL    HW274997  -0.064   1.055   5.981 -0.6641 -0.8501 -0.0345
26732SOL     OW74998   9.028   8.151   0.542 -0.5051 -0.6310 -0.1022
26732SOL    HW174999   9.015   8.071   0.483  0.2119  0.5694 -1.9206
26732SOL    HW275000   9.121   8.150   0.578 -0.3637 -0.4080 -0.4570
26733SOL     OW75001   1.675   3.690   7.174 -0.3380 -0.0051 -0.4784
26733SOL    HW175002   1.631   3.779   7.178  2.8154  1.5843  0.4032
26733SOL    HW275003   1.732   3.684   7.092 -1.0860 -1.5150 -0.9148
26734SOL     OW75004   6.474   8.435   7.114  0.7663 -0.6048 -0.4979
26734SOL    HW175005   6.566   8.419   7.151  1.0430 -1.4335 -1.5197
26734SOL    HW275006   6.463   8.533   7.095  0.9920 -0.3247  0.7764
26735SOL     OW75007   3.176   5.458   0.645  0.3424 -0.0359  0.2202
26735SOL    HW175008   3.126   5.506   0.573  0.9113  0.8440  0.4128
26735SOL    HW275009   3.116   5.388   0.685 -0.3792  0.2792 -0.2877
26736SOL     OW75010   8.407   6.184   6.515 -0.1551 -0.0455  0.1815
26736SOL    HW175011   8.348   6.257   6.550 -0.1750  0.2791 -0.5230
26736SOL    HW275012   8.365   6.095   6.532  0.3046  0.0411  1.9068
26737SOL     OW75013   4.193   9.000   7.867 -0.1454  0.0168 -0.3970
26737SOL    HW175014   4.187   9.099   7.876  0.3542  0.1558 -1.4923
26737SOL    HW275015   4.101   8.961   7.862 -0.3730  0.2567  1.7040
26738SOL     OW75016   3.934   6.978   0.255 -0.5197 -0.1411  0.2018
26738SOL    HW175017   4.012   6.918   0.239 -1.0539 -1.6359  2.8446
26738SOL    HW275018   3.956   7.071   0.226  0.8394 -1.2861 -2.6502
26740SOL     OW75019   5.991   8.050   6.608 -0.1846 -0.1798  0.2786
26740SOL    HW175020   6.070   8.027   6.665  0.2559 -0.5485 -0.4734
26740SOL    HW275021   6.016   8.126   6.548 -0.3218 -0.4774 -0.1484
26741SOL     OW75022   7.641   7.675   5.689 -0.3441 -0.7661  0.2314
26741SOL    HW175023   7.630   7.672   5.590 -0.0121  0.9765  0.1175
26741SOL    HW275024   7.731   7.713   5.711 -1.6468  1.9292  1.1793
26742SOL     OW75025   2.008   6.336   5.405  0.6220 -1.0995 -0.4747
26742SOL    HW175026   2.019   6.401   5.330  1.5104  0.0104  0.6142
26742SOL    HW275027   1.990   6.385   5.490  0.7447 -2.3014  0.2591
26744SOL     OW75028   8.305   5.643   3.800  0.0930  0.3319 -0.2058
26744SOL    HW175029   8.346   5.683   3.718 -0.0766  0.6094 -0.1580
26744SOL    HW275030   8.220   5.596   3.775 -0.6001  1.4476 -0.0259
26745SOL     OW75031   4.516   4.710   1.720 -0.5746  0.2328  0.0714
26745SOL    HW175032   4.497   4.643   1.648  1.5197 -1.0694  0.6996
26745SOL    HW275033   4.438   4.713   1.782 -0.1635 -2.6794  0.8240
26746SOL     OW75034   3.462   9.327   6.471 -0.4184  0.2452 -0.4061
26746SOL    HW175035   3.520   9.289   6.543 -0.5991  0.8564  0.0649
26746SOL    HW275036   3.520   9.359   6.396 -0.0820  1.5526  0.3916
26748SOL     OW75037   6.950   3.997   3.195  0.3833  0.1689 -0.5763
26748SOL    HW175038   6.974   3.934   3.269 -1.6667  1.9632  1.6753
26748SOL    HW275039   6.981   4.089   3.218 -1.7700  1.0680 -1.1439
26750SOL     OW75040   7.227   2.573   2.391 -0.2582 -0.1447  0.8031
26750SOL    HW175041   7.152   2.551   2.328 -1.6684 -0.5538  2.5833
26750SOL    HW275042   7.200   2.650   2.449  0.8448 -0.0664  1.2165
26751SOL     OW75043   3.436   2.972   0.496 -0.1775  0.2790  0.0126
26751SOL    HW175044   3.448   3.067   0.523  0.7236  0.0613  0.3833
26751SOL    HW275045   3.523   2.923   0.507 -0.5083 -0.4603 -0.6553
26752SOL     OW75046   4.300   4.892   4.138  0.4509 -0.8754  0.0088
26752SOL    HW175047   4.203   4.888   4.114  0.4835 -1.0230 -0.1013
26752SOL    HW275048   4.345   4.960   4.080  0.1483  0.1771  0.9790
26753SOL     OW75049   7.461   0.171   4.338 -0.2823 -0.5127  0.0783
26753SOL    HW175050   7.416   0.148   4.252 -1.1117 -0.1692  0.4151
26753SOL    HW275051   7.430   0.109   4.410 -1.1951  0.5384  0.5960
26754SOL     OW75052   3.770   8.982   0.525  0.1185 -0.0572 -0.1423
26754SOL    HW175053   3.713   9.057   0.558  2.1914  0.8882  1.4719
26754SOL    HW275054   3.743   8.897   0.570 -1.2113  0.0258 -0.7859
26755SOL     OW75055   3.857   9.240   0.946  0.7266 -0.2349 -0.4320
26755SOL    HW175056   3.790   9.295   0.995  1.9098 -1.0697  2.2304
26755SOL    HW275057   3.936   9.296   0.922  0.9164 -0.2359  0.1983
26756SOL     OW75058   9.703   3.448   4.242 -0.2700 -0.1537  0.6667
26756SOL    HW175059   9.670   3.372   4.299 -1.4418  0.8607  1.3638
26756SOL    HW275060   9.797   3.471   4.268  0.2442 -1.6439  0.1565
26757SOL     OW75061   2.677   8.402   7.702  0.6371  0.0381  0.2401
26757SOL    HW175062   2.648   8.483   7.651 -1.3763 -0.6189  0.2970
26757SOL    HW275063   2.641   8.407   7.795 -2.3343 -2.4325 -0.6957
26758SOL     OW75064   7.534   4.823   7.362  0.5873 -0.2594  0.0078
26758SOL    HW175065   7.521   4.766   7.281 -0.4918  0.1331 -0.0950
26758SOL    HW275066   7.464   4.894   7.365  2.6295  1.8533 -0.5429
26759SOL     OW75067   7.433   5.642   7.424 -0.5454 -0.0321 -0.0472
26759SOL    HW175068   7.400   5.694   7.345  0.9338  0.5737 -0.2749
26759SOL    HW275069   7.478   5.704   7.488 -0.9833 -0.6583  0.8781
26762SOL     OW75070   9.701   0.647   6.112 -0.2345 -0.4267  0.2567
26762SOL    HW175071   9.775   0.707   6.144 -0.2441 -0.7346  0.8625
26762SOL    HW275072   9.735   0.590   6.037 -0.5563  1.1501 -1.1201
26763SOL     OW75073   9.644   0.190   5.848  0.0202  0.4743  0.8891
26763SOL    HW175074   9.564   0.214   5.793  0.1510 -0.5056  0.2568
26763SOL    HW275075   9.679   0.101   5.820  1.6470  1.1048  0.8133
26764SOL     OW75076   7.631   1.610   1.291  0.0862 -0.5330  0.1504
26764SOL    HW175077   7.706   1.579   1.349  0.0836  3.0953  2.2789
26764SOL    HW275078   7.546   1.611   1.345 -1.0808 -2.4416 -1.5849
26765SOL     OW75079   8.806   5.272   7.202 -0.0800 -0.2540  0.2818
26765SOL    HW175080   8.853   5.334   7.266  0.1887 -1.1366  0.9485
26765SOL    HW275081   8.723   5.316   7.167 -0.5279  0.0242  1.6709
26766SOL     OW75082   0.859   2.730   5.660 -0.2198 -0.1659 -0.1749
26766SOL    HW175083   0.929   2.791   5.623  1.1486 -0.9593  1.0733
26766SOL    HW275084   0.844   2.751   5.757  0.3964 -1.9060  0.3132
26768SOL     OW75085   4.728   2.813   1.223 -0.9334  0.5915 -0.0896
26768SOL    HW175086   4.629   2.808   1.213 -1.0423 -1.2414  1.5958
26768SOL    HW275087   4.772   2.760   1.150 -1.2624 -0.4076  0.4329
26770SOL     OW75088   4.747   8.526   3.980 -0.3266  0.2170 -0.6128
26770SOL    HW175089   4.686   8.602   3.957 -0.8403 -0.0238 -0.0541
26770SOL    HW275090   4.736   8.502   4.076 -1.5336 -1.7708 -1.2111
26771SOL     OW75091   8.908   0.376   7.384  0.3478  0.3438  0.4521
26771SOL    HW175092   8.890   0.379   7.285 -3.9553  2.0642  1.1723
26771SOL    HW275093   8.909   0.280   7.414 -1.1599 -0.1208 -0.8712
26772SOL     OW75094   1.880   2.097   3.561  0.3573  0.0753  0.1534
26772SOL    HW175095   1.968   2.105   3.513 -0.1749  2.0841 -0.5579
26772SOL    HW275096   1.811   2.152   3.513 -2.1994 -4.1340 -1.2976
26773SOL     OW75097   2.637   9.129   2.930 -0.0081 -0.0825 -0.2651
26773SOL    HW175098   2.590   9.116   2.842  1.2650 -0.5948 -0.8721
26773SOL    HW275099   2.569   9.129   3.003 -1.0742  0.2081 -1.2292
26774SOL     OW75100   7.385   0.524   6.020  0.5302  0.4402 -0.2645
26774SOL    HW175101   7.459   0.519   5.953  0.9079 -0.7481  0.2051
26774SOL    HW275102   7.424   0.522   6.112 -0.0761  0.0236 -0.0126
26775SOL     OW75103   2.633   0.318   4.797  0.0415  0.5989  0.0193
26775SOL    HW175104   2.559   0.306   4.862  0.2395  0.2920  0.1886
26775SOL    HW275105   2.612   0.268   4.713 -0.5777  1.6327 -0.4549
26776SOL     OW75106   1.239   8.112   2.009 -0.6934 -0.5031 -0.0492
26776SOL    HW175107   1.278   8.046   2.074 -0.9297 -2.5798 -1.9465
26776SOL    HW275108   1.311   8.144   1.947 -0.9468 -0.4324 -0.3112
26777SOL     OW75109   1.746   9.482   5.439  0.3943 -0.0780 -0.0461
26777SOL    HW175110   1.790   9.418   5.502  0.6145  1.2861  1.2193
26777SOL    HW275111   1.717   9.564   5.490 -1.6830 -0.0290 -1.2451
26778SOL     OW75112   9.610   0.604   3.689  0.2843 -0.0453 -0.1078
26778SOL    HW175113   9.691   0.636   3.638 -1.5073  0.8312 -2.4914
26778SOL    HW275114   9.569   0.680   3.738  0.6034 -0.3958  0.7158
26779SOL     OW75115   8.257   0.805   5.651 -0.1620  0.1470 -0.2064
26779SOL    HW175116   8.339   0.776   5.701  0.4914  0.3263 -1.1570
26779SOL    HW275117   8.197   0.726   5.636  0.3942 -0.2149 -0.5374
26781SOL     OW75118   5.577   1.258   5.573 -0.8335 -0.3444  0.1171
26781SOL    HW175119   5.533   1.229   5.488 -0.7779 -3.7346  1.1755
26781SOL    HW275120   5.507   1.285   5.639 -1.1106 -1.3922  0.2659
26783SOL     OW75121   1.483   1.447   7.644 -0.2440  0.2152 -0.3839
26783SOL    HW175122   1.553   1.376   7.642  0.7865  1.2057 -0.2151
26783SOL    HW275123   1.398   1.413   7.602  0.1099 -1.2281  0.0710
26784SOL     OW75124   7.385   1.866   7.863 -0.4667 -0.1507  0.2585
26784SOL    HW175125   7.431   1.866   7.774 -0.3311 -0.8154  0.3236
26784SOL    HW275126   7.453   1.871   7.936 -0.5392 -0.3330  0.3389
26785SOL     OW75127   9.290   5.051   3.369  0.1662 -0.1660  0.8744
26785SOL    HW175128   9.252   5.038   3.461 -0.7193  3.7149  1.1458
26785SOL    HW275129   9.239   5.123   3.322  1.0937 -1.5540 -2.4333
26786SOL     OW75130   0.192   9.615   0.871  0.1196  0.1213  0.5929
26786SOL    HW175131   0.282   9.596   0.910  0.2719  0.1292  0.2396
26786SOL    HW275132   0.123   9.612   0.944  0.5737  1.3901  1.0823
26787SOL     OW75133   1.417   1.909   2.634 -0.1774  0.0831 -0.1659
26787SOL    HW175134   1.330   1.956   2.641  0.2644  0.9246 -0.3167
26787SOL    HW275135   1.424   1.840   2.707  0.0347  1.6592  1.3191
26788SOL     OW75136   9.376   8.805   5.436  0.3223  0.3094  0.2888
26788SOL    HW175137   9.429   8.888   5.415  0.3789  0.3517  0.5968
26788SOL    HW275138   9.377   8.789   5.535  1.2063 -0.6530  0.1360
26789SOL     OW75139   0.372   8.129   5.081 -0.0918  0.3812 -0.2733
26789SOL    HW175140   0.422   8.170   5.157 -0.2502  0.6972 -0.3383
26789SOL    HW275141   0.437   8.098   5.011  0.0258  0.6489 -0.2858
26791SOL     OW75142   5.255   2.814   1.822  0.1982  0.5603 -0.5185
26791SOL    HW175143   5.342   2.858   1.845  1.3216 -1.5720 -0.5690
26791SOL    HW275144   5.214   2.776   1.905  0.7555 -0.9704 -0.9375
26792SOL     OW75145   5.010   1.676   6.307 -0.6713  0.3364 -0.0209
26792SOL    HW175146   5.099   1.691   6.263 -0.2953 -1.3295  0.1680
26792SOL    HW275147   5.020   1.613   6.383 -2.5538 -2.3880 -1.9554
26793SOL     OW75148   6.800   9.196   5.894  0.3797 -0.0914  0.2232
26793SOL    HW175149   6.709   9.178   5.857  0.8014 -0.4289 -0.6430
26793SOL    HW275150   6.856   9.239   5.824  0.5253  1.1964  1.1260
26794SOL     OW75151   0.905   0.842   6.666 -0.1171 -0.6241  0.3826
26794SOL    HW175152   0.861   0.931   6.655 -0.3458 -0.8636 -0.7189
26794SOL    HW275153   0.997   0.855   6.703 -0.3859  0.0223  0.8378
26795SOL     OW75154   1.305   7.313   1.594 -0.2855 -0.5139 -0.0745
26795SOL    HW175155   1.223   7.355   1.632 -1.4135 -1.8668 -1.0027
26795SOL    HW275156   1.348   7.254   1.662 -0.6943 -0.6731  0.0399
26796SOL     OW75157   1.693   3.973   2.793  0.1926  0.4203  0.2056
26796SOL    HW175158   1.626   3.943   2.861 -0.5741  1.0464 -0.2680
26796SOL    HW275159   1.693   3.909   2.716  0.2053  0.3793  0.2393
26797SOL     OW75160   7.126   0.573   0.796 -0.1909 -0.4235  0.4724
26797SOL    HW175161   7.125   0.560   0.895 -3.0574 -1.3705  0.3663
26797SOL    HW275162   7.168   0.493   0.752 -2.1822 -1.6352  0.7491
26798SOL     OW75163   7.106   3.768   1.575 -0.1996  0.0898 -0.3991
26798SOL    HW175164   7.119   3.768   1.476 -0.2873 -1.0313 -0.4146
26798SOL    HW275165   7.179   3.716   1.618  2.3409  4.1840  0.4969
26800SOL     OW75166   9.488   2.090   1.535  0.0574  0.3199 -0.2327
26800SOL    HW175167   9.496   2.028   1.457  1.0559  0.4144 -0.2143
26800SOL    HW275168   9.451   2.041   1.614  0.5830 -0.1936 -0.2973
26801SOL     OW75169   8.795   7.927   7.671  0.0062  0.2182 -0.4068
26801SOL    HW175170   8.786   7.919   7.572 -0.5538  0.4467 -0.3738
26801SOL    HW275171   8.712   7.967   7.709  0.7725  1.4177  0.0064
26803SOL     OW75172   8.683   7.582   6.783 -0.2147  0.0044  0.0076
26803SOL    HW175173   8.740   7.501   6.770 -1.5509 -0.9590  0.0043
26803SOL    HW275174   8.625   7.595   6.702 -1.4122 -0.2140  0.8050
26804SOL     OW75175   8.308   5.391   6.171  0.1628 -0.3913  0.8499
26804SOL    HW175176   8.329   5.325   6.099 -0.5530 -0.8063  1.0155
26804SOL    HW275177   8.390   5.444   6.193  0.8826 -1.5760  1.0802
26805SOL     OW75178   3.408   0.180   1.109 -0.1230  0.3509  0.0237
26805SOL    HW175179   3.457   0.199   1.024 -0.5876 -1.3845 -0.6553
26805SOL    HW275180   3.474   0.172   1.184  0.3028  1.7191 -0.1944
26807SOL     OW75181   9.284   0.440   4.733  0.1121 -0.2980  0.5851
26807SOL    HW175182   9.292   0.342   4.749  0.1116 -0.6387 -1.4498
26807SOL    HW275183   9.367   0.486   4.766  0.4844 -1.0710  0.7187
26808SOL     OW75184   8.756   5.941   5.297 -0.4266  0.0174  0.8320
26808SOL    HW175185   8.811   6.025   5.294 -1.5660  0.7363 -0.3890
26808SOL    HW275186   8.808   5.869   5.344  1.9762  0.3576 -1.2198
26809SOL     OW75187   9.031   2.683   4.470 -0.0448 -0.1351 -0.3346
26809SOL    HW175188   8.949   2.626   4.474 -0.1462  0.1162  1.6621
26809SOL    HW275189   9.108   2.634   4.509  0.3004  0.3928 -0.3424
26810SOL     OW75190   0.577   0.618   1.966 -0.4186  0.1658 -0.5031
26810SOL    HW175191   0.478   0.635   1.957 -0.5632 -0.4535 -0.1165
26810SOL    HW275192   0.598   0.596   2.061  0.2420  1.1921 -0.4023
26812SOL     OW75193   9.347   1.611   6.107  0.1539  0.1690  0.0255
26812SOL    HW175194   9.408   1.640   6.181  3.0526  0.3037 -2.3338
26812SOL    HW275195   9.343   1.683   6.038 -1.4927 -0.5000 -0.5985
26813SOL     OW75196   8.450   1.977   5.513 -0.0755 -0.0227 -0.0579
26813SOL    HW175197   8.371   1.931   5.472 -0.7540  0.6785  0.4373
26813SOL    HW275198   8.528   1.972   5.451 -0.5756 -0.5213 -0.6535
26814SOL     OW75199   8.432   7.717   3.974  0.2775 -0.4503  0.1873
26814SOL    HW175200   8.400   7.810   3.953 -0.9306 -0.9427 -0.1972
26814SOL    HW275201   8.379   7.651   3.921 -0.6349 -1.5155  2.3451
26816SOL     OW75202   9.341   6.798   0.042 -0.0586  0.0240 -0.0862
26816SOL    HW175203   9.299   6.769  -0.044 -1.0916 -1.3536  0.8631
26816SOL    HW275204   9.279   6.859   0.090  1.0707  1.8499 -0.9096
26817SOL     OW75205   7.498   3.977   0.496 -0.0847  0.7373 -0.1215
26817SOL    HW175206   7.582   3.948   0.449 -0.7552 -0.3318 -0.6740
26817SOL    HW275207   7.424   3.915   0.473 -0.3707  0.0162  2.5816
26818SOL     OW75208   1.743   7.313   4.344 -0.0004 -0.1006 -0.2233
26818SOL    HW175209   1.686   7.235   4.317  1.1932 -0.7300 -0.9792
26818SOL    HW275210   1.812   7.282   4.410 -1.7567  1.0616  2.2276
26819SOL     OW75211   0.738   0.449   7.058  0.5990 -0.7903 -0.2149
26819SOL    HW175212   0.825   0.486   7.091  0.2293 -0.3990  0.3197
26819SOL    HW275213   0.666   0.466   7.125  0.0095 -0.7055 -0.8614
26820SOL     OW75214   6.035   3.145   0.893 -0.5860 -0.0280  0.4400
26820SOL    HW175215   6.039   3.224   0.831  0.3108  1.0247  1.7849
26820SOL    HW275216   5.974   3.166   0.969 -2.4858 -1.7037 -0.5848
26821SOL     OW75217   5.426   0.500   7.546  0.0614  0.5418 -0.7959
26821SOL    HW175218   5.355   0.497   7.616  0.4628 -0.2434 -0.4119
26821SOL    HW275219   5.515   0.480   7.588  0.4118  0.8608 -1.3847
26823SOL     OW75220   5.104   2.029   5.479 -0.7498 -0.4021  0.3412
26823SOL    HW175221   5.111   2.108   5.540 -0.1424  0.1904 -0.4918
26823SOL    HW275222   5.054   2.054   5.396 -0.4373 -0.8481  0.0126
26824SOL     OW75223   3.269   9.937   7.096 -0.3399 -0.1619 -0.1421
26824SOL    HW175224   3.250  10.034   7.087  1.2589  0.1980  0.1703
26824SOL    HW275225   3.331   9.908   7.023 -0.2768 -0.7919  0.1576
26825SOL     OW75226   3.317   6.361   2.836  0.0886 -0.6453 -0.3785
26825SOL    HW175227   3.295   6.319   2.748  2.8192  1.5923 -2.2381
26825SOL    HW275228   3.411   6.337   2.862 -0.4278 -0.6558  1.5521
26826SOL     OW75229   0.025   1.942   3.837 -0.1927 -0.3913 -0.2599
26826SOL    HW175230  -0.006   1.998   3.913  1.9897  1.8355 -0.9380
26826SOL    HW275231  -0.053   1.916   3.780 -1.6728 -1.0271  2.0191
26827SOL     OW75232   3.856   6.774   5.518  0.9085 -0.5997  0.4113
26827SOL    HW175233   3.822   6.859   5.558  0.4838 -0.8926  0.6823
26827SOL    HW275234   3.851   6.781   5.418  2.0566  0.1617  0.3921
26829SOL     OW75235   4.151   0.117   0.070  0.4828 -0.6907 -0.0922
26829SOL    HW175236   4.201   0.120  -0.016  0.8151 -1.7049  0.0589
26829SOL    HW275237   4.215   0.136   0.145  0.4423 -0.9970  0.0212
26830SOL     OW75238   4.713   0.355   2.562 -0.2156  0.3970 -0.4927
26830SOL    HW175239   4.703   0.439   2.508 -3.1627  0.9913  0.9086
26830SOL    HW275240   4.655   0.283   2.523  0.1532 -0.1461 -0.0440
26832SOL     OW75241   3.466   9.120   7.157  0.4175  0.0246  0.6303
26832SOL    HW175242   3.456   9.211   7.196 -1.1364 -0.4898  1.4620
26832SOL    HW275243   3.377   9.074   7.158  1.6480 -2.3821  2.3828
26833SOL     OW75244   7.713   1.764   1.095  0.1218 -0.0865 -0.2814
26833SOL    HW175245   7.680   1.706   1.170  2.1409  0.8974  1.4074
26833SOL    HW275246   7.675   1.856   1.105  0.7050  0.1503 -0.2190
26835SOL     OW75247   1.683   5.388   6.255  0.0067 -0.4183  0.1931
26835SOL    HW175248   1.696   5.385   6.156 -0.4734  1.6540  0.0331
26835SOL    HW275249   1.770   5.368   6.300  0.9417  1.4081 -0.7040
26836SOL     OW75250   3.492   7.515   3.217 -0.4128 -0.2999  0.0116
26836SOL    HW175251   3.495   7.445   3.288  0.1422 -0.1140  0.1755
26836SOL    HW275252   3.573   7.509   3.160 -0.2648  0.3317  0.1477
26837SOL     OW75253   4.680   5.001   2.451 -0.1939  0.3779  0.0140
26837SOL    HW175254   4.733   5.083   2.469 -1.6864  1.3798 -0.0421
26837SOL    HW275255   4.713   4.926   2.508  0.2132  1.4159  1.1532
26838SOL     OW75256   2.791   9.180   1.860  0.0311  0.1161 -0.5379
26838SOL    HW175257   2.695   9.206   1.869  0.4517  1.3113  0.5736
26838SOL    HW275258   2.839   9.201   1.945  1.3951  0.0702 -1.2939
26839SOL     OW75259   8.338   2.938   4.913  0.0903  0.4833  0.1357
26839SOL    HW175260   8.250   2.894   4.899 -0.4550  1.3986  0.5862
26839SOL    HW275261   8.337   3.029   4.872  1.1146  0.1872 -0.5704
26840SOL     OW75262   1.278   0.631   4.542  0.4191 -0.6159  0.0702
26840SOL    HW175263   1.221   0.670   4.469  0.7905 -0.0885  0.0596
26840SOL    HW275264   1.226   0.562   4.592 -0.4639  0.3434  0.4938
26841SOL     OW75265   2.655   8.078   4.877  0.7519 -0.0840 -0.2488
26841SOL    HW175266   2.644   8.123   4.965  0.0187 -0.3042 -0.2248
26841SOL    HW275267   2.751   8.051   4.865  0.8258 -0.1758  0.5358
26844SOL     OW75268   7.662   6.049   6.980  0.3130 -0.3800  0.1842
26844SOL    HW175269   7.653   6.128   7.040 -0.5675 -1.1314  1.0580
26844SOL    HW275270   7.669   5.966   7.035  1.3109 -0.9192 -0.7200
26847SOL     OW75271   4.517   5.670   2.146  0.0137  0.2841  0.1560
26847SOL    HW175272   4.502   5.591   2.204 -0.8346  0.6648  0.4595
26847SOL    HW275273   4.469   5.658   2.059  1.2949 -0.2929 -0.4792
26848SOL     OW75274   0.194   1.729   5.876 -0.4274 -0.6968  0.0029
26848SOL    HW175275   0.191   1.686   5.786 -0.2050  0.8095 -0.7460
26848SOL    HW275276   0.276   1.700   5.925 -0.4016 -1.2966 -0.3986
26849SOL     OW75277   9.523   1.480   3.748 -0.5615  0.1271  0.0400
26849SOL    HW175278   9.533   1.554   3.682  0.4133 -1.1829 -1.3039
26849SOL    HW275279   9.468   1.406   3.709  0.0631 -0.6820  0.6628
26850SOL     OW75280   4.619   8.671   3.533  0.1870 -0.3311  0.0947
26850SOL    HW175281   4.556   8.680   3.610 -2.1035 -3.5175 -1.3155
26850SOL    HW275282   4.713   8.671   3.567 -0.7073  0.5882  2.6463
26851SOL     OW75283   9.260   7.120   7.425 -0.0104 -0.0268  0.0525
26851SOL    HW175284   9.321   7.094   7.350  0.1079 -0.1945  0.2065
26851SOL    HW275285   9.213   7.039   7.460  0.9257 -0.1540  1.0337
26853SOL     OW75286   9.480   6.026   0.273  0.0187 -0.4468 -0.2626
26853SOL    HW175287   9.425   5.959   0.223 -0.2788 -0.1515 -0.3308
26853SOL    HW275288   9.432   6.053   0.356  0.7153 -1.2702  0.4202
26854SOL     OW75289   7.935   3.078   3.889 -0.3559  0.7077 -0.4402
26854SOL    HW175290   7.876   3.117   3.959 -0.0726 -2.8670  1.9664
26854SOL    HW275291   8.031   3.099   3.911 -0.3202  0.2626 -0.1415
26855SOL     OW75292   2.255   3.057   4.663 -0.1261 -0.2532 -0.0006
26855SOL    HW175293   2.158   3.080   4.662 -0.2328 -0.6924  0.1237
26855SOL    HW275294   2.291   3.060   4.569 -0.0436  0.7833  0.0523
26856SOL     OW75295   3.292   3.727   0.180 -0.4422 -0.2552 -0.0630
26856SOL    HW175296   3.303   3.703   0.084  0.0181  0.3855 -0.1699
26856SOL    HW275297   3.215   3.789   0.191 -1.7744 -1.9074  0.2427
26858SOL     OW75298   7.964   8.467   3.703  0.2255  0.4360 -0.0643
26858SOL    HW175299   8.050   8.455   3.751 -0.3226  0.4027  0.9276
26858SOL    HW275300   7.902   8.523   3.758 -0.9335 -0.8101 -0.0559
26859SOL     OW75301   3.029   3.680   1.480  0.4481 -0.4078 -0.7268
26859SOL    HW175302   3.051   3.699   1.384  1.5818 -0.5033 -0.4970
26859SOL    HW275303   3.109   3.641   1.525 -0.1361 -0.5340  0.2202
26861SOL     OW75304   8.502   7.648   4.385 -0.3975  0.1481  0.3496
26861SOL    HW175305   8.481   7.724   4.324 -0.5748 -1.2702 -1.3910
26861SOL    HW275306   8.472   7.670   4.478 -3.4826  0.8640 -0.7678
26862SOL     OW75307   0.125   3.516   0.287 -0.6410  0.2755 -0.4116
26862SOL    HW175308   0.211   3.503   0.238 -0.0500  1.7078  0.2127
26862SOL    HW275309   0.105   3.614   0.294 -1.7677 -0.0042  0.3969
26864SOL     OW75310   9.599   8.462   1.758  0.4256  0.2483  0.0011
26864SOL    HW175311   9.612   8.367   1.729 -1.3906  0.3161 -1.1389
26864SOL    HW275312   9.683   8.496   1.799  0.8272 -2.1400  1.2780
26865SOL     OW75313   9.797   1.361   3.084 -0.1679 -0.4664 -0.1371
26865SOL    HW175314   9.868   1.343   3.151 -0.0572  0.3637 -0.0266
26865SOL    HW275315   9.732   1.428   3.120  0.8293  1.2777 -1.4820
26866SOL     OW75316   3.866   5.739   7.197  0.0203 -0.8310  0.1320
26866SOL    HW175317   3.923   5.744   7.279 -0.0929 -0.2304  0.1744
26866SOL    HW275318   3.876   5.648   7.155  1.1520 -0.6738  0.0419
26867SOL     OW75319   4.204   7.655   2.166  0.1206  0.1105  0.3000
26867SOL    HW175320   4.200   7.649   2.266  0.1434  1.7231  0.4166
26867SOL    HW275321   4.298   7.668   2.137  0.2576 -1.4823 -0.0231
26868SOL     OW75322   8.012   1.380   6.175  0.2555  0.1953 -0.1188
26868SOL    HW175323   8.022   1.385   6.275 -0.5582  2.2923 -0.1201
26868SOL    HW275324   8.102   1.378   6.133  0.6261  1.5334  0.5821
26869SOL     OW75325   5.039   4.961   2.323  0.3545 -0.1414  0.3272
26869SOL    HW175326   5.088   5.046   2.303 -0.0701 -0.2311 -1.1579
26869SOL    HW275327   4.995   4.968   2.412 -0.0459  1.3680  0.0294
26870SOL     OW75328   4.647   4.301   0.784  0.0010 -0.1708 -0.1849
26870SOL    HW175329   4.657   4.395   0.817 -1.4457  0.1768 -0.7001
26870SOL    HW275330   4.723   4.280   0.722 -0.6257  1.3097 -1.5247
26871SOL     OW75331   8.208   3.473   5.308  0.1496 -0.0767 -0.0643
26871SOL    HW175332   8.244   3.409   5.240 -0.6947  0.0835 -0.6726
26871SOL    HW275333   8.114   3.448   5.330  0.4584 -0.1955  1.1403
26873SOL     OW75334   3.466   8.630   0.268  0.6407  0.2818 -0.0588
26873SOL    HW175335   3.416   8.621   0.181  0.4546  0.2366  0.0516
26873SOL    HW275336   3.417   8.695   0.327 -0.3585 -1.2365  0.8089
26874SOL     OW75337   9.665   8.919   4.443 -0.1347  0.5714 -0.7929
26874SOL    HW175338   9.673   8.893   4.539 -2.4547 -1.0396 -0.9885
26874SOL    HW275339   9.738   8.877   4.390  1.5156  1.9600  0.3400
26876SOL     OW75340   3.458   6.568   7.121 -0.4810 -0.0717 -0.3695
26876SOL    HW175341   3.503   6.576   7.209 -0.2412  0.1236 -0.5086
26876SOL    HW275342   3.401   6.649   7.105 -2.5283 -1.2563  0.7261
26878SOL     OW75343   7.360   2.577   2.161 -0.3012  0.1777 -0.0053
26878SOL    HW175344   7.317   2.575   2.251 -1.7385  0.8680 -0.6589
26878SOL    HW275345   7.423   2.500   2.152  0.9119  0.8828  2.0928
26880SOL     OW75346   0.177   4.843   2.592  0.0438 -0.0515 -0.6290
26880SOL    HW175347   0.140   4.808   2.505 -0.2695 -1.0153 -0.1099
26880SOL    HW275348   0.270   4.876   2.577  0.7779 -2.1595 -0.9037
26882SOL     OW75349   7.697   6.171   7.354 -1.1143 -0.0300 -0.2539
26882SOL    HW175350   7.693   6.211   7.263  0.5556 -1.8200 -1.1520
26882SOL    HW275351   7.682   6.072   7.348  0.6201 -0.4081  1.2043
26885SOL     OW75352   0.834   6.314   2.757 -0.0735 -0.0340  0.0918
26885SOL    HW175353   0.827   6.410   2.785 -0.7161 -0.0685  0.0753
26885SOL    HW275354   0.920   6.299   2.708 -0.2857  0.7061 -0.5261
26886SOL     OW75355   2.480   2.373   1.656  0.5730 -0.4053  0.1060
26886SOL    HW175356   2.524   2.363   1.566 -1.7250 -1.4708 -0.9493
26886SOL    HW275357   2.523   2.311   1.721 -0.5726 -2.9113 -1.4095
26887SOL     OW75358   0.554   9.831   4.672 -0.3009 -0.2957 -0.2650
26887SOL    HW175359   0.469   9.879   4.647 -1.4145 -1.5735  0.9529
26887SOL    HW275360   0.534   9.734   4.687  1.8602 -1.0953 -2.3416
26888SOL     OW75361   2.003   1.085   6.881 -0.0965  0.2352  0.2539
26888SOL    HW175362   1.973   1.025   6.806 -0.1468  0.7949 -0.1846
26888SOL    HW275363   1.953   1.063   6.964 -2.6060  1.8943 -0.7420
26889SOL     OW75364   4.419   2.066   1.719 -0.8311 -0.6331  0.1641
26889SOL    HW175365   4.381   2.156   1.740 -0.0837 -0.3140  0.1511
26889SOL    HW275366   4.348   2.009   1.676 -1.1460  0.1222 -0.3154
26890SOL     OW75367   3.385   5.806   7.292  0.0658  0.1157 -0.6488
26890SOL    HW175368   3.424   5.793   7.384  0.4368  0.7798 -0.7136
26890SOL    HW275369   3.294   5.764   7.289 -0.0798  0.3548  0.1221
26892SOL     OW75370   0.619   0.021   2.405  0.6471 -0.3434 -0.0968
26892SOL    HW175371   0.535   0.066   2.375  0.8376 -1.3749 -2.2989
26892SOL    HW275372   0.607  -0.014   2.498 -1.2213 -0.1443 -0.2483
26893SOL     OW75373   8.083   4.893   1.657  0.2856  0.6335 -0.2704
26893SOL    HW175374   8.087   4.855   1.565  2.9267  2.6281 -1.0432
26893SOL    HW275375   8.160   4.859   1.711 -0.4710  0.5377  0.7713
26894SOL     OW75376   9.799   9.737   2.289 -0.1138 -0.0569 -0.5830
26894SOL    HW175377   9.772   9.699   2.378 -0.6559 -0.0748 -0.7519
26894SOL    HW275378   9.717   9.758   2.236  0.1529  2.1504 -0.1764
26895SOL     OW75379   1.417   3.972   7.926  0.1295  0.3896  0.0192
26895SOL    HW175380   1.410   3.893   7.865 -1.7158  0.4975  0.0498
26895SOL    HW275381   1.421   4.056   7.871  0.6978  0.3596  0.0133
26896SOL     OW75382   9.603   6.197   3.406 -0.7844  0.4319 -0.1927
26896SOL    HW175383   9.576   6.236   3.318 -2.6417 -0.8680 -0.2313
26896SOL    HW275384   9.692   6.153   3.397  0.5072  3.0557 -0.5910
26898SOL     OW75385   8.637   3.385   4.160  0.1395  0.5455 -0.1771
26898SOL    HW175386   8.607   3.306   4.107 -0.8217  0.3375  0.6576
26898SOL    HW275387   8.730   3.370   4.193  0.0587 -0.1206 -0.2557
26899SOL     OW75388   8.164   8.801   3.298 -0.4716  0.1565  0.0361
26899SOL    HW175389   8.199   8.882   3.251 -1.4046  0.7185  0.2908
26899SOL    HW275390   8.136   8.826   3.391 -1.2801 -0.3387 -0.0707
26900SOL     OW75391   8.486   0.111   6.340 -0.2105 -0.1240  0.3781
26900SOL    HW175392   8.543   0.136   6.418 -1.7054  0.4108  1.3399
26900SOL    HW275393   8.435   0.027   6.362 -1.9916  1.0100  0.7268
26901SOL     OW75394   5.520   3.739   2.417 -0.2522 -0.2497  0.2292
26901SOL    HW175395   5.488   3.830   2.389  1.0035  0.3489  0.7040
26901SOL    HW275396   5.592   3.709   2.355  0.2590 -0.3408  0.8663
26902SOL     OW75397   0.086   3.897   3.793  0.2926 -0.7541 -0.6768
26902SOL    HW175398   0.076   3.884   3.891  0.3926 -1.6771 -0.7776
26902SOL    HW275399   0.034   3.826   3.745  1.1613 -0.9957 -1.2713
26903SOL     OW75400   5.899   4.876   2.354  0.0856 -0.0851  0.5988
26903SOL    HW175401   5.887   4.793   2.300  2.1447  0.1594 -0.2677
26903SOL    HW275402   5.940   4.853   2.442 -1.1036 -0.1958  1.1371
26904SOL     OW75403   6.289   8.691   3.845  0.2566  0.0669  0.1469
26904SOL    HW175404   6.303   8.605   3.795 -0.6430  1.4844 -2.6942
26904SOL    HW275405   6.365   8.752   3.827 -0.0463  0.5698  0.5729
26906SOL     OW75406   0.145   6.697   1.316 -0.4543 -0.4652  0.1969
26906SOL    HW175407   0.061   6.751   1.305 -1.5413 -2.4167 -1.2610
26906SOL    HW275408   0.138   6.612   1.264  1.9660 -1.2173  1.0183
26907SOL     OW75409   3.207   3.266   3.053 -0.3195 -0.0858  0.6777
26907SOL    HW175410   3.221   3.355   3.010 -1.0796 -0.1868  0.2149
26907SOL    HW275411   3.282   3.204   3.028 -0.8629 -0.2067 -0.6718
26908SOL     OW75412   5.097   2.909   7.651  0.0376 -0.2456 -0.2582
26908SOL    HW175413   5.045   2.887   7.569 -0.6507  0.7640 -0.1008
26908SOL    HW275414   5.047   2.880   7.732  0.4771 -0.7610 -0.1627
26909SOL     OW75415   0.980   5.873   6.610  0.2877 -0.1692 -0.1468
26909SOL    HW175416   0.897   5.828   6.578  0.5966  0.8229 -2.3843
26909SOL    HW275417   1.059   5.832   6.565  0.8403  0.4272  0.2756
26910SOL     OW75418   2.797   3.503   1.066  0.1725  0.2003  0.4220
26910SOL    HW175419   2.745   3.542   1.142 -0.3888  1.0869 -0.3930
26910SOL    HW275420   2.739   3.440   1.015  0.0387  0.8464 -0.2245
26911SOL     OW75421   3.212   5.429   7.658 -0.0816 -0.3501  0.4700
26911SOL    HW175422   3.230   5.490   7.735 -2.2097 -0.1398  0.8358
26911SOL    HW275423   3.197   5.336   7.693  1.2058 -0.6941  0.0999
26913SOL     OW75424   9.302   5.641   6.700 -0.4293  0.5771 -0.6285
26913SOL    HW175425   9.342   5.624   6.790 -1.6310  2.0211  0.1868
26913SOL    HW275426   9.372   5.625   6.629 -0.4583 -4.1995  0.2581
26914SOL     OW75427   9.181   3.633   7.039 -0.0577 -0.8935  0.0910
26914SOL    HW175428   9.275   3.652   7.065 -0.2704  1.3903 -0.6710
26914SOL    HW275429   9.173   3.637   6.939 -1.1104 -0.2656  0.1918
26915SOL     OW75430   4.136   9.283   7.164  0.4301  0.7967  0.5726
26915SOL    HW175431   4.077   9.335   7.102 -1.0031 -1.0182  0.4043
26915SOL    HW275432   4.107   9.188   7.167  3.2064 -0.0982  0.6803
26918SOL     OW75433   3.962   0.765   4.638  0.1871  0.5251  0.2763
26918SOL    HW175434   4.022   0.695   4.599 -0.7071 -0.8867  1.3715
26918SOL    HW275435   3.885   0.720   4.686  0.9608  2.1801  3.1904
26919SOL     OW75436   2.993   6.327   3.044 -0.1542  0.1731  0.4792
26919SOL    HW175437   3.072   6.266   3.036  0.0436  0.6721 -1.5901
26919SOL    HW275438   2.914   6.276   3.078  0.2490 -1.0308 -0.3659
26920SOL     OW75439   6.766   8.400   7.163  0.7438  0.2032 -0.4082
26920SOL    HW175440   6.828   8.336   7.118 -2.0183 -2.7238 -0.2849
26920SOL    HW275441   6.786   8.402   7.261 -0.2649 -1.9773 -0.1050
26921SOL     OW75442   0.468   6.123   5.755  0.6653 -0.4404  0.2121
26921SOL    HW175443   0.478   6.160   5.847 -1.6637 -1.3975  0.8800
26921SOL    HW275444   0.421   6.189   5.697  1.5398 -0.1084 -0.1341
26922SOL     OW75445   3.811   7.761   1.318  0.0666 -0.0025 -0.1056
26922SOL    HW175446   3.882   7.737   1.384  0.3689  0.1278 -0.3827
26922SOL    HW275447   3.847   7.827   1.253 -0.2395 -0.1124 -0.3876
26923SOL     OW75448   9.378   1.162   7.426 -0.0829  0.0569 -0.0168
26923SOL    HW175449   9.408   1.097   7.495  1.9774  1.3048  0.3085
26923SOL    HW275450   9.327   1.114   7.354 -0.8488 -1.4847  1.5288
26925SOL     OW75451   7.192   6.550   1.433  0.1138 -0.4016 -0.2665
26925SOL    HW175452   7.264   6.485   1.408  0.4940 -0.1193  0.0869
26925SOL    HW275453   7.182   6.618   1.360  0.5619 -0.1404 -0.0859
26926SOL     OW75454   8.610   1.070   3.530  0.3017  0.1519  0.5020
26926SOL    HW175455   8.577   0.975   3.526  0.9943 -0.1219  1.2020
26926SOL    HW275456   8.574   1.114   3.612  0.9656  0.1180  0.8170
26929SOL     OW75457   7.243   9.136   5.773  0.5285  0.2121  0.1245
26929SOL    HW175458   7.308   9.146   5.848  2.3860 -0.3441 -1.3708
26929SOL    HW275459   7.222   9.039   5.760 -0.6317  0.3935  0.6197
26930SOL     OW75460   2.303   9.533   5.120 -0.0737 -0.0928  0.1655
26930SOL    HW175461   2.205   9.540   5.098  0.2742 -1.0992 -1.7825
26930SOL    HW275462   2.325   9.438   5.143  0.6124 -0.0428 -0.2772
26931SOL     OW75463   2.338   0.144   6.135  0.1842 -0.3867  0.3218
26931SOL    HW175464   2.268   0.199   6.183  1.4527  3.9645 -2.4862
26931SOL    HW275465   2.416   0.130   6.196 -0.0048  1.3332  1.0042
26932SOL     OW75466   3.487   6.226   7.442 -0.4025  0.4243 -0.4663
26932SOL    HW175467   3.389   6.236   7.459 -0.2731 -0.5978  1.0710
26932SOL    HW275468   3.506   6.231   7.344 -2.3193 -1.9750 -0.9999
26933SOL     OW75469   3.284   7.344   0.606 -0.9517 -0.6215 -0.3814
26933SOL    HW175470   3.217   7.402   0.652 -0.1980 -0.9304  1.1368
26933SOL    HW275471   3.302   7.379   0.514 -2.6493 -0.1267 -0.5373
26934SOL     OW75472   1.879   0.843   3.738  0.0284  0.4872 -0.0570
26934SOL    HW175473   1.824   0.772   3.782 -0.8184  1.5046  0.5550
26934SOL    HW275474   1.908   0.812   3.647 -2.9871  0.5992 -1.0979
26935SOL     OW75475   9.361   3.983   2.346 -0.1420  0.6713 -0.6998
26935SOL    HW175476   9.451   3.976   2.302  0.7723  0.3524  1.1852
26935SOL    HW275477   9.338   3.896   2.389 -0.0640  1.5843  1.2400
26936SOL     OW75478   2.433   8.817   0.372  0.2173  0.1538 -0.1633
26936SOL    HW175479   2.338   8.813   0.340  0.0004  0.3093  0.4521
26936SOL    HW275480   2.464   8.725   0.396  0.5158 -0.0210 -1.1974
26937SOL     OW75481   6.448   8.586   3.405 -0.6007  0.0350  0.2487
26937SOL    HW175482   6.398   8.670   3.385 -1.2050  0.3015  2.7278
26937SOL    HW275483   6.528   8.608   3.461  1.2814 -0.6340 -2.0791
26938SOL     OW75484   9.056   2.386   6.551  0.0137 -0.0276 -0.3389
26938SOL    HW175485   9.122   2.322   6.509  0.6518 -0.8898  1.9010
26938SOL    HW275486   9.105   2.468   6.581 -0.4173  0.5125 -1.0945
26939SOL     OW75487   8.584   9.493   0.808  0.4736  0.6329  0.1889
26939SOL    HW175488   8.592   9.394   0.810  0.7515  0.6593  0.4202
26939SOL    HW275489   8.503   9.519   0.756  0.0341  0.2743  0.7012
26941SOL     OW75490   9.245   5.955   6.356 -0.0654 -0.0520 -0.0993
26941SOL    HW175491   9.259   6.041   6.405  0.5093 -1.2060  1.7815
26941SOL    HW275492   9.320   5.942   6.291  1.3906 -0.4745  1.6149
26942SOL     OW75493   8.663   3.654   4.755  0.0778  0.4017  0.0482
26942SOL    HW175494   8.739   3.719   4.748  0.3278  0.1594  0.4377
26942SOL    HW275495   8.601   3.666   4.678  0.1922  1.0127  0.0507
26943SOL     OW75496   4.207   5.097   0.214 -0.3333  0.3048 -0.1814
26943SOL    HW175497   4.253   5.044   0.286 -2.4472  0.4371  1.3316
26943SOL    HW275498   4.270   5.113   0.138  1.6793 -0.6008  1.2624
26945SOL     OW75499   9.491   7.994   3.206 -0.3702 -0.5480  0.1724
26945SOL    HW175500   9.519   7.963   3.297  0.1618 -0.8721 -0.1002
26945SOL    HW275501   9.483   7.915   3.145 -1.9477 -0.4723  0.2589
26946SOL     OW75502   2.785   2.626   2.495  0.1734  0.0893 -0.0954
26946SOL    HW175503   2.823   2.717   2.510  0.1686  0.1536 -0.4851
26946SOL    HW275504   2.772   2.581   2.584 -0.6070  0.7784  0.1456
26947SOL     OW75505   6.311   1.299   3.088 -0.0681 -0.8494  0.2400
26947SOL    HW175506   6.232   1.283   3.028  0.9137 -1.4906 -0.9149
26947SOL    HW275507   6.395   1.288   3.035  0.8159 -1.2928  1.7175
26950SOL     OW75508   2.921   4.590   0.658  0.2449 -0.1258  0.5008
26950SOL    HW175509   2.977   4.574   0.739  0.7048  3.0513  0.8527
26950SOL    HW275510   2.979   4.589   0.577  0.2163 -0.4475  0.4806
26951SOL     OW75511   3.478   0.682   0.063 -1.2298  0.0693 -0.6110
26951SOL    HW175512   3.422   0.701   0.144  0.3230 -0.7717  0.6857
26951SOL    HW275513   3.443   0.601   0.017 -2.1374  0.5649 -0.8078
26952SOL     OW75514   5.557   6.555   1.315  0.3894  0.3389  0.2612
26952SOL    HW175515   5.539   6.492   1.240 -0.6646  0.3055  0.5283
26952SOL    HW275516   5.584   6.503   1.396 -2.1627  0.0700  0.9795
26954SOL     OW75517   1.518   5.411   0.145  0.2193 -0.5972  0.2812
26954SOL    HW175518   1.468   5.402   0.231 -0.3682  0.1764  0.0279
26954SOL    HW275519   1.465   5.371   0.070  1.0540 -1.9303  0.3817
26956SOL     OW75520   0.037   8.507   2.637  0.2306  0.5877 -0.2196
26956SOL    HW175521   0.120   8.561   2.624 -0.0343  0.5964 -1.9880
26956SOL    HW275522  -0.039   8.568   2.656  0.3727  0.6691  0.1026
26957SOL     OW75523   7.289   6.616   1.975 -0.0475  0.0602  0.2041
26957SOL    HW175524   7.317   6.606   2.071 -1.3537  3.0753  0.9654
26957SOL    HW275525   7.191   6.634   1.971  0.5691  3.4341 -1.3993
26958SOL     OW75526   2.745   0.726   2.630 -0.2373  0.5135  0.1907
26958SOL    HW175527   2.683   0.751   2.556  0.7202  1.4455 -0.3120
26958SOL    HW275528   2.702   0.657   2.689 -0.6856 -0.8498 -1.7045
26959SOL     OW75529   8.227   2.067   1.420 -0.2541 -0.4794  0.4841
26959SOL    HW175530   8.242   2.049   1.517  0.7086  0.0039  0.4387
26959SOL    HW275531   8.204   2.163   1.407  0.7387 -0.2829  0.1293
26960SOL     OW75532   2.906   7.031   3.193 -0.2931  0.6985  0.1965
26960SOL    HW175533   2.901   6.972   3.273  1.2786 -0.9321 -0.8821
26960SOL    HW275534   2.993   7.081   3.193 -0.3040  0.7318 -0.4703
26962SOL     OW75535   0.017   1.198   1.068  0.2983 -0.6817  0.6147
26962SOL    HW175536  -0.018   1.292   1.071 -0.2205 -0.9099  2.1550
26962SOL    HW275537   0.117   1.200   1.069  0.2863 -0.1547  1.0141
26965SOL     OW75538   5.176   2.763   1.141  0.3031  0.3252 -0.0535
26965SOL    HW175539   5.272   2.791   1.149  0.2176  0.7615 -0.5563
26965SOL    HW275540   5.172   2.663   1.130  0.7619  0.4171 -1.1076
26966SOL     OW75541   3.434   5.997   2.208  0.1831 -0.0007  0.4594
26966SOL    HW175542   3.511   6.011   2.269 -0.4695 -1.1914  1.5885
26966SOL    HW275543   3.394   6.085   2.183  0.8544  0.5245  1.2321
26968SOL     OW75544   5.201   7.417   3.115 -0.1909 -0.1392 -0.1120
26968SOL    HW175545   5.251   7.361   3.182  0.8414  0.7944 -0.0829
26968SOL    HW275546   5.211   7.376   3.025 -0.1250 -0.4570  0.0374
26969SOL     OW75547   6.152   8.698   6.748  0.2481  0.3705  0.8042
26969SOL    HW175548   6.224   8.630   6.761  0.7065  0.6746 -0.0935
26969SOL    HW275549   6.175   8.781   6.799 -0.0058  0.0798  1.3989
26971SOL     OW75550   5.238   1.808   4.943 -0.3647  0.2597 -0.2202
26971SOL    HW175551   5.294   1.739   4.987  0.4024 -0.2559 -1.9707
26971SOL    HW275552   5.144   1.774   4.934 -0.2614 -0.0780 -0.0156
26972SOL     OW75553   9.128   0.638   1.433  0.1036  0.1421  0.1551
26972SOL    HW175554   9.161   0.724   1.473  1.3141 -0.0249 -0.4616
26972SOL    HW275555   9.140   0.641   1.334  0.1065 -0.7196  0.1279
26973SOL     OW75556   4.285   1.492   0.620  0.4001  0.1208 -0.3336
26973SOL    HW175557   4.348   1.426   0.579  0.1287  0.3537 -1.1454
26973SOL    HW275558   4.301   1.498   0.718  1.2325 -0.2688 -0.4462
26974SOL     OW75559   6.815   4.982   2.321  0.3081  0.1870  0.1197
26974SOL    HW175560   6.831   4.935   2.407  0.0384  1.7793  1.0627
26974SOL    HW275561   6.838   5.079   2.330  0.4517  0.3504 -1.6513
26976SOL     OW75562   3.899   9.488   2.107  0.2506  0.3830 -0.1451
26976SOL    HW175563   3.863   9.554   2.173  2.2983  0.7577  0.6361
26976SOL    HW275564   3.942   9.412   2.157  0.6343  0.0005 -1.0550
26977SOL     OW75565   2.953   2.970   6.866  0.4941 -0.4583 -0.0746
26977SOL    HW175566   2.968   3.009   6.775  0.6807  2.0106  0.9817
26977SOL    HW275567   2.904   3.036   6.923 -0.0698 -2.1823  1.4711
26979SOL     OW75568   1.951   0.196   7.631  0.5372 -0.5818  0.0643
26979SOL    HW175569   1.977   0.164   7.539 -1.1671  0.7923 -0.9325
26979SOL    HW275570   1.858   0.165   7.651  0.3757  0.3371  0.7330
26980SOL     OW75571   8.606   2.908   5.741  0.3364  0.1308 -0.0956
26980SOL    HW175572   8.523   2.958   5.767  0.3579 -0.6006  1.4402
26980SOL    HW275573   8.580   2.819   5.702  0.3602  0.5468 -1.0789
26982SOL     OW75574   9.755   2.002   4.960  0.0927  0.1738 -0.0701
26982SOL    HW175575   9.814   2.042   4.888 -0.0985  2.4397  0.9783
26982SOL    HW275576   9.659   2.013   4.934  0.0044  1.6679  0.8597
26983SOL     OW75577   4.351   9.447   7.201  0.2933  1.2847  0.5172
26983SOL    HW175578   4.276   9.381   7.205  1.7235 -0.4255 -0.2551
26983SOL    HW275579   4.425   9.410   7.144 -0.0893  4.8253 -2.4497
26984SOL     OW75580   0.690   4.969   4.912  0.0667 -0.2506 -0.0530
26984SOL    HW175581   0.751   4.949   4.835 -0.8011 -1.0201 -0.5570
26984SOL    HW275582   0.595   4.971   4.879 -0.4891 -2.4095  1.3351
26986SOL     OW75583   1.886   9.979   1.569  0.5098 -0.0380 -0.2152
26986SOL    HW175584   1.918   9.984   1.474  1.0196  1.7917  0.0312
26986SOL    HW275585   1.786   9.968   1.570  0.6595 -1.6186 -0.9541
26988SOL     OW75586   0.547   2.103   5.706 -0.4717  0.2787 -0.2027
26988SOL    HW175587   0.501   2.032   5.760 -3.0157  2.8328  1.1371
26988SOL    HW275588   0.572   2.065   5.616 -3.9908 -1.6820 -0.4696
26989SOL     OW75589   9.211   9.202   7.914 -0.7012  0.2098 -0.3371
26989SOL    HW175590   9.170   9.123   7.868 -3.1112  0.6686  0.9545
26989SOL    HW275591   9.179   9.286   7.871  0.8196  0.5426 -0.8545
26990SOL     OW75592   1.588   2.184   5.321 -0.8693 -0.0726 -0.2116
26990SOL    HW175593   1.512   2.247   5.336 -1.0320  0.0871 -1.6617
26990SOL    HW275594   1.615   2.144   5.408 -3.4812 -1.1412  0.1484
26991SOL     OW75595   8.169   3.313   3.409 -0.1971  0.1220  0.7227
26991SOL    HW175596   8.094   3.282   3.351 -2.1589  0.2935  3.1321
26991SOL    HW275597   8.248   3.334   3.351 -1.9355 -0.1367 -1.8462
26993SOL     OW75598   1.071   7.601   4.831  0.5614  0.1208 -0.0857
26993SOL    HW175599   0.985   7.563   4.796  0.6664  1.6043 -2.0869
26993SOL    HW275600   1.148   7.553   4.789  0.6924  0.0416  0.2499
26995SOL     OW75601   1.273   3.517   1.916 -0.4541 -0.1411 -0.0332
26995SOL    HW175602   1.182   3.478   1.906 -0.3711 -0.2332 -0.4500
26995SOL    HW275603   1.276   3.605   1.868 -1.2856  1.4364  2.6988
26996SOL     OW75604   2.838   1.090   5.656  0.2729  0.1076  0.0674
26996SOL    HW175605   2.757   1.033   5.670 -0.7140  1.4299 -0.1356
26996SOL    HW275606   2.896   1.086   5.738 -0.9745  0.6820  1.0036
26997SOL     OW75607   4.652   9.464   0.573 -0.4226  0.4125 -0.0244
26997SOL    HW175608   4.624   9.381   0.621 -0.1183 -0.0752 -0.6813
26997SOL    HW275609   4.695   9.528   0.637 -0.1002 -0.1944  0.3630
26998SOL     OW75610   8.296   8.694   5.575 -0.2080  0.1397 -0.6918
26998SOL    HW175611   8.273   8.639   5.494 -1.8958  0.4258 -0.4373
26998SOL    HW275612   8.278   8.641   5.658 -1.1011  0.7930 -0.4595
26999SOL     OW75613   8.417   2.998   1.921  0.0277 -1.0803 -0.2033
26999SOL    HW175614   8.362   3.053   1.985 -2.7367 -0.2944 -3.1346
26999SOL    HW275615   8.510   3.036   1.916  0.1057 -0.7605  2.7957
27001SOL     OW75616   3.986   7.159   1.018  0.2748  0.1216 -0.3597
27001SOL    HW175617   3.974   7.187   1.114  1.9023 -2.7325  0.7404
27001SOL    HW275618   4.056   7.215   0.976 -0.9531  1.8804 -0.1196
27002SOL     OW75619   8.013   0.627   7.153 -0.2964  0.0227 -0.2251
27002SOL    HW175620   8.075   0.564   7.106 -0.5397 -0.8772  0.6183
27002SOL    HW275621   7.921   0.587   7.155 -0.7084  0.9358 -0.6781
27003SOL     OW75622   8.311   4.108   2.109 -0.5844 -0.2806  0.4638
27003SOL    HW175623   8.344   4.201   2.098 -0.3797 -0.5895 -1.7545
27003SOL    HW275624   8.381   4.053   2.154 -0.0920  0.2739  0.3837
27004SOL     OW75625   9.042   1.905   6.107 -0.0774  0.2167 -0.7729
27004SOL    HW175626   9.073   1.998   6.126  0.8340 -0.0396 -1.0194
27004SOL    HW275627   9.116   1.852   6.065 -0.1183 -1.0540  0.6966
27005SOL     OW75628   3.268   9.856   5.604  0.3195  0.1276  0.7461
27005SOL    HW175629   3.197   9.925   5.612  0.6163  0.4923  0.2964
27005SOL    HW275630   3.346   9.882   5.661  1.5929  1.6567 -1.5779
27006SOL     OW75631   7.867   9.631   2.524  0.1527  0.2133 -0.3270
27006SOL    HW175632   7.894   9.535   2.510  1.0538  0.6021 -1.3620
27006SOL    HW275633   7.909   9.666   2.607  1.0148  0.1256 -0.7144
27007SOL     OW75634   9.782   1.757   0.066 -0.2448  0.0157  0.4036
27007SOL    HW175635   9.849   1.789   0.133 -0.2061  1.5287 -0.3366
27007SOL    HW275636   9.818   1.769  -0.026 -0.9440 -0.5290  0.0573
27008SOL     OW75637   8.505   4.634   6.656  0.0278  0.2355 -0.1380
27008SOL    HW175638   8.417   4.588   6.648 -0.0118 -0.1372  1.9953
27008SOL    HW275639   8.563   4.584   6.721  0.7187  2.0782  0.7218
27010SOL     OW75640   9.977   3.497   1.816 -0.2472  0.2980  0.2006
27010SOL    HW175641  10.077   3.495   1.808 -0.3061 -0.7184 -0.3465
27010SOL    HW275642   9.947   3.422   1.874 -0.5656  1.7543  1.9688
27013SOL     OW75643   1.985   5.742   3.160 -0.2545  0.5963 -0.4323
27013SOL    HW175644   2.042   5.789   3.092 -0.5869 -0.9090 -1.8033
27013SOL    HW275645   1.891   5.777   3.155 -0.7829 -0.9839 -2.2887
27015SOL     OW75646   7.927   0.551   2.412 -0.0638  0.0887  0.3523
27015SOL    HW175647   7.951   0.469   2.464 -3.0288 -1.5303 -0.6948
27015SOL    HW275648   7.894   0.621   2.475  0.0449 -0.4497  1.0187
27018SOL     OW75649   9.637   5.774   6.096  0.3477 -0.2873 -0.2503
27018SOL    HW175650   9.710   5.738   6.154  0.9445  1.3057  0.0136
27018SOL    HW275651   9.677   5.825   6.020 -0.4759  0.2266 -0.3461
27019SOL     OW75652   4.076   2.286   7.454 -0.1340  0.6747 -0.3205
27019SOL    HW175653   4.027   2.220   7.397 -0.6285  0.4406  0.3815
27019SOL    HW275654   4.173   2.260   7.460 -0.5395 -0.6090  0.8627
27020SOL     OW75655   3.452   3.109   3.070 -1.0169  0.4029  0.3725
27020SOL    HW175656   3.532   3.115   3.011 -0.3941  1.3393  1.2853
27020SOL    HW275657   3.423   3.014   3.079  0.5078 -0.0367  0.7160
27021SOL     OW75658   0.436   0.957   7.188 -0.4941  0.1050  0.1657
27021SOL    HW175659   0.426   0.901   7.105  1.3801  1.2341 -0.8550
27021SOL    HW275660   0.384   0.915   7.262 -3.5417 -0.1008 -1.9597
27022SOL     OW75661   9.242   8.426   4.429 -0.3321  0.5108 -0.3463
27022SOL    HW175662   9.217   8.354   4.494 -0.6294  1.8178  1.0139
27022SOL    HW275663   9.190   8.415   4.345 -0.6977 -0.6010  0.0202
27025SOL     OW75664   9.239   3.306   1.669  0.4395  0.1485 -0.1919
27025SOL    HW175665   9.259   3.305   1.767 -2.1474 -4.4144  0.4558
27025SOL    HW275666   9.319   3.275   1.618  0.3614 -2.0170  0.9343
27026SOL     OW75667   3.012   4.834   0.381  0.3476 -0.5279 -0.7291
27026SOL    HW175668   3.048   4.844   0.289  0.5254  1.3257 -0.4800
27026SOL    HW275669   2.992   4.738   0.399 -1.3682 -0.6978 -3.3137
27027SOL     OW75670   9.667   1.295   7.600 -0.1087 -0.0387 -0.0253
27027SOL    HW175671   9.656   1.376   7.658 -0.6737  0.5928 -1.0052
27027SOL    HW275672   9.673   1.323   7.505 -1.7196 -1.2655 -0.4987
27029SOL     OW75673   6.108   0.624   5.885 -0.2827 -0.9212 -0.0476
27029SOL    HW175674   6.182   0.622   5.818  1.0731 -1.1380  1.4102
27029SOL    HW275675   6.049   0.544   5.873  0.0770 -1.0763 -0.8213
27030SOL     OW75676   1.044   2.158   1.701 -0.1781  0.3987 -0.2675
27030SOL    HW175677   1.100   2.212   1.764 -0.3073  0.3266 -0.0913
27030SOL    HW275678   1.096   2.139   1.618 -1.1299  3.2944 -1.5917
27031SOL     OW75679   2.614   5.543   5.360  0.4672  0.6664  0.0161
27031SOL    HW175680   2.528   5.580   5.394 -0.1421  0.5530 -1.4054
27031SOL    HW275681   2.649   5.601   5.287  0.4402 -0.5484 -0.9688
27034SOL     OW75682   3.223   8.320   7.251 -0.3926  0.3467  0.0239
27034SOL    HW175683   3.302   8.308   7.313  0.3705  1.0838 -0.7944
27034SOL    HW275684   3.256   8.325   7.157 -1.3231  1.8545 -0.2256
27035SOL     OW75685   2.477   4.465   6.980 -0.3517 -0.0212  0.2000
27035SOL    HW175686   2.558   4.408   6.996 -0.0615  0.6745  1.2274
27035SOL    HW275687   2.423   4.472   7.064  0.1976  2.1100  0.4139
27036SOL     OW75688   3.588   1.278   0.419  0.2099 -0.2483  0.2186
27036SOL    HW175689   3.661   1.244   0.478  2.1246  1.3701 -1.1330
27036SOL    HW275690   3.620   1.280   0.324 -1.7903 -0.0347 -0.4772
27037SOL     OW75691   3.829   8.387   7.944  0.0290 -0.2378 -0.6587
27037SOL    HW175692   3.816   8.414   8.039 -1.9787 -0.7246 -0.7700
27037SOL    HW275693   3.845   8.469   7.888 -2.8449  0.4903 -0.5024
27038SOL     OW75694   9.427   1.741   3.166  0.0180 -0.2492  0.4577
27038SOL    HW175695   9.365   1.665   3.184 -1.2286  1.3604  3.2382
27038SOL    HW275696   9.375   1.818   3.128  1.1740 -0.5128 -1.7771
27039SOL     OW75697   6.776   9.267   4.779 -0.4835  0.1359 -0.0376
27039SOL    HW175698   6.698   9.217   4.741 -1.0763  0.0753  1.2414
27039SOL    HW275699   6.803   9.340   4.716  0.6746 -2.0379 -2.1535
27040SOL     OW75700   7.908   8.170   6.449 -0.0326  0.0616  0.8435
27040SOL    HW175701   8.002   8.168   6.484  0.1944 -0.6436  0.2156
27040SOL    HW275702   7.885   8.264   6.422  0.4106  0.2786  1.2102
27041SOL     OW75703   9.158   0.295   2.443  0.0880 -0.6791  0.0133
27041SOL    HW175704   9.166   0.247   2.530 -0.9171 -1.1310 -0.1397
27041SOL    HW275705   9.062   0.314   2.424  0.4640  1.7121  0.2494
27044SOL     OW75706   5.917   6.572   1.218  0.2625 -0.3242 -0.1497
27044SOL    HW175707   5.854   6.600   1.146  1.7577  1.7660 -0.6916
27044SOL    HW275708   5.974   6.496   1.186  1.1784  0.8443 -1.3336
27046SOL     OW75709   7.717   2.643   5.262 -0.4156  0.0047 -0.2394
27046SOL    HW175710   7.640   2.579   5.267 -0.9433  0.6521 -0.0961
27046SOL    HW275711   7.728   2.675   5.168 -1.0836  0.8517 -0.0271
27048SOL     OW75712   0.727   7.181   6.749 -0.1357  0.2089 -0.5913
27048SOL    HW175713   0.665   7.124   6.695 -0.5197  1.7096 -1.7840
27048SOL    HW275714   0.719   7.276   6.719 -0.2994  1.0849  2.0570
27050SOL     OW75715   9.588   8.011   0.416  0.3416 -0.0699  0.2778
27050SOL    HW175716   9.493   7.986   0.394  1.0667 -2.1902 -0.5774
27050SOL    HW275717   9.645   7.997   0.335  1.4091  1.1290  0.8127
27051SOL     OW75718   3.779   3.181   5.100  0.3559 -0.1102  0.1328
27051SOL    HW175719   3.760   3.278   5.119 -1.2472 -0.3860  0.0246
27051SOL    HW275720   3.710   3.124   5.145  0.1453 -1.0990 -1.3959
27053SOL     OW75721   4.356   3.788   1.513  0.4424 -0.1318 -0.5614
27053SOL    HW175722   4.275   3.832   1.552 -0.1465 -0.7741 -1.0530
27053SOL    HW275723   4.390   3.843   1.437 -0.3577 -0.5710 -1.2436
27055SOL     OW75724   4.702   2.268   4.203  0.3877 -0.0876  0.2722
27055SOL    HW175725   4.697   2.351   4.258  0.1669  0.2862 -0.3023
27055SOL    HW275726   4.670   2.288   4.110 -0.0603 -0.9144  0.2447
27056SOL     OW75727   3.799   5.824   2.917 -0.2917  0.3799  0.5347
27056SOL    HW175728   3.827   5.762   2.990  1.2491  0.9860  0.4787
27056SOL    HW275729   3.880   5.862   2.873 -1.2205  1.4109 -0.3107
27057SOL     OW75730   0.444   8.153   2.234  0.0757 -0.4067 -0.0495
27057SOL    HW175731   0.470   8.196   2.147  1.3801 -0.6649  0.1917
27057SOL    HW275732   0.347   8.167   2.251  0.4653  2.4515  0.0340
27058SOL     OW75733   7.891   3.135   5.602  0.3081 -0.2130 -0.2322
27058SOL    HW175734   7.821   3.206   5.595  0.1210 -0.3889 -0.1546
27058SOL    HW275735   7.981   3.175   5.587 -0.0030 -0.4357 -2.9438
27060SOL     OW75736   9.223   1.210   3.818 -0.0122 -0.5336  0.0294
27060SOL    HW175737   9.166   1.275   3.868 -0.8323  0.8195 -2.5567
27060SOL    HW275738   9.171   1.126   3.804 -0.7680  0.0665 -0.8374
27061SOL     OW75739   1.467   2.734   0.111  0.4463  0.0059 -0.3237
27061SOL    HW175740   1.436   2.750   0.017 -1.7970 -0.3707  0.3125
27061SOL    HW275741   1.467   2.635   0.129 -0.6476  0.1388  0.5191
27062SOL     OW75742   3.543   9.199   7.469 -0.0257 -0.0231 -0.2212
27062SOL    HW175743   3.487   9.156   7.540 -3.1879  1.3773 -1.7822
27062SOL    HW275744   3.580   9.285   7.503 -0.4873  0.0396  0.1186
27063SOL     OW75745   8.549   3.998   7.080 -0.1798 -0.2026 -0.5253
27063SOL    HW175746   8.643   4.031   7.089 -0.7259  1.0668  0.5768
27063SOL    HW275747   8.490   4.046   7.144 -1.4943 -1.3931 -0.8136
27064SOL     OW75748   6.924   0.189   1.099  0.4218 -0.1455  0.3151
27064SOL    HW175749   6.836   0.159   1.061  0.2110 -1.4069  1.7445
27064SOL    HW275750   6.924   0.289   1.107 -0.2130  0.0056 -1.2757
27065SOL     OW75751   3.653   4.552   6.115  0.1010  0.1278 -0.1054
27065SOL    HW175752   3.577   4.605   6.078  0.9952  1.3598 -0.2021
27065SOL    HW275753   3.675   4.477   6.053 -1.6782 -0.8493  0.4054
27066SOL     OW75754   8.490   8.536   6.109 -0.0617 -0.5150 -0.0743
27066SOL    HW175755   8.486   8.592   6.192 -1.1084 -0.2281 -0.3123
27066SOL    HW275756   8.497   8.440   6.134  1.5430 -0.3047  0.3381
27067SOL     OW75757   8.078   0.573   4.430 -0.1257  0.0216 -0.5795
27067SOL    HW175758   8.017   0.648   4.453 -0.5526  0.0172 -1.6925
27067SOL    HW275759   8.043   0.523   4.351 -0.3041 -1.9039  0.6800
27068SOL     OW75760   4.098   4.288   5.406 -0.0349  0.3232  0.3055
27068SOL    HW175761   4.117   4.340   5.490 -0.1157  0.5813  0.1638
27068SOL    HW275762   4.175   4.298   5.343  0.2736 -0.3289  0.5745
27069SOL     OW75763   2.507   8.227   0.375 -0.1732  0.5025  0.1496
27069SOL    HW175764   2.595   8.273   0.363 -0.3386  0.1374 -2.7783
27069SOL    HW275765   2.514   8.133   0.341 -1.4525  0.2096  0.7013
27070SOL     OW75766   7.911   4.944   0.125 -0.3059  0.6030  0.1649
27070SOL    HW175767   7.866   5.004   0.059 -0.0237 -0.9092 -1.4432
27070SOL    HW275768   7.843   4.882   0.164 -0.2413  0.6531  0.3549
27071SOL     OW75769   3.334   9.399   2.533  0.4377  0.2681 -0.6742
27071SOL    HW175770   3.257   9.408   2.597 -0.6942 -2.0252 -1.6547
27071SOL    HW275771   3.301   9.405   2.439  0.9206 -3.5763 -1.1986
27072SOL     OW75772   6.889   8.955   7.004 -0.7519  0.5200 -0.5189
27072SOL    HW175773   6.896   8.950   6.904 -1.2339  0.2590 -0.5399
27072SOL    HW275774   6.815   8.896   7.035 -0.8315  0.8715 -0.0356
27074SOL     OW75775   0.214   8.573   0.860  0.5919  0.4744 -0.6658
27074SOL    HW175776   0.223   8.621   0.947  1.0893  2.3018 -1.7022
27074SOL    HW275777   0.118   8.573   0.832  0.2481 -1.1705  0.4475
27075SOL     OW75778   4.968   0.826   6.480  0.1084  0.7785  0.3764
27075SOL    HW175779   4.917   0.899   6.434 -0.8176  0.7985  1.3973
27075SOL    HW275780   4.940   0.823   6.576  0.0640 -1.0041  0.3121
27078SOL     OW75781   8.321   9.621   6.768 -0.6456  0.5861  0.4164
27078SOL    HW175782   8.230   9.643   6.735 -0.9704 -0.4483  0.6140
27078SOL    HW275783   8.314   9.571   6.854  0.0684 -0.5735 -0.1913
27079SOL     OW75784   0.774   2.992   6.772  0.0030 -0.0434 -0.0309
27079SOL    HW175785   0.797   2.946   6.686 -0.2746  0.3687 -0.3270
27079SOL    HW275786   0.746   3.086   6.753 -1.8351 -0.4893  0.3193
27081SOL     OW75787   9.321   6.571   7.770 -0.4520 -0.2084  0.3654
27081SOL    HW175788   9.397   6.527   7.722 -0.2666 -0.2117  0.6633
27081SOL    HW275789   9.324   6.547   7.867 -0.7571 -0.1028  0.4027
27082SOL     OW75790   5.265   0.822   3.520 -0.7140 -0.2733  0.5845
27082SOL    HW175791   5.175   0.785   3.544  0.0273 -0.6532  2.9250
27082SOL    HW275792   5.307   0.766   3.449 -1.3306 -1.5084  1.1823
27083SOL     OW75793   1.734   8.853   1.503  0.0244 -0.0968 -0.1405
27083SOL    HW175794   1.707   8.853   1.600  1.2211  1.4278  0.2050
27083SOL    HW275795   1.665   8.903   1.450 -0.1993 -0.2032  0.0465
27084SOL     OW75796   4.258   8.111   3.519 -0.5658  0.5880 -0.4550
27084SOL    HW175797   4.187   8.169   3.479 -3.4214  0.6115  4.2865
27084SOL    HW275798   4.230   8.015   3.514  0.5338  0.2909 -1.2384
27085SOL     OW75799   4.028   8.540   4.032 -0.1834 -0.0642  0.8035
27085SOL    HW175800   3.975   8.613   3.988 -0.8457 -0.1630  1.4353
27085SOL    HW275801   4.090   8.499   3.965  0.0552  0.9488  0.3898
27086SOL     OW75802   8.846   2.763   2.856 -0.0637 -0.1254 -0.1393
27086SOL    HW175803   8.848   2.835   2.787 -0.4107 -0.8523 -0.9137
27086SOL    HW275804   8.938   2.726   2.869  0.5524  2.0122  1.9272
27087SOL     OW75805   9.231   8.285   2.331 -0.4912 -0.1996  0.0548
27087SOL    HW175806   9.226   8.384   2.318 -0.9322  0.2657  3.3504
27087SOL    HW275807   9.139   8.247   2.331 -0.4108 -0.3854  0.5042
27088SOL     OW75808   8.112   9.907   7.766 -0.2692  0.1259 -0.4879
27088SOL    HW175809   8.127   9.903   7.667 -2.2684  0.7927 -0.8440
27088SOL    HW275810   8.060   9.989   7.789 -0.5837 -0.4772  1.0119
27089SOL     OW75811   8.882   9.401   4.766 -0.7332  0.0146  0.0763
27089SOL    HW175812   8.859   9.304   4.766  1.3705 -0.5116  1.3966
27089SOL    HW275813   8.896   9.432   4.671 -3.8124 -0.3335 -0.5325
27090SOL     OW75814   3.436   0.421   2.323 -0.0271  0.0930  0.1455
27090SOL    HW175815   3.416   0.510   2.364 -0.8079  0.3493 -0.7808
27090SOL    HW275816   3.405   0.420   2.228 -0.4459 -1.3229  0.2848
27091SOL     OW75817   0.709   0.690   4.590 -0.4641  0.3763 -0.1353
27091SOL    HW175818   0.619   0.655   4.616  0.1429  0.9115  2.8397
27091SOL    HW275819   0.712   0.789   4.607  0.3918  0.5360 -1.1416
27092SOL     OW75820   1.011   7.240   7.059 -0.6373 -0.1477 -0.3828
27092SOL    HW175821   0.927   7.184   7.057 -0.8106  0.1030 -0.1973
27092SOL    HW275822   1.000   7.314   7.126 -0.3924  0.0861 -0.6009
27094SOL     OW75823   7.872   1.686   0.908 -0.8385 -0.0639  0.1017
27094SOL    HW175824   7.919   1.772   0.890 -1.4979  0.1097 -0.7794
27094SOL    HW275825   7.796   1.702   0.971 -2.6088  0.4837 -2.1056
27095SOL     OW75826   6.257   1.480   3.279  0.6239  0.1989  0.0902
27095SOL    HW175827   6.279   1.407   3.214  2.0218 -0.0880  0.8546
27095SOL    HW275828   6.229   1.439   3.366  0.5652  0.5655  0.2441
27096SOL     OW75829   7.959   8.013   5.899 -0.0240 -0.4104 -0.8231
27096SOL    HW175830   8.054   8.003   5.869 -0.0742  1.2553 -1.5718
27096SOL    HW275831   7.957   8.030   5.998  0.5848  1.4594 -1.1144
27097SOL     OW75832   4.257   4.793   1.885 -0.1291 -0.2401 -0.1828
27097SOL    HW175833   4.231   4.768   1.979  0.1356  0.0662 -0.0246
27097SOL    HW275834   4.175   4.797   1.828 -0.3596  0.1150  0.1657
27098SOL     OW75835   1.944   9.120   4.830 -0.0767 -0.3407 -0.4058
27098SOL    HW175836   1.927   9.025   4.854 -0.3166 -0.3562 -0.6257
27098SOL    HW275837   1.952   9.128   4.730 -0.3704 -0.0819 -0.4088
27099SOL     OW75838   8.765   6.049   2.013  0.0946 -0.0465  0.5299
27099SOL    HW175839   8.718   5.976   2.062  0.2473 -0.2495  0.3719
27099SOL    HW275840   8.859   6.056   2.044 -0.0344  0.3603  0.8443
27100SOL     OW75841   1.889   9.315   4.264 -0.4702  0.9798 -0.7412
27100SOL    HW175842   1.953   9.252   4.307 -1.8406 -0.8785 -1.3714
27100SOL    HW275843   1.861   9.385   4.330  0.4488  0.4552  0.2082
27101SOL     OW75844   2.505   3.159   2.279 -0.7752  0.6742  0.2112
27101SOL    HW175845   2.483   3.256   2.289  0.7238  1.0533 -0.1285
27101SOL    HW275846   2.590   3.148   2.227 -1.1342 -0.8362 -0.1023
27102SOL     OW75847   3.338   2.035   0.985  0.3297  0.2735 -0.2795
27102SOL    HW175848   3.248   2.078   0.971 -0.6564 -1.4999  0.4701
27102SOL    HW275849   3.355   1.971   0.910  1.6905  1.7227 -1.2561
27105SOL     OW75850   7.670   9.904   6.135 -0.4389  0.4564  0.3568
27105SOL    HW175851   7.673   9.809   6.103 -1.0663  0.2394  0.9476
27105SOL    HW275852   7.721   9.962   6.071 -1.4930 -0.0198 -0.9347
27106SOL     OW75853   3.073   1.461   5.959  0.4650 -0.1441 -0.8943
27106SOL    HW175854   3.160   1.413   5.946  0.1233 -0.9632 -0.2158
27106SOL    HW275855   3.002   1.394   5.982  0.1659  0.7806  0.9581
27107SOL     OW75856   8.981   3.874   1.337 -0.4498  0.1406 -0.1661
27107SOL    HW175857   8.955   3.876   1.240 -0.9833  2.0697  0.0080
27107SOL    HW275858   8.936   3.796   1.381 -1.7973  0.3941 -1.0446
27108SOL     OW75859   2.122   9.018   3.930 -0.1592  0.2770  0.0341
27108SOL    HW175860   2.123   8.951   4.004  0.3392 -0.6573 -0.7887
27108SOL    HW275861   2.050   9.085   3.946 -0.5199 -0.3234  0.9944
27109SOL     OW75862   1.041   5.923   1.742  0.4997 -0.6363 -0.3390
27109SOL    HW175863   1.104   5.847   1.761  0.5005 -1.1576 -2.3271
27109SOL    HW275864   0.964   5.918   1.805  1.5939 -0.9857  1.0141
27110SOL     OW75865   8.953   6.301   6.005  0.4820 -0.0460  0.1618
27110SOL    HW175866   8.986   6.234   5.939 -1.1401 -0.9462  0.2358
27110SOL    HW275867   9.031   6.345   6.050  1.5761 -1.9157  0.1508
27111SOL     OW75868   0.758   7.703   5.542  0.6353 -0.2142  0.1882
27111SOL    HW175869   0.793   7.790   5.577  0.8865 -0.5602  0.7940
27111SOL    HW275870   0.771   7.700   5.442  0.2293  0.6231  0.1056
27112SOL     OW75871   1.064   3.213   5.491 -0.1343 -0.3633 -0.3096
27112SOL    HW175872   0.967   3.219   5.465 -0.1343 -0.2977 -0.2942
27112SOL    HW275873   1.076   3.254   5.581  0.1024  0.6071 -0.7805
27113SOL     OW75874   1.162   2.195   5.377 -0.1427 -1.3693 -0.0662
27113SOL    HW175875   1.144   2.105   5.416  0.9737 -0.8692  1.6016
27113SOL    HW275876   1.235   2.241   5.427 -1.6059  1.0364 -0.0258
27114SOL     OW75877   2.641   4.778   4.580  0.0288 -0.1478 -0.0571
27114SOL    HW175878   2.683   4.698   4.535 -1.6144 -0.2082 -1.5540
27114SOL    HW275879   2.542   4.777   4.564 -0.6377 -0.1697  3.6638
27117SOL     OW75880   6.782   9.877   7.848 -0.3842 -0.1098  0.1386
27117SOL    HW175881   6.750   9.823   7.926 -1.4132 -1.3602 -1.1230
27117SOL    HW275882   6.721   9.954   7.834  0.3815  0.7037  1.1795
27118SOL     OW75883   0.401   4.540   0.247  0.9449  0.2976 -0.4512
27118SOL    HW175884   0.303   4.519   0.245  1.1002 -0.8027  1.9137
27118SOL    HW275885   0.438   4.536   0.154 -1.1278  0.1626 -1.2950
27119SOL     OW75886   7.434   8.841   5.945 -0.3315 -0.0942 -0.2171
27119SOL    HW175887   7.423   8.873   6.039 -0.4527  0.2727 -0.3528
27119SOL    HW275888   7.531   8.836   5.923 -0.2559 -1.7339  0.4421
27120SOL     OW75889   4.432   8.426   4.023  0.2747  0.2569  0.0966
27120SOL    HW175890   4.511   8.368   4.041  1.8959  1.9632 -1.3369
27120SOL    HW275891   4.376   8.385   3.952 -0.9778 -1.7035  2.1498
27121SOL     OW75892   2.060   8.645   0.560 -0.2361  0.2196 -0.3272
27121SOL    HW175893   2.155   8.635   0.592 -0.0869 -1.4204 -1.2270
27121SOL    HW275894   1.998   8.599   0.623 -0.2471 -0.3092 -0.7209
27123SOL     OW75895   9.655   5.611   2.783 -0.1742  0.2657 -0.1760
27123SOL    HW175896   9.744   5.656   2.772  0.1536  0.1557  1.7689
27123SOL    HW275897   9.666   5.513   2.768  0.1169  0.2106  0.3509
27124SOL     OW75898   8.432   4.081   5.070  0.0533  0.2636 -0.5719
27124SOL    HW175899   8.469   4.053   5.158  0.2045 -0.4263 -0.8490
27124SOL    HW275900   8.467   4.020   4.998 -1.1818 -0.0508 -0.9123
27125SOL     OW75901   7.404   5.827   7.734 -0.4387  0.1771 -0.3484
27125SOL    HW175902   7.485   5.770   7.718  0.0320  0.8575 -0.4240
27125SOL    HW275903   7.383   5.879   7.652 -0.2086  0.9309  0.0646
27126SOL     OW75904   8.703   6.837   2.196  0.1070  0.2803  0.0417
27126SOL    HW175905   8.756   6.835   2.111  0.9270  1.8578  0.4999
27126SOL    HW275906   8.711   6.748   2.242  1.1107  0.0053 -0.6427
27128SOL     OW75907   2.806   3.041   2.247 -0.4456  0.0221  0.0104
27128SOL    HW175908   2.755   3.030   2.162  0.8228 -0.3276 -0.7069
27128SOL    HW275909   2.818   2.951   2.291 -0.1192  0.0503 -0.0184
27129SOL     OW75910   0.806   7.370   6.062 -0.4987 -0.1299 -0.5275
27129SOL    HW175911   0.873   7.426   6.013 -0.6563 -0.6812 -1.3794
27129SOL    HW275912   0.767   7.423   6.137 -0.6552  0.9166 -1.3340
27130SOL     OW75913   1.542   2.412   6.973 -0.1337 -0.2549 -0.4625
27130SOL    HW175914   1.466   2.388   7.032  0.7017  0.8976  1.1218
27130SOL    HW275915   1.603   2.333   6.962  0.0116 -0.3147  0.6977
27131SOL     OW75916   7.141   8.377   6.710 -0.0847 -0.1928  0.1936
27131SOL    HW175917   7.187   8.327   6.636 -2.2085 -0.0938 -1.2284
27131SOL    HW275918   7.137   8.474   6.687 -1.6551 -0.3065 -0.0626
27133SOL     OW75919   1.039   6.670   0.916 -0.5820  0.1075  0.1989
27133SOL    HW175920   1.025   6.577   0.951 -2.5370  0.1351 -0.4358
27133SOL    HW275921   1.128   6.704   0.946 -0.4519 -1.4285  1.6367
27134SOL     OW75922   2.336   5.490   6.974 -0.0333 -0.2167  0.5649
27134SOL    HW175923   2.316   5.400   7.014 -0.3089  0.8810  3.0119
27134SOL    HW275924   2.408   5.535   7.029  0.0355  1.0923 -0.5764
27135SOL     OW75925   6.641   2.045   4.713 -0.2769  0.2463  0.3471
27135SOL    HW175926   6.565   2.020   4.652  0.6336 -1.0607 -0.2916
27135SOL    HW275927   6.618   2.019   4.807 -1.2994  1.3918  0.4258
27136SOL     OW75928   2.251   7.292   7.357  0.2218  0.0005 -0.1647
27136SOL    HW175929   2.341   7.311   7.397  0.3835  0.6892 -0.8586
27136SOL    HW275930   2.261   7.238   7.274  0.1047  1.3138 -1.0550
27139SOL     OW75931   4.060   4.163   2.858 -0.0497 -0.2868  0.0951
27139SOL    HW175932   3.977   4.164   2.803 -1.0670  0.7488  1.6112
27139SOL    HW275933   4.040   4.124   2.948  0.3154  2.8445  1.6029
27140SOL     OW75934   7.182   1.693   0.233  0.4529  0.0675  0.0847
27140SOL    HW175935   7.107   1.711   0.297  0.7307  0.2730  0.3526
27140SOL    HW275936   7.184   1.595   0.212  0.3760 -0.0063  0.4090
27141SOL     OW75937   8.585   7.643   3.517 -0.6487  0.1794 -0.2504
27141SOL    HW175938   8.615   7.710   3.585  0.7570 -0.3559 -0.3383
27141SOL    HW275939   8.545   7.564   3.564  1.0087 -0.5236 -0.0075
27142SOL     OW75940   3.131   0.682   3.038  0.0771 -0.2394  0.0558
27142SOL    HW175941   3.039   0.648   3.060  0.5608 -1.3113  0.4423
27142SOL    HW275942   3.150   0.667   2.941  0.5773 -1.7789  0.3836
27143SOL     OW75943   9.861   9.206   3.183 -0.4629  0.0549 -0.0891
27143SOL    HW175944   9.931   9.147   3.224  0.3566  1.2878  0.3293
27143SOL    HW275945   9.777   9.200   3.237  0.2452  0.7855  1.1282
27144SOL     OW75946   3.900   3.329   0.837  0.1977 -0.3458  0.2258
27144SOL    HW175947   3.807   3.366   0.845  1.1358  2.0110  0.6399
27144SOL    HW275948   3.929   3.292   0.925 -0.5745 -1.6923 -0.0715
27146SOL     OW75949   7.755   5.518   7.098 -0.2271 -0.5271 -0.1352
27146SOL    HW175950   7.725   5.486   7.188 -0.1142 -1.6114 -0.4685
27146SOL    HW275951   7.854   5.529   7.098 -0.4723  1.8202  0.5858
27147SOL     OW75952   0.411   9.278   5.898 -0.0053  0.1237 -0.7393
27147SOL    HW175953   0.348   9.302   5.972  0.2468  0.8038 -0.7408
27147SOL    HW275954   0.505   9.280   5.933 -0.0058 -1.2025 -0.6573
27148SOL     OW75955   4.830   9.644   7.586 -0.3776  0.8217 -0.2108
27148SOL    HW175956   4.776   9.674   7.665 -0.9380  1.7729 -0.9481
27148SOL    HW275957   4.806   9.550   7.563 -0.0006  0.4329  0.9293
27149SOL     OW75958   9.665   5.556   4.497 -0.8522  0.3345 -0.4934
27149SOL    HW175959   9.664   5.459   4.520 -1.3705  0.3606 -0.4171
27149SOL    HW275960   9.744   5.575   4.438  0.5615  0.2851  1.3343
27150SOL     OW75961   8.109   2.682   1.099  0.4809 -0.3525 -0.3770
27150SOL    HW175962   8.129   2.711   1.005  0.7191 -2.7982 -1.1088
27150SOL    HW275963   8.097   2.583   1.102  0.2378 -0.2848  2.1508
27151SOL     OW75964   2.690   0.727   1.515  0.5949 -0.5643 -0.5721
27151SOL    HW175965   2.616   0.779   1.557  1.8475  1.6354 -1.0457
27151SOL    HW275966   2.693   0.635   1.556 -0.9887  0.0491  0.9878
27152SOL     OW75967   9.915   3.782   1.816 -0.1880  0.1387 -0.2764
27152SOL    HW175968   9.928   3.683   1.809  2.1943  0.3446  0.5478
27152SOL    HW275969   9.858   3.813   1.740  2.7088 -1.2881 -3.1920
27153SOL     OW75970   7.301   9.821   2.411 -0.1784  0.0579  0.1913
27153SOL    HW175971   7.366   9.866   2.349 -1.7313  1.3242 -0.5601
27153SOL    HW275972   7.302   9.723   2.394  2.2129 -0.0571  0.8503
27154SOL     OW75973   4.169   6.441   7.320 -0.3382 -0.7465 -0.1676
27154SOL    HW175974   4.072   6.458   7.305 -0.5343 -0.8762  0.9632
27154SOL    HW275975   4.202   6.375   7.252 -0.9580 -0.4701 -0.7463
27155SOL     OW75976   8.726   7.831   6.192  0.2790  0.4527 -0.0884
27155SOL    HW175977   8.706   7.736   6.169 -1.2584  0.4773  1.0402
27155SOL    HW275978   8.779   7.873   6.118  0.5928 -1.1488 -0.7902
27157SOL     OW75979   0.747   4.432   6.540  0.2300  0.2994  0.2701
27157SOL    HW175980   0.690   4.374   6.599 -0.6085  1.2248  0.3862
27157SOL    HW275981   0.696   4.513   6.515  0.3561 -0.3699 -2.2505
27158SOL     OW75982   0.970   5.283   1.235  0.1057  0.0450 -0.0160
27158SOL    HW175983   1.043   5.334   1.189 -0.4767  0.6085 -0.3268
27158SOL    HW275984   0.983   5.185   1.221 -1.3356  0.2831 -3.3372
27159SOL     OW75985   0.359   0.355   2.462  0.0150  0.4307  0.2753
27159SOL    HW175986   0.334   0.452   2.461 -0.3573  0.3401 -1.7769
27159SOL    HW275987   0.459   0.347   2.460  0.0239  0.7885 -1.5593
27160SOL     OW75988   1.691   4.828   1.553 -0.0206 -0.4090 -0.5686
27160SOL    HW175989   1.652   4.892   1.618  1.3328 -0.6657  0.5288
27160SOL    HW275990   1.734   4.879   1.478 -3.1252 -0.1365 -2.2547
27162SOL     OW75991   8.920   6.447   0.846 -0.2384 -0.7080 -0.4743
27162SOL    HW175992   8.878   6.419   0.932  1.7886 -0.2135  0.7246
27162SOL    HW275993   8.884   6.391   0.772 -2.7797 -0.4565  0.5055
27163SOL     OW75994   7.105   5.394   3.379 -0.3403  0.0174 -0.0396
27163SOL    HW175995   7.084   5.387   3.282 -1.0163  1.4353 -0.0048
27163SOL    HW275996   7.067   5.314   3.427 -1.0721 -0.0753 -0.7533
27164SOL     OW75997   3.143   6.690   0.754 -0.4318 -0.7177 -0.2612
27164SOL    HW175998   3.222   6.727   0.802 -1.3403  0.4253  0.3969
27164SOL    HW275999   3.155   6.702   0.656 -0.0336 -0.0582 -0.1338
27165SOL     OW76000   2.684   7.709   4.327 -0.6572 -0.3060 -0.1995
27165SOL    HW176001   2.626   7.667   4.257 -0.7440  1.6429 -1.3483
27165SOL    HW276002   2.644   7.796   4.355 -0.2279 -0.7303  1.7601
27166SOL     OW76003   0.458   8.234   4.196  0.1318  0.0520  0.0560
27166SOL    HW176004   0.419   8.299   4.131 -0.6353  1.8173  2.2199
27166SOL    HW276005   0.534   8.278   4.244 -0.1109 -0.7965  1.2189
27167SOL     OW76006   3.020   3.344   3.796 -0.5434 -0.3322 -0.7615
27167SOL    HW176007   2.993   3.314   3.887  0.4922  2.3494  0.4779
27167SOL    HW276008   3.108   3.303   3.771 -0.2549 -0.1491 -0.0450
27168SOL     OW76009   8.463   7.613   7.703  0.1277  0.0337  0.3980
27168SOL    HW176010   8.426   7.704   7.721  0.1572  0.1223  0.0273
27168SOL    HW276011   8.470   7.599   7.604 -0.0467 -0.4399  0.4504
27169SOL     OW76012   7.280   1.358   1.388 -0.3991 -0.1604  0.0546
27169SOL    HW176013   7.234   1.439   1.350  0.7527  0.1430 -0.7172
27169SOL    HW276014   7.277   1.284   1.321  0.2099 -0.1459  0.0074
27170SOL     OW76015   0.501   9.945   6.437  0.2654  0.3911 -0.3845
27170SOL    HW176016   0.558  10.024   6.414  0.1282  0.6632  0.1982
27170SOL    HW276017   0.416   9.949   6.385  0.2482  0.6406 -0.3360
27171SOL     OW76018   4.068   8.929   5.716  0.0747 -0.5875  0.8769
27171SOL    HW176019   3.972   8.955   5.715  0.3005  0.2223  0.1164
27171SOL    HW276020   4.080   8.847   5.772 -0.7009  0.7064  2.9859
27174SOL     OW76021   1.905   7.376   3.266  0.2163 -0.0304  0.3523
27174SOL    HW176022   1.928   7.419   3.179 -2.3762  0.0605 -0.3253
27174SOL    HW276023   1.896   7.277   3.252  1.2151 -0.1917  0.8327
27175SOL     OW76024   8.826   1.401   2.706  0.0235  0.1671  0.1654
27175SOL    HW176025   8.805   1.387   2.803 -0.7774  0.9508  0.1062
27175SOL    HW276026   8.904   1.343   2.680 -1.1624 -1.7003  0.7345
27176SOL     OW76027   9.568   4.978   1.677 -0.6931 -0.1915  0.0139
27176SOL    HW176028   9.629   4.935   1.742 -0.4568  0.9499  0.5545
27176SOL    HW276029   9.499   4.912   1.647 -1.1255 -0.5763  1.8190
27179SOL     OW76030   1.029   3.948   3.769 -0.1982 -0.6878 -0.1750
27179SOL    HW176031   1.126   3.926   3.766  0.4037  1.9713 -1.1712
27179SOL    HW276032   0.993   3.930   3.860  1.3873 -1.0282  0.3909
27180SOL     OW76033   8.937   1.290   3.138  0.4401 -0.3135  0.0291
27180SOL    HW176034   8.858   1.295   3.077  1.7687  0.7797 -1.6901
27180SOL    HW276035   9.015   1.250   3.089  1.7116  1.1366  0.8003
27182SOL     OW76036   3.409   6.543   5.967 -0.3117  0.1703 -0.1358
27182SOL    HW176037   3.366   6.617   6.019  1.6776  1.8232 -0.7819
27182SOL    HW276038   3.415   6.570   5.871  1.3056 -0.4270 -0.2089
27183SOL     OW76039   6.390   1.329   4.213 -0.1485 -0.4773 -0.7370
27183SOL    HW176040   6.317   1.309   4.279  0.5959 -2.0260 -0.3559
27183SOL    HW276041   6.350   1.370   4.131 -1.1339  1.0982  0.4841
27185SOL     OW76042   0.835   2.701   6.871 -0.1029 -0.3627 -0.7377
27185SOL    HW176043   0.736   2.688   6.866 -0.0195 -0.6114 -1.7609
27185SOL    HW276044   0.858   2.797   6.850 -0.3339  0.3799  2.1875
27186SOL     OW76045   2.269   2.198   7.440  0.5697  0.0671 -0.0376
27186SOL    HW176046   2.181   2.235   7.410 -0.8171 -2.7545  0.3567
27186SOL    HW276047   2.296   2.241   7.526 -1.0793  0.0539  0.5021
27187SOL     OW76048   3.198   9.711   1.852 -0.3066 -0.1648  0.0747
27187SOL    HW176049   3.129   9.689   1.783 -0.4234 -0.1560  0.1888
27187SOL    HW276050   3.181   9.802   1.890 -0.7445 -0.5067  0.7194
27188SOL     OW76051   9.313   4.109   5.902 -0.2805  0.3011 -0.1934
27188SOL    HW176052   9.341   4.035   5.963 -0.7773 -0.4790 -0.9018
27188SOL    HW276053   9.214   4.115   5.899 -0.2455  1.1907  0.0750
27189SOL     OW76054   3.221   4.894   3.567  0.2506 -0.2673  0.1224
27189SOL    HW176055   3.287   4.865   3.636 -0.0960  0.3088  0.7086
27189SOL    HW276056   3.134   4.916   3.611  0.2778  0.9305 -0.3810
27195SOL     OW76057   2.524   0.525   3.840  0.3385 -0.2035 -0.0850
27195SOL    HW176058   2.444   0.471   3.812 -0.3066  1.5682 -1.7651
27195SOL    HW276059   2.498   0.621   3.849  1.8324  0.0973  1.3756
27196SOL     OW76060   4.644   3.471   5.563  0.0257  0.6081  0.5351
27196SOL    HW176061   4.693   3.386   5.548  2.1689  1.5344  2.1198
27196SOL    HW276062   4.621   3.513   5.475 -2.2711 -2.2359 -0.2900
27197SOL     OW76063   6.060   4.830   2.563  0.6095  0.0133 -0.7854
27197SOL    HW176064   6.110   4.916   2.568  0.3006  0.0741  2.1347
27197SOL    HW276065   6.124   4.754   2.574  0.4739 -0.0147 -0.1779
27198SOL     OW76066   8.941   2.297   0.648 -0.6821  0.2742  0.1665
27198SOL    HW176067   8.880   2.222   0.623  0.2323 -0.6522  0.7092
27198SOL    HW276068   8.907   2.382   0.607 -1.8349 -0.3886 -0.2769
27199SOL     OW76069   8.620   2.489   4.911  0.0498  0.0390 -0.1899
27199SOL    HW176070   8.557   2.567   4.908 -0.6999 -0.5278  0.6597
27199SOL    HW276071   8.568   2.404   4.921  0.9787 -0.3353  1.7373
27200SOL     OW76072   1.698   9.783   6.607  0.1016 -0.2917 -0.3207
27200SOL    HW176073   1.681   9.691   6.643 -0.1693 -0.7027 -1.4565
27200SOL    HW276074   1.795   9.805   6.615  0.0182 -0.3267  0.7633
27201SOL     OW76075   6.251   8.384   2.408  0.4471 -0.7036 -0.2820
27201SOL    HW176076   6.343   8.346   2.405  0.8799  0.2174  1.0975
27201SOL    HW276077   6.188   8.318   2.449  0.5711 -1.1534 -0.8102
27202SOL     OW76078   8.900   9.147   5.571 -0.1648 -0.1554  0.2301
27202SOL    HW176079   8.864   9.089   5.498  2.2793  1.6983 -2.5128
27202SOL    HW276080   8.853   9.124   5.657 -2.7190 -2.7350 -1.7500
27203SOL     OW76081   3.309   4.431   2.655  0.3142  0.0110  0.0241
27203SOL    HW176082   3.378   4.495   2.688 -1.3669  2.2129 -0.6327
27203SOL    HW276083   3.340   4.388   2.571  0.6656  1.3986 -0.5632
27204SOL     OW76084   8.726   4.806   1.561 -0.4112 -0.3756 -0.0984
27204SOL    HW176085   8.796   4.836   1.496 -0.6219 -0.0813 -0.1892
27204SOL    HW276086   8.739   4.708   1.581  1.0417  0.0483  1.1544
27205SOL     OW76087   8.126   0.040   0.885 -0.4126 -0.2258  0.1481
27205SOL    HW176088   8.198   0.109   0.875 -1.2306  0.6066 -0.0138
27205SOL    HW276089   8.164  -0.050   0.862  0.7179  0.1240  0.5822
27206SOL     OW76090   3.423   6.843   2.732  0.3481 -0.1123  0.1878
27206SOL    HW176091   3.412   6.898   2.650  0.4275 -1.2049 -0.5605
27206SOL    HW276092   3.464   6.756   2.709  1.7897  0.1592  1.6043
27207SOL     OW76093   7.599   9.103   4.238  0.2978 -0.4688 -0.2710
27207SOL    HW176094   7.670   9.122   4.171  1.5080 -3.2604  0.1283
27207SOL    HW276095   7.607   9.166   4.316  1.6417 -0.0654 -0.7376
27208SOL     OW76096   6.907   4.674   0.300  0.0773 -0.9059 -0.0379
27208SOL    HW176097   6.916   4.585   0.256 -0.8316 -0.6210 -0.7921
27208SOL    HW276098   6.837   4.669   0.371  1.2269 -1.2427  1.1167
27209SOL     OW76099   1.248   7.109   0.949  0.4387  0.2163  0.3250
27209SOL    HW176100   1.267   7.173   1.023 -0.9838 -0.2746  1.1252
27209SOL    HW276101   1.153   7.118   0.920  0.5508 -0.6941 -0.3681
27211SOL     OW76102   2.006   9.051   2.120 -0.0195 -0.3559  0.0222
27211SOL    HW176103   1.947   8.972   2.106  0.1619 -0.1916 -1.8503
27211SOL    HW276104   1.987   9.120   2.050  1.7290  0.0810 -0.0591
27212SOL     OW76105   6.452   9.900   6.475  0.4437  0.0898 -0.5310
27212SOL    HW176106   6.479   9.920   6.570 -1.7927  0.0069  0.1332
27212SOL    HW276107   6.366   9.946   6.454  1.2491  0.6279 -2.7509
27213SOL     OW76108   8.469   9.379   0.057 -0.6475 -0.4726 -0.2282
27213SOL    HW176109   8.537   9.393   0.129  0.3599 -0.5934 -1.1376
27213SOL    HW276110   8.488   9.441  -0.019 -1.7618 -0.2737 -0.3599
27215SOL     OW76111   2.498   0.411   5.118 -0.0005 -0.1361 -0.3619
27215SOL    HW176112   2.552   0.335   5.152  1.2665  0.3520 -1.2629
27215SOL    HW276113   2.507   0.489   5.179  0.3936 -0.0232 -0.5642
27217SOL     OW76114   2.884   6.483   1.554  0.1792  0.4093 -0.4399
27217SOL    HW176115   2.870   6.434   1.468  0.1354 -1.6239  0.7026
27217SOL    HW276116   2.802   6.537   1.574 -0.1761  0.1702 -1.1991
27219SOL     OW76117   8.375   4.795   5.569 -1.2229  0.4833  0.3409
27219SOL    HW176118   8.388   4.856   5.491  0.4411  1.3281  1.2509
27219SOL    HW276119   8.413   4.838   5.651  0.0301 -1.8075  0.9828
27220SOL     OW76120   0.846   4.611   1.246 -0.2301  0.1762 -0.6384
27220SOL    HW176121   0.780   4.536   1.253  1.1544 -0.8232  2.5658
27220SOL    HW276122   0.938   4.573   1.239  0.4823  1.5657  0.9082
27221SOL     OW76123   2.431   2.099   5.215  0.2912  1.2298 -0.4279
27221SOL    HW176124   2.440   2.000   5.224  0.1432  1.2383 -0.1609
27221SOL    HW276125   2.352   2.120   5.157  0.7520  1.1827 -1.0731
27222SOL     OW76126   4.262   7.029   2.417  0.3511 -0.2592 -0.5310
27222SOL    HW176127   4.333   7.090   2.452  1.0568 -0.5830 -1.3966
27222SOL    HW276128   4.282   6.935   2.445 -0.2798 -0.2230  0.0718
27223SOL     OW76129   2.195   9.368   3.950  1.0826 -0.4000  0.3965
27223SOL    HW176130   2.248   9.290   3.983  1.2113 -1.1860 -1.6057
27223SOL    HW276131   2.225   9.392   3.858  0.9282  1.9279  0.9254
27224SOL     OW76132   8.967   7.548   6.371  0.2697 -0.4637 -0.2444
27224SOL    HW176133   8.978   7.537   6.469  0.7894 -0.4080 -0.2991
27224SOL    HW276134   9.039   7.606   6.335  0.5449 -1.1375 -0.7862
27225SOL     OW76135   9.321   2.199   5.370 -0.0004 -0.2174  0.4370
27225SOL    HW176136   9.312   2.192   5.271  0.4731 -3.2474  0.5690
27225SOL    HW276137   9.418   2.195   5.395 -0.2402 -2.3967  1.1601
27226SOL     OW76138   6.631   5.179   0.572 -0.2323 -0.0467  0.6947
27226SOL    HW176139   6.635   5.119   0.652  0.9624 -1.2261 -0.2444
27226SOL    HW276140   6.540   5.175   0.531  0.4338 -2.9009 -0.6245
27228SOL     OW76141   1.203   4.922   6.201 -0.1789 -0.8504 -0.4912
27228SOL    HW176142   1.139   4.932   6.277 -0.3415  3.6089 -1.0921
27228SOL    HW276143   1.294   4.903   6.237 -0.3091  0.9356  0.8595
27229SOL     OW76144   7.595   7.265   5.214 -0.3597 -0.1409  0.6451
27229SOL    HW176145   7.562   7.321   5.290 -0.7536 -1.1907  1.2583
27229SOL    HW276146   7.633   7.179   5.250  0.0852 -0.3386 -0.2915
27231SOL     OW76147   1.608   8.919   5.073  0.2291 -0.1470  0.8720
27231SOL    HW176148   1.585   8.824   5.055  0.1712 -0.3690  2.0953
27231SOL    HW276149   1.608   8.936   5.171  1.0814  0.9030  0.7040
27232SOL     OW76150   3.783   7.480   5.482  0.4412 -0.1525 -0.0754
27232SOL    HW176151   3.779   7.454   5.578  1.5495 -1.0296 -0.2614
27232SOL    HW276152   3.747   7.573   5.471 -0.0080 -0.1776  1.1248
27233SOL     OW76153   1.423   2.647   7.879 -0.0766  0.0336  0.3523
27233SOL    HW176154   1.511   2.687   7.852 -0.0031  1.1352  2.0804
27233SOL    HW276155   1.430   2.548   7.880  1.0174  0.1013  0.0183
27235SOL     OW76156   4.758   0.385   5.441 -0.3837  0.1523 -0.0186
27235SOL    HW176157   4.672   0.402   5.489  0.5918  0.6065  1.6018
27235SOL    HW276158   4.783   0.466   5.388 -0.6348  0.2422 -0.0008
27236SOL     OW76159   8.218   0.383   1.380  0.4737  0.8686  0.0759
27236SOL    HW176160   8.262   0.302   1.342 -2.1161 -0.9687  0.8672
27236SOL    HW276161   8.150   0.418   1.316  1.4835  2.3717 -0.2063
27237SOL     OW76162   8.240   1.975   3.173  0.3376  0.7289 -0.0265
27237SOL    HW176163   8.198   1.921   3.247 -0.4781  0.0480 -0.9767
27237SOL    HW276164   8.246   1.920   3.091 -0.6704  2.1310 -1.0743
27238SOL     OW76165   7.901   8.802   7.211 -0.2104  0.2241  0.1615
27238SOL    HW176166   7.872   8.771   7.302 -2.4224  3.5644  0.7143
27238SOL    HW276167   7.953   8.887   7.221 -0.0640  0.3512 -1.6739
27239SOL     OW76168   0.520   2.934   5.115 -0.5798 -0.0683 -0.3873
27239SOL    HW176169   0.483   2.884   5.194 -0.1133 -0.0459 -0.1497
27239SOL    HW276170   0.453   3.000   5.083 -0.6988  0.0604  0.1184
27240SOL     OW76171   1.002   9.052   5.072 -0.5686 -0.4908  0.3562
27240SOL    HW176172   1.091   9.066   5.115 -0.0808 -0.1162 -0.7626
27240SOL    HW276173   0.939   9.010   5.138  0.5098 -1.0201  1.0569
27241SOL     OW76174   1.539   7.274   7.901  0.1604  0.7165  0.0594
27241SOL    HW176175   1.466   7.207   7.891 -0.2894  0.8803  2.1220
27241SOL    HW276176   1.510   7.361   7.860 -0.5420  0.6039  0.3139
27242SOL     OW76177   8.938   1.278   7.429  0.0806  0.1895  0.1873
27242SOL    HW176178   8.873   1.328   7.486 -0.2840 -0.2603  0.1655
27242SOL    HW276179   8.973   1.338   7.358  2.0644  1.3773  2.0793
27243SOL     OW76180   7.797   7.558   1.157 -0.2436 -0.0467  0.3066
27243SOL    HW176181   7.725   7.541   1.089  1.7413 -1.8916 -1.3741
27243SOL    HW276182   7.839   7.647   1.139  0.1185 -0.4304 -0.7397
27244SOL     OW76183   4.124   9.432   0.321 -0.2489 -0.3951  0.5591
27244SOL    HW176184   4.163   9.424   0.412  3.2846 -2.4919 -1.0135
27244SOL    HW276185   4.132   9.526   0.289 -0.4270  0.0932  1.9548
27247SOL     OW76186   3.230   8.817   3.154  0.0455 -0.7295  0.1328
27247SOL    HW176187   3.314   8.870   3.153 -0.7616  0.6020 -2.0736
27247SOL    HW276188   3.249   8.725   3.118  0.4659 -0.2519 -0.8995
27248SOL     OW76189   2.516   3.672   5.182  0.1856 -0.2347  0.1529
27248SOL    HW176190   2.489   3.732   5.257 -1.2900  1.0297 -1.3327
27248SOL    HW276191   2.612   3.688   5.159  0.5618 -0.4315  1.5771
27251SOL     OW76192   0.822   7.066   6.221 -0.4799  0.3608  0.1677
27251SOL    HW176193   0.811   7.072   6.122 -0.8277 -0.5557  0.1546
27251SOL    HW276194   0.917   7.044   6.242 -0.6053 -0.3244  0.0115
27254SOL     OW76195   3.057   1.140   3.712 -0.3300  0.3037  0.2047
27254SOL    HW176196   3.055   1.199   3.793  0.4173  0.5013  0.0801
27254SOL    HW276197   3.100   1.053   3.734 -0.4333  0.2273  0.1078
27255SOL     OW76198   0.494   7.351   4.621 -0.4100  0.2313  0.5156
27255SOL    HW176199   0.505   7.254   4.643 -1.1079 -0.3904 -1.7264
27255SOL    HW276200   0.548   7.373   4.539 -2.0522  1.1984 -0.3196
27256SOL     OW76201   1.700   8.660   1.254  0.3454 -0.0669  0.0206
27256SOL    HW176202   1.723   8.729   1.322  0.9840  0.8386 -1.0901
27256SOL    HW276203   1.742   8.573   1.279 -0.3872 -0.0330  1.3852
27257SOL     OW76204   3.633   6.345   1.821  0.3093 -0.0331 -0.3838
27257SOL    HW176205   3.714   6.316   1.872  0.6484 -0.0467 -0.9274
27257SOL    HW276206   3.628   6.295   1.735  1.1009  1.7520 -1.5004
27258SOL     OW76207   8.725   2.519   5.917 -0.2762 -0.1815  0.3802
27258SOL    HW176208   8.791   2.589   5.941  0.7932 -1.4314  1.1806
27258SOL    HW276209   8.636   2.561   5.898  0.3478  1.3655  0.8599
27259SOL     OW76210   2.466   0.360   2.929  0.1849  0.1929 -0.1822
27259SOL    HW176211   2.475   0.265   2.961 -2.6470 -0.1755 -0.3295
27259SOL    HW276212   2.372   0.376   2.900  0.7651  2.9260 -0.6624
27261SOL     OW76213   0.933   9.018   4.293  0.2548 -0.2166 -0.0734
27261SOL    HW176214   0.995   9.000   4.217  1.1859 -1.0272  0.8549
27261SOL    HW276215   0.986   9.047   4.373 -0.6553  0.0409  0.4448
27262SOL     OW76216   3.035   1.645   4.339  0.2801  0.0310  0.1368
27262SOL    HW176217   3.075   1.698   4.264 -1.4350  0.6307 -0.3858
27262SOL    HW276218   3.035   1.701   4.422 -0.0475  0.2667 -0.0196
27264SOL     OW76219   9.183   3.953   3.950 -0.2232 -0.1527 -0.2560
27264SOL    HW176220   9.128   4.018   4.004 -0.5837 -0.7762  0.1341
27264SOL    HW276221   9.235   4.003   3.881  0.6718  0.7187  1.0258
27265SOL     OW76222   9.626   3.400   6.255 -0.5433  0.2390 -0.6274
27265SOL    HW176223   9.685   3.456   6.313 -1.4740  1.7906 -1.1558
27265SOL    HW276224   9.630   3.305   6.286  0.9968  0.5959  0.3249
27267SOL     OW76225   8.639   5.795   7.905 -0.6294 -0.2351  0.1710
27267SOL    HW176226   8.693   5.762   7.983  0.2597  1.6234  0.3825
27267SOL    HW276227   8.690   5.779   7.820 -1.4525 -1.9617 -0.0100
27268SOL     OW76228   0.530   7.000   3.103  0.1999  0.4201 -0.1930
27268SOL    HW176229   0.442   7.017   3.059 -0.0145 -0.2634 -0.0335
27268SOL    HW276230   0.561   7.083   3.149 -0.1329  0.8009 -0.6506
27269SOL     OW76231   8.603   9.667   1.453 -0.1261  0.5552 -0.2105
27269SOL    HW176232   8.702   9.685   1.457 -0.4452  2.1426  1.7982
27269SOL    HW276233   8.572   9.674   1.358  1.8081 -0.7677 -0.9850
27270SOL     OW76234   3.237   2.921   0.925  0.7748  0.7126 -0.8312
27270SOL    HW176235   3.265   3.014   0.902 -1.2660  1.6767  0.4860
27270SOL    HW276236   3.178   2.922   1.005 -0.7145 -1.5344 -1.8294
27271SOL     OW76237   2.962   3.027   3.122  0.0594 -0.1692 -0.2287
27271SOL    HW176238   3.007   3.105   3.165  0.8889 -0.6104 -0.2908
27271SOL    HW276239   3.006   3.007   3.035 -0.8717 -0.0079 -0.7449
27272SOL     OW76240   1.042   3.143   7.859  0.5539  0.1820  0.3770
27272SOL    HW176241   1.071   3.217   7.919  1.0590  2.0030 -2.0436
27272SOL    HW276242   1.084   3.057   7.889  1.4501  1.2100  2.1005
27273SOL     OW76243   8.732   7.848   1.890  0.6750  0.2658 -0.0158
27273SOL    HW176244   8.781   7.827   1.975  1.1654  1.2358 -0.0473
27273SOL    HW276245   8.708   7.763   1.843 -0.6050 -0.3355  1.6548
27276SOL     OW76246   3.899   0.701   3.374 -0.6725  0.4489 -0.4887
27276SOL    HW176247   3.813   0.723   3.327 -1.1088  0.7030  0.4220
27276SOL    HW276248   3.952   0.784   3.387 -0.8732  0.4915  0.0883
27278SOL     OW76249   0.525   2.947   2.079  0.2213 -0.2427  0.3300
27278SOL    HW176250   0.589   2.952   2.002 -1.3807  0.0083 -0.9949
27278SOL    HW276251   0.531   3.031   2.132  1.6134 -0.5752  0.7194
27280SOL     OW76252   2.624   8.495   4.277  0.1080  0.5550 -0.4377
27280SOL    HW176253   2.576   8.458   4.356 -1.7690  0.4834 -1.5942
27280SOL    HW276254   2.682   8.571   4.306  1.0909 -0.8292  1.3398
27281SOL     OW76255   3.151   9.628   7.577  0.2413 -0.0298 -0.0706
27281SOL    HW176256   3.197   9.716   7.565  2.0747 -0.5536  2.4987
27281SOL    HW276257   3.062   9.643   7.620  1.0175  0.5328  1.3864
27282SOL     OW76258   9.894   7.865   3.091  0.7788  0.1380 -0.4488
27282SOL    HW176259   9.942   7.951   3.110 -0.8360  1.1779 -0.9440
27282SOL    HW276260   9.934   7.820   3.012  1.3531  0.6608 -0.4565
27283SOL     OW76261   5.801   7.421   3.074 -0.0000  0.2970 -0.3502
27283SOL    HW176262   5.830   7.370   3.155  0.8721 -0.9315 -1.4189
27283SOL    HW276263   5.878   7.476   3.041  0.8673 -2.1494 -2.5702
27284SOL     OW76264   8.724   0.385   6.697  0.0397 -0.5205 -0.3649
27284SOL    HW176265   8.799   0.415   6.639  0.6582 -1.8391 -0.2728
27284SOL    HW276266   8.710   0.287   6.685 -1.5553 -0.3266 -0.2475
27287SOL     OW76267   3.472   6.839   7.470  0.4126 -0.5800 -0.2698
27287SOL    HW176268   3.463   6.888   7.556  0.6208 -0.7255 -0.1649
27287SOL    HW276269   3.412   6.880   7.402 -0.3588 -0.9689  0.1705
27288SOL     OW76270   3.172   6.859   3.433 -0.3382 -0.6494  0.1806
27288SOL    HW176271   3.164   6.765   3.399  0.2614 -0.0147 -1.7900
27288SOL    HW276272   3.197   6.920   3.357  0.2694  0.9461  1.6270
27289SOL     OW76273   7.874   7.766   2.857  0.1806  0.2805 -0.6819
27289SOL    HW176274   7.936   7.775   2.935 -2.2403 -0.8907  1.4692
27289SOL    HW276275   7.844   7.858   2.829 -0.3787  0.6487  1.0224
27290SOL     OW76276   4.989   6.141   2.957 -0.2726  0.0132  0.6084
27290SOL    HW176277   4.906   6.160   3.009 -0.3150 -2.0095  1.3160
27290SOL    HW276278   4.993   6.201   2.878 -3.4558 -1.2435 -0.5794
27291SOL     OW76279   8.101   5.576   7.735 -1.0302  0.5866  0.2428
27291SOL    HW176280   8.119   5.559   7.638 -2.4430  1.2182 -0.1516
27291SOL    HW276281   8.115   5.492   7.787  1.5891  0.7140 -0.2184
27292SOL     OW76282   9.607   8.611   4.135 -0.2881 -0.8079  0.2643
27292SOL    HW176283   9.581   8.680   4.203 -1.9178 -0.4704 -0.7013
27292SOL    HW276284   9.562   8.630   4.048 -0.8212 -3.1251 -0.0078
27293SOL     OW76285   2.568   3.488   7.637 -0.0725  0.3225  0.4287
27293SOL    HW176286   2.509   3.450   7.566 -1.0884  0.6323  1.0877
27293SOL    HW276287   2.512   3.543   7.700  0.9155  0.5740  1.0915
27294SOL     OW76288   7.112   3.389   0.454  0.4019  0.2436  0.2404
27294SOL    HW176289   7.099   3.463   0.520  1.5265  0.6778 -0.0207
27294SOL    HW276290   7.199   3.343   0.471  0.5579  0.1523 -0.7491
27295SOL     OW76291   4.787   8.740   2.865  0.3282 -0.5192 -0.0530
27295SOL    HW176292   4.838   8.712   2.946 -2.9031  2.0107  2.9945
27295SOL    HW276293   4.829   8.821   2.825  0.7011 -0.5082  0.3639
27296SOL     OW76294   1.483   3.933   2.971  0.4647 -0.5157 -0.4475
27296SOL    HW176295   1.483   3.833   2.979 -0.2150 -0.4596  0.3334
27296SOL    HW276296   1.412   3.962   2.907  0.2522 -0.5023 -0.2072
27297SOL     OW76297   4.595   0.326   3.109  0.6742  0.1593 -0.0442
27297SOL    HW176298   4.583   0.382   3.027  0.4827  0.1866  0.0031
27297SOL    HW276299   4.556   0.373   3.188  1.8471  0.6352  0.2642
27298SOL     OW76300   9.425   3.352   5.969  0.6031  0.6158  0.5008
27298SOL    HW176301   9.471   3.391   5.890  1.4449 -0.7930  0.2913
27298SOL    HW276302   9.476   3.273   6.002 -1.7251 -1.0474  0.1965
27299SOL     OW76303   0.251   1.153   6.279  0.2458 -0.0081 -0.0448
27299SOL    HW176304   0.249   1.175   6.181  0.9421  2.0984  0.3821
27299SOL    HW276305   0.345   1.142   6.309  0.0470 -0.3323  0.4672
27300SOL     OW76306   1.988   0.892   2.068  0.4201  0.0764  0.3066
27300SOL    HW176307   1.915   0.853   2.123 -0.6221  1.3952 -0.1029
27300SOL    HW276308   1.998   0.840   1.983 -0.7805  0.5333 -0.1241
27301SOL     OW76309   3.361   2.537   2.457  0.5695  0.0190 -0.1779
27301SOL    HW176310   3.267   2.527   2.425  0.5223  1.6093 -0.5943
27301SOL    HW276311   3.376   2.632   2.484  1.3768 -0.7170  2.0637
27302SOL     OW76312   0.325   9.950   4.530  0.0733 -0.0819 -0.6174
27302SOL    HW176313   0.354  10.001   4.450 -0.6516  0.2566 -0.6719
27302SOL    HW276314   0.229   9.971   4.550  0.1087 -0.5289  0.0502
27303SOL     OW76315   2.926   3.327   2.940  0.1034 -0.3854  0.1270
27303SOL    HW176316   2.944   3.235   2.974  0.2194 -0.3785  0.0818
27303SOL    HW276317   2.994   3.391   2.976 -0.2392 -0.2362  0.5200
27304SOL     OW76318   0.200   7.653   0.599  0.5554  0.0119  0.3822
27304SOL    HW176319   0.228   7.746   0.619  0.5891 -0.3065  1.9032
27304SOL    HW276320   0.146   7.617   0.675 -0.6966 -0.7177 -0.8104
27305SOL     OW76321   8.371   7.963   3.938 -0.1524  0.0461 -0.4796
27305SOL    HW176322   8.351   8.023   3.860  0.1024  0.8584  0.0713
27305SOL    HW276323   8.327   7.999   4.020  0.2122 -0.3886 -0.0884
27307SOL     OW76324   8.367   9.372   6.629 -0.7977 -0.1602  0.1073
27307SOL    HW176325   8.375   9.309   6.706  0.6930 -0.0409  0.0637
27307SOL    HW276326   8.391   9.465   6.660 -0.7458 -0.0141 -0.3745
27308SOL     OW76327   2.218   7.094   5.564  0.0365 -0.4248  0.1197
27308SOL    HW176328   2.188   7.074   5.471  1.1413  0.2394 -0.3925
27308SOL    HW276329   2.236   7.192   5.573 -1.0244 -0.3271  1.3266
27309SOL     OW76330   2.855   5.997   6.225 -0.4567  0.0782 -0.6371
27309SOL    HW176331   2.934   5.988   6.164 -0.5560 -0.0621 -0.7436
27309SOL    HW276332   2.850   6.091   6.258 -0.7328  0.2917 -1.2830
27310SOL     OW76333   0.820   8.862   1.315  0.0287  0.0691  0.6094
27310SOL    HW176334   0.762   8.823   1.244 -1.3633 -0.6628  2.1292
27310SOL    HW276335   0.837   8.793   1.386  1.9365  0.5852  0.6804
27312SOL     OW76336   4.386   2.530   0.378 -0.3572 -0.3584 -0.8470
27312SOL    HW176337   4.401   2.433   0.363  0.4145 -0.2275 -0.9632
27312SOL    HW276338   4.325   2.566   0.307 -0.5396 -0.7325 -0.8771
27313SOL     OW76339   9.364   1.904   1.741  0.0121  0.3380 -0.4037
27313SOL    HW176340   9.434   1.854   1.793 -0.7166  0.3703  0.6269
27313SOL    HW276341   9.274   1.889   1.784 -0.4164  1.3745 -0.9372
27314SOL     OW76342   0.461   0.917   0.773  0.4208 -0.0210 -0.1105
27314SOL    HW176343   0.371   0.880   0.751 -0.0837  0.1626  1.5742
27314SOL    HW276344   0.459   0.959   0.864  2.5617 -1.1635  0.4979
27315SOL     OW76345   3.277   3.933   1.497  0.0110  0.0649  0.3714
27315SOL    HW176346   3.184   3.959   1.525  0.0123  2.0636 -1.3720
27315SOL    HW276347   3.280   3.925   1.398  1.3276 -1.6281  0.5313
27316SOL     OW76348   9.290   4.951   4.681 -0.3659  0.0438 -0.3381
27316SOL    HW176349   9.208   4.897   4.701  0.2150 -1.8510 -2.7130
27316SOL    HW276350   9.371   4.898   4.706  0.1706  0.9134 -0.2344
27317SOL     OW76351   8.235   1.193   5.378  0.3887  0.3763 -0.1722
27317SOL    HW176352   8.160   1.145   5.332 -1.1400 -0.1235  2.7257
27317SOL    HW276353   8.200   1.277   5.419  1.0676 -0.5519  2.3882
27318SOL     OW76354   1.311   2.613   4.764  0.4154  0.0456  0.0200
27318SOL    HW176355   1.283   2.576   4.676  0.2298  0.6259 -0.1711
27318SOL    HW276356   1.248   2.686   4.791  1.6380  1.2538 -0.3331
27320SOL     OW76357   6.050   2.558   1.782  0.4100  0.3954  0.1429
27320SOL    HW176358   6.049   2.458   1.774  1.5236  0.3141  0.9426
27320SOL    HW276359   6.134   2.593   1.739 -0.6219  1.1029 -1.3387
27321SOL     OW76360   0.595   5.862   5.933 -0.1868  0.3977 -0.1534
27321SOL    HW176361   0.663   5.833   5.866  2.6217 -0.5238  2.9602
27321SOL    HW276362   0.587   5.961   5.933  1.5149  0.5438 -0.2413
27322SOL     OW76363   2.603   1.341   2.284 -0.5437 -0.2959 -0.2600
27322SOL    HW176364   2.672   1.412   2.294 -0.3803  0.0702 -3.4102
27322SOL    HW276365   2.589   1.295   2.371  1.3919  1.7138  1.1533
27323SOL     OW76366   5.802   8.309   2.495  0.1273 -0.0206  0.2721
27323SOL    HW176367   5.775   8.337   2.403  0.3801 -2.2204 -0.5100
27323SOL    HW276368   5.782   8.382   2.560  2.0418  2.4551 -1.8474
27324SOL     OW76369   1.407   3.744   0.470 -0.7992 -0.4977 -0.1658
27324SOL    HW176370   1.377   3.795   0.389 -1.1884 -0.8120 -0.2218
27324SOL    HW276371   1.349   3.664   0.482 -1.5175  0.2012  1.1143
27325SOL     OW76372   7.490   4.269   1.306 -0.1474 -0.5566 -0.8050
27325SOL    HW176373   7.438   4.335   1.251 -2.1297 -0.6763  0.8434
27325SOL    HW276374   7.448   4.178   1.297 -0.1783 -0.6792  0.4487
27326SOL     OW76375   5.354   6.540   2.419  0.2548 -0.1883 -0.0556
27326SOL    HW176376   5.420   6.583   2.480  0.3007 -0.9803  0.4484
27326SOL    HW276377   5.332   6.448   2.451  0.3758 -0.6662 -1.3047
27327SOL     OW76378   9.722   4.313   6.438 -0.0266 -0.5693  0.1939
27327SOL    HW176379   9.727   4.370   6.356  0.2739 -0.6552  0.1519
27327SOL    HW276380   9.795   4.339   6.502  1.2577 -2.1276 -0.6087
27328SOL     OW76381   5.258   2.010   0.566 -0.0721  0.2954  0.1112
27328SOL    HW176382   5.305   2.066   0.497  0.5255  0.5460  0.7194
27328SOL    HW276383   5.313   2.006   0.649  0.4061 -2.0560 -0.2785
27329SOL     OW76384   5.482   2.458   1.302 -0.3064  0.0360  0.1240
27329SOL    HW176385   5.463   2.460   1.204 -1.3886 -0.2689  0.3168
27329SOL    HW276386   5.452   2.544   1.344  0.3714  0.2612  0.1509
27330SOL     OW76387   9.171   9.875   1.682 -0.0759  0.0395 -0.5430
27330SOL    HW176388   9.207   9.922   1.601 -0.8560  2.2338  0.3467
27330SOL    HW276389   9.176   9.776   1.667  3.9237  0.2803 -1.4591
27332SOL     OW76390   0.354   4.365   0.826 -0.5210  0.4493 -0.3996
27332SOL    HW176391   0.336   4.344   0.922  0.1049  1.0669 -0.1457
27332SOL    HW276392   0.407   4.291   0.785  0.8854  1.0700  0.2478
27334SOL     OW76393   9.890   1.972   3.069 -0.1235 -0.3570 -0.0986
27334SOL    HW176394   9.883   1.944   3.165 -0.5099 -0.5481 -0.1801
27334SOL    HW276395   9.802   1.958   3.024 -0.9997  3.0521  0.4114
27335SOL     OW76396   5.561   3.427   1.235  0.5103  0.0135  0.2033
27335SOL    HW176397   5.500   3.354   1.265  1.2062 -0.7920 -0.3229
27335SOL    HW276398   5.577   3.419   1.136  2.3335 -0.4474  0.5209
27336SOL     OW76399   8.474   6.924   7.292 -0.1149  0.3899  0.0372
27336SOL    HW176400   8.544   6.870   7.246  0.1296  0.6284  0.1258
27336SOL    HW276401   8.506   7.018   7.303 -1.5003  1.1929 -2.3192
27337SOL     OW76402   7.803   1.596   0.661  0.5544  0.4425 -0.7419
27337SOL    HW176403   7.860   1.640   0.731  0.3967 -1.1751  0.4081
27337SOL    HW276404   7.769   1.509   0.695 -0.6771  0.2867 -2.3234
27338SOL     OW76405   3.675   8.102   6.463  0.4137  0.5830  0.5397
27338SOL    HW176406   3.634   8.085   6.553  1.8406 -1.4182  0.8351
27338SOL    HW276407   3.712   8.017   6.427 -1.2618  1.0937 -2.5500
27339SOL     OW76408   7.766   5.492   3.574  0.3104  0.1908  0.0729
27339SOL    HW176409   7.783   5.559   3.501  1.8011 -1.3015 -1.0119
27339SOL    HW276410   7.848   5.435   3.585 -1.1727 -1.8956  0.4889
27340SOL     OW76411   0.340   5.584   0.282  0.1182 -0.6082 -0.2603
27340SOL    HW176412   0.287   5.636   0.215  0.4142 -0.8129 -0.6525
27340SOL    HW276413   0.319   5.617   0.374  1.2060  1.0290 -0.5846
27341SOL     OW76414   4.293   5.763   0.638  0.4078 -0.3151  0.1732
27341SOL    HW176415   4.368   5.799   0.582  0.5316 -2.4226 -1.0686
27341SOL    HW276416   4.244   5.839   0.680  1.3166  1.2488 -1.4950
27342SOL     OW76417   6.276   8.818   3.480  0.8333  0.1052  0.2926
27342SOL    HW176418   6.345   8.887   3.459  0.7415  0.3466  0.7831
27342SOL    HW276419   6.225   8.845   3.561 -0.8474  0.6912 -0.9177
27343SOL     OW76420   9.799   1.173   2.020  0.3844  0.0379 -0.1509
27343SOL    HW176421   9.734   1.142   2.090 -0.1429  0.2581 -0.5424
27343SOL    HW276422   9.859   1.243   2.059 -1.2569  1.6711 -0.4916
27344SOL     OW76423   8.606   8.221   1.947  0.2913  0.3436 -0.9040
27344SOL    HW176424   8.624   8.316   1.972 -0.2733  0.3587 -0.5514
27344SOL    HW276425   8.637   8.205   1.853 -1.4999  1.4370 -1.7029
27345SOL     OW76426   0.041   4.605   1.477  0.0479 -0.4249  0.5533
27345SOL    HW176427   0.021   4.563   1.389 -2.1576  0.3124  0.6793
27345SOL    HW276428   0.121   4.666   1.467  0.5776 -1.2891 -0.6251
27346SOL     OW76429   2.661   6.549   4.812 -0.6865  0.2577 -0.0674
27346SOL    HW176430   2.600   6.470   4.812 -0.2002 -0.1574  2.0126
27346SOL    HW276431   2.752   6.521   4.782 -0.8105  0.2783 -0.4623
27347SOL     OW76432   8.595   8.182   5.738  0.5660 -0.3401 -0.5976
27347SOL    HW176433   8.674   8.123   5.754 -1.5937 -3.1961 -0.0592
27347SOL    HW276434   8.558   8.162   5.647  0.0433  0.4693 -0.5553
27348SOL     OW76435   2.704   7.755   7.834 -0.5041  0.1891  0.7745
27348SOL    HW176436   2.661   7.669   7.808  0.3614 -0.1992  0.6051
27348SOL    HW276437   2.724   7.809   7.752 -0.4652  0.2614  0.8312
27350SOL     OW76438   3.811   5.852   4.237 -0.6436  0.7027 -0.2249
27350SOL    HW176439   3.724   5.802   4.232 -0.6763  0.5571  1.4631
27350SOL    HW276440   3.805   5.935   4.181 -2.0483  0.9613  0.2900
27351SOL     OW76441   9.086   8.529   6.033  0.6685 -0.4351  0.2846
27351SOL    HW176442   9.084   8.546   5.935  1.5467 -2.5841 -0.1245
27351SOL    HW276443   9.157   8.585   6.075 -1.1949  2.2015  0.0878
27352SOL     OW76444   9.857   4.414   6.113 -0.0952 -0.1868  0.3546
27352SOL    HW176445   9.821   4.482   6.176 -1.5346 -2.0974  1.6689
27352SOL    HW276446   9.927   4.455   6.055 -1.9060  2.7126  0.1627
27353SOL     OW76447   5.591   9.114   5.712 -0.7573 -0.4368 -0.6694
27353SOL    HW176448   5.523   9.098   5.640 -0.1152 -1.4423 -1.0632
27353SOL    HW276449   5.674   9.151   5.671 -1.0860  0.8781 -0.1736
27354SOL     OW76450   3.254   0.096   1.727  0.0080 -0.4638 -0.5440
27354SOL    HW176451   3.271   0.057   1.818 -2.5558 -1.4343 -0.4347
27354SOL    HW276452   3.283   0.191   1.726  1.3170 -0.8152  0.8739
27355SOL     OW76453   8.571   2.880   1.514 -0.0112 -0.3101  0.3245
27355SOL    HW176454   8.600   2.973   1.537 -1.4254  0.3143 -0.3771
27355SOL    HW276455   8.510   2.845   1.585 -1.1180  0.0806 -0.4198
27357SOL     OW76456   3.597   3.221   0.113 -0.4881 -0.4082 -0.6043
27357SOL    HW176457   3.656   3.233   0.192 -1.0645  2.2128 -0.5045
27357SOL    HW276458   3.628   3.143   0.059  2.1832  0.0448  0.2043
27359SOL     OW76459   7.823   3.152   5.239  0.3813  0.1513 -0.0786
27359SOL    HW176460   7.773   3.118   5.318  0.2851 -0.2120 -0.2932
27359SOL    HW276461   7.920   3.162   5.262  0.3402  0.1178  0.1074
27361SOL     OW76462   9.974   0.277   1.036  0.7566 -0.0268 -0.1955
27361SOL    HW176463   9.886   0.306   0.999  0.6177 -2.0391 -1.5673
27361SOL    HW276464  10.043   0.276   0.963  1.2232 -1.0886  0.2359
27362SOL     OW76465   1.334   1.161   4.470  0.2030 -0.3576 -0.5630
27362SOL    HW176466   1.407   1.095   4.488  0.6677 -0.0516 -1.3351
27362SOL    HW276467   1.339   1.192   4.376 -0.2220  0.5428 -0.2929
27363SOL     OW76468   3.907   8.038   7.616  0.1527 -0.1066  0.1961
27363SOL    HW176469   3.965   7.973   7.568 -0.5216 -1.7075  1.5071
27363SOL    HW276470   3.960   8.119   7.641  1.4397 -0.9165  0.0910
27364SOL     OW76471   8.845   2.834   0.565 -0.0765  0.0596 -0.1887
27364SOL    HW176472   8.904   2.902   0.524  1.2315 -0.8494  0.1566
27364SOL    HW276473   8.900   2.769   0.618 -1.2847 -1.2708 -0.5310
27365SOL     OW76474   2.982   1.172   0.282  0.2322 -0.1459  0.1886
27365SOL    HW176475   2.940   1.087   0.315 -0.4693  0.3559  0.5978
27365SOL    HW276476   3.012   1.159   0.187  0.3890 -0.9380  0.3421
27367SOL     OW76477   9.681   1.302   0.797 -0.6967 -0.3961 -0.7817
27367SOL    HW176478   9.759   1.365   0.795  1.6477 -3.1005  0.7653
27367SOL    HW276479   9.609   1.341   0.853  0.8248  0.7994  0.4030
27368SOL     OW76480   9.293   6.395   1.222 -0.1547 -0.5368  0.1939
27368SOL    HW176481   9.337   6.392   1.133  0.0385  0.4663  0.2544
27368SOL    HW276482   9.253   6.486   1.237 -1.7601 -1.2473  0.3669
27370SOL     OW76483   1.789   6.468   1.160 -0.1353  0.2237  0.0022
27370SOL    HW176484   1.721   6.494   1.228 -0.2738  0.8385 -0.3662
27370SOL    HW276485   1.848   6.397   1.198 -1.0681 -0.4170  0.2669
27371SOL     OW76486   9.330   7.978   0.323  0.6248 -0.2761  0.6503
27371SOL    HW176487   9.307   7.919   0.245  0.7730  0.1756  0.2647
27371SOL    HW276488   9.251   7.983   0.385 -0.3793  1.3006 -0.6924
27372SOL     OW76489   6.372   0.780   1.597  0.1016 -0.0947 -0.1609
27372SOL    HW176490   6.362   0.856   1.532 -1.4707  1.1408  1.4617
27372SOL    HW276491   6.292   0.720   1.590  0.6206 -0.7682 -0.3657
27373SOL     OW76492   9.162   3.912   3.203  0.0238  0.5492 -0.5004
27373SOL    HW176493   9.174   3.959   3.290 -1.0914 -2.5632  1.4227
27373SOL    HW276494   9.065   3.913   3.178  0.2076  0.5979 -1.2243
27374SOL     OW76495   4.995   2.989   6.968  0.1652 -0.8592  0.4059
27374SOL    HW176496   4.978   2.892   6.958  0.9761 -0.8543 -1.0941
27374SOL    HW276497   5.004   3.032   6.878  0.1577  0.5424  1.0476
27375SOL     OW76498   0.534   3.352   0.312 -0.5397 -0.5153  0.7068
27375SOL    HW176499   0.608   3.338   0.377 -0.7375 -3.1467  0.4049
27375SOL    HW276500   0.451   3.308   0.345 -1.0608 -0.5164 -0.5671
27376SOL     OW76501   3.693   5.354   3.851 -0.5462  0.2347 -0.6416
27376SOL    HW176502   3.757   5.392   3.784 -0.6958  0.5301 -0.6199
27376SOL    HW276503   3.630   5.292   3.805  0.2505 -0.6733 -0.5283
27377SOL     OW76504   6.232   4.113   0.656  0.2820 -0.0514 -0.2438
27377SOL    HW176505   6.277   4.078   0.738 -0.8071  0.5132  0.6141
27377SOL    HW276506   6.138   4.080   0.653  0.1067  0.4991 -0.9073
27378SOL     OW76507   2.934   5.142   3.349  0.1705 -0.1487  0.3174
27378SOL    HW176508   2.897   5.180   3.264  0.2594 -0.9945 -0.1007
27378SOL    HW276509   2.870   5.076   3.387  0.7350 -0.7611  0.2053
27380SOL     OW76510   8.552   7.178   1.076 -0.2703  0.2555 -0.1657
27380SOL    HW176511   8.622   7.249   1.090 -1.8192  1.1843  3.4299
27380SOL    HW276512   8.597   7.089   1.070  1.3673  1.0147  0.3266
27381SOL     OW76513   3.178   7.628   1.793 -0.0970 -0.0238 -0.2049
27381SOL    HW176514   3.192   7.655   1.888 -3.5097 -0.3564  0.4604
27381SOL    HW276515   3.104   7.682   1.753  0.4754 -0.7295 -2.3112
27382SOL     OW76516   6.623   0.073   2.820  0.2998  0.0523 -0.1966
27382SOL    HW176517   6.626  -0.001   2.753 -1.8384 -1.2984  1.1254
27382SOL    HW276518   6.587   0.156   2.777 -0.5114 -0.6407 -0.8812
27383SOL     OW76519   9.525   8.645   4.854  0.4406 -0.4327  0.1973
27383SOL    HW176520   9.439   8.664   4.806  1.7539  1.9579 -1.2962
27383SOL    HW276521   9.596   8.623   4.787  1.7605  0.7706  1.1781
27384SOL     OW76522   1.067   8.721   7.511  0.3333  0.2710 -0.1891
27384SOL    HW176523   1.128   8.773   7.452 -0.6826 -0.3268 -1.8256
27384SOL    HW276524   1.003   8.782   7.556  1.6540  0.8226  0.9675
27386SOL     OW76525   9.411   0.631   2.223 -0.6074  0.1791  0.3182
27386SOL    HW176526   9.398   0.535   2.249 -0.9150  0.1613  0.1083
27386SOL    HW276527   9.414   0.638   2.123 -1.1713  0.4601  0.3179
27389SOL     OW76528   6.946   2.481   4.859 -0.3882 -0.0001  0.7135
27389SOL    HW176529   7.032   2.446   4.896 -0.1292  0.2576  0.3602
27389SOL    HW276530   6.935   2.576   4.886 -1.7957 -0.7514  2.8995
27390SOL     OW76531   7.963   2.362   5.142  0.5038 -0.1128 -0.0582
27390SOL    HW176532   8.021   2.281   5.149  0.7757  0.1438  0.7076
27390SOL    HW276533   8.019   2.441   5.118  0.1031 -0.3187 -1.7194
27391SOL     OW76534   0.598   8.736   7.379 -0.7121  0.5652 -0.1838
27391SOL    HW176535   0.503   8.712   7.358 -0.8136  1.0388 -0.2838
27391SOL    HW276536   0.643   8.769   7.296 -0.9490  1.9141  0.2086
27392SOL     OW76537   3.733   4.077   3.722 -0.3391  0.3759  0.5532
27392SOL    HW176538   3.667   4.151   3.713 -2.1227 -1.0858  1.2456
27392SOL    HW276539   3.699   4.010   3.789  1.1737 -1.1050 -0.1188
27393SOL     OW76540   9.283   8.949   4.592  0.5922 -0.0788  0.0364
27393SOL    HW176541   9.308   8.944   4.496 -1.7488 -0.1782 -0.6043
27393SOL    HW276542   9.187   8.978   4.600  0.6605 -0.3899  2.3065
27394SOL     OW76543   0.900   5.451   0.049 -0.4522 -0.1056 -0.2803
27394SOL    HW176544   1.000   5.451   0.052 -0.3917  3.3558 -0.2961
27394SOL    HW276545   0.864   5.438   0.142  0.0335  0.5492 -0.0005
27395SOL     OW76546   6.914   6.948   3.713  0.1886  0.3601  0.0797
27395SOL    HW176547   6.872   7.002   3.640  0.3421  2.6127  1.5854
27395SOL    HW276548   6.976   7.007   3.766  3.2854 -2.2234 -0.5069
27397SOL     OW76549   9.872   7.074   2.027 -0.3381 -0.5495 -0.4630
27397SOL    HW176550   9.882   7.114   2.118 -0.7645 -2.5149  0.4785
27397SOL    HW276551   9.955   7.091   1.974 -0.0350  0.5119  0.3256
27399SOL     OW76552   3.483   1.344   3.544 -0.5322 -0.6505  0.0799
27399SOL    HW176553   3.422   1.375   3.617 -0.4378 -0.5877  0.1316
27399SOL    HW276554   3.431   1.330   3.460 -0.7563 -1.3277  0.3284
27400SOL     OW76555   9.659   2.625   5.565  0.2141 -0.4826  0.2306
27400SOL    HW176556   9.657   2.584   5.655 -0.1628  0.4300  0.6483
27400SOL    HW276557   9.565   2.644   5.534  0.4036  0.8646  0.4333
27401SOL     OW76558   2.904   6.332   5.473 -0.1170  0.0650  0.2752
27401SOL    HW176559   2.978   6.390   5.438  0.8632  0.7556  3.2848
27401SOL    HW276560   2.940   6.243   5.499 -0.8599 -0.5188 -0.6783
27402SOL     OW76561   3.364   2.115   6.941 -0.4650 -0.7424  0.4008
27402SOL    HW176562   3.316   2.140   7.025 -0.1010 -1.5729  0.8540
27402SOL    HW276563   3.325   2.030   6.904 -1.6812  0.4390 -1.1240
27403SOL     OW76564   2.761   5.080   4.953 -0.2119  0.4242 -0.0345
27403SOL    HW176565   2.719   5.105   4.866  0.6905  0.9864 -0.3194
27403SOL    HW276566   2.844   5.135   4.967  0.6932 -0.9804  0.2748
27404SOL     OW76567   2.789   2.584   5.344  0.0295  0.0441 -0.2199
27404SOL    HW176568   2.718   2.645   5.309  1.9749  0.9716 -2.6562
27404SOL    HW276569   2.810   2.514   5.276 -0.3753 -1.8429  1.5342
27405SOL     OW76570   1.457   8.930   5.593  0.1653  0.0660 -0.0379
27405SOL    HW176571   1.499   8.863   5.531 -1.8674 -1.4427  0.1504
27405SOL    HW276572   1.406   8.997   5.540  0.7894  0.4663 -0.1361
27406SOL     OW76573   1.984   3.897   1.534  0.5457 -0.4668 -0.0597
27406SOL    HW176574   2.067   3.938   1.571  0.3270 -0.0288 -0.0606
27406SOL    HW276575   1.910   3.904   1.600  0.8127 -1.9087  0.4171
27407SOL     OW76576   3.443   5.010   2.225 -0.3204 -0.3658 -0.6497
27407SOL    HW176577   3.429   5.005   2.126  0.9797 -0.3597 -0.8481
27407SOL    HW276578   3.541   5.006   2.244 -0.6310 -1.9071  0.7225
27408SOL     OW76579   0.099   2.294   5.867  0.1496 -0.1013 -0.0216
27408SOL    HW176580   0.177   2.313   5.926  0.9152  1.1648 -1.4125
27408SOL    HW276581   0.104   2.200   5.834  0.1786 -0.5486  1.2040
27409SOL     OW76582   1.004   3.739   7.417  0.6108 -0.5285 -0.8064
27409SOL    HW176583   0.929   3.675   7.395  0.9912 -1.5083  0.6717
27409SOL    HW276584   1.086   3.710   7.368 -0.0234  0.7313 -2.6822
27411SOL     OW76585   6.541   2.817   1.264 -0.0973  0.3585 -0.2856
27411SOL    HW176586   6.493   2.847   1.181 -0.4029  0.4053 -0.0924
27411SOL    HW276587   6.640   2.817   1.247 -0.1455  0.5923 -0.5770
27412SOL     OW76588   8.507   0.636   1.685 -0.0228 -0.8713  0.5581
27412SOL    HW176589   8.423   0.582   1.679  0.5400 -1.8698  1.4879
27412SOL    HW276590   8.573   0.601   1.620 -1.2260  1.5992 -2.0724
27413SOL     OW76591   3.781   7.512   2.209 -0.4999 -0.0790 -0.3801
27413SOL    HW176592   3.743   7.604   2.214 -0.2240  0.0255 -0.1561
27413SOL    HW276593   3.853   7.509   2.139 -0.4046 -0.0863 -0.2818
27414SOL     OW76594   6.663   9.673   4.844 -0.3588  0.1999  0.5125
27414SOL    HW176595   6.642   9.585   4.801  2.2323 -0.3721  0.3320
27414SOL    HW276596   6.694   9.737   4.774 -1.3969  0.9855  0.7724
27415SOL     OW76597   5.960   9.360   1.661 -0.1953  0.0039 -0.0676
27415SOL    HW176598   5.970   9.295   1.586 -2.7207 -0.0902 -0.3787
27415SOL    HW276599   5.897   9.323   1.729  2.8631 -0.3537  2.6485
27416SOL     OW76600   3.033   4.228   1.627 -0.1581 -0.0274  0.5161
27416SOL    HW176601   3.043   4.242   1.726  0.7616 -1.2717  0.6062
27416SOL    HW276602   3.019   4.131   1.609  1.0359  0.0219 -0.6957
27417SOL     OW76603   1.562   0.736   5.245 -0.0998  0.2844 -0.1621
27417SOL    HW176604   1.641   0.792   5.271 -0.0239  0.4140 -0.6681
27417SOL    HW276605   1.553   0.660   5.309  0.3439  0.3571 -0.0074
27418SOL     OW76606   1.434   9.493   5.737 -0.6315 -0.1103  0.2741
27418SOL    HW176607   1.371   9.479   5.813 -0.3358  0.9516  0.7174
27418SOL    HW276608   1.528   9.496   5.773 -0.3688 -1.1616 -0.3178
27419SOL     OW76609   8.126   8.306   0.767 -0.2548  0.0292 -0.1110
27419SOL    HW176610   8.098   8.210   0.757  1.3324 -0.4828  0.1916
27419SOL    HW276611   8.163   8.339   0.680  2.1417 -0.6317  0.6260
27421SOL     OW76612   9.624   4.835   5.213  0.1846 -0.1424 -0.1879
27421SOL    HW176613   9.599   4.782   5.132 -0.3928 -0.0791 -0.0565
27421SOL    HW276614   9.680   4.779   5.274 -0.7075 -0.7115  0.1089
27422SOL     OW76615   9.769   5.102   6.162  0.0747 -0.4530 -0.5053
27422SOL    HW176616   9.822   5.138   6.085 -2.4988  1.9871 -1.2119
27422SOL    HW276617   9.707   5.031   6.129 -0.9410  0.5088 -0.7107
27424SOL     OW76618   2.147   1.391   4.305 -0.2344 -0.5507 -0.1399
27424SOL    HW176619   2.082   1.401   4.381 -0.6816 -1.3354 -0.4094
27424SOL    HW276620   2.100   1.351   4.227  0.0219  1.0134 -1.1213
27426SOL     OW76621   7.752   5.572   5.362 -0.6083  0.4266 -0.1964
27426SOL    HW176622   7.680   5.607   5.301 -0.0570  1.7879 -0.0736
27426SOL    HW276623   7.720   5.577   5.457 -1.9162 -2.7429 -0.3793
27427SOL     OW76624   7.188   5.550   7.538 -0.0677  0.8030  0.0367
27427SOL    HW176625   7.177   5.451   7.545  0.1068  0.8705  1.3194
27427SOL    HW276626   7.282   5.571   7.512 -0.6865  0.5617 -2.5687
27429SOL     OW76627   0.116   6.664   3.167  0.0914 -0.4741 -0.1844
27429SOL    HW176628   0.044   6.597   3.149  0.2650 -1.1938  1.6314
27429SOL    HW276629   0.204   6.616   3.175  0.5112  0.1992 -0.7171
27430SOL     OW76630   3.828   4.032   4.637 -0.0253 -0.2214 -0.2266
27430SOL    HW176631   3.740   4.005   4.675 -0.1491 -0.1781 -0.4782
27430SOL    HW276632   3.845   3.980   4.553  0.0419 -0.0002 -0.3509
27431SOL     OW76633   3.071   2.892   1.250 -0.0971 -0.3562 -0.4567
27431SOL    HW176634   3.117   2.810   1.283 -1.9151 -1.0533  0.4452
27431SOL    HW276635   3.033   2.942   1.327  0.2866  0.9054 -1.0730
27432SOL     OW76636   2.620   5.041   6.627 -0.1448 -0.3776  0.3953
27432SOL    HW176637   2.689   5.100   6.584 -0.1737 -0.1592  0.6494
27432SOL    HW276638   2.564   4.999   6.556  0.2313 -0.5321  0.1871
27433SOL     OW76639   7.320   8.925   1.899  0.2462  0.4167 -1.0059
27433SOL    HW176640   7.302   8.847   1.959  1.4504 -1.0294 -2.4857
27433SOL    HW276641   7.367   8.894   1.817  3.0819  3.0586 -0.4649
27434SOL     OW76642   8.750   1.030   4.808  0.1692  0.0869  0.6263
27434SOL    HW176643   8.710   1.092   4.741 -2.3654 -1.0180  1.0839
27434SOL    HW276644   8.681   1.005   4.877  2.3726  0.2670  2.9988
27435SOL     OW76645   5.140   7.443   2.092 -0.0066  0.3239  0.0693
27435SOL    HW176646   5.239   7.440   2.101  0.1123  1.3424 -0.7181
27435SOL    HW276647   5.108   7.535   2.115 -0.5743  0.5062 -1.4259
27436SOL     OW76648   6.059   9.829   2.423  0.7377 -0.5253  0.5292
27436SOL    HW176649   6.138   9.830   2.361 -0.1519  0.9371 -0.6408
27436SOL    HW276650   5.985   9.778   2.381 -0.2642  1.4377 -0.1787
27437SOL     OW76651   1.680   3.037   2.679  0.0930  0.2171 -0.6739
27437SOL    HW176652   1.641   3.061   2.590 -0.9494 -0.2488 -0.3507
27437SOL    HW276653   1.618   2.975   2.727  2.1739 -2.1880 -0.9903
27438SOL     OW76654   5.745   0.483   3.165 -0.3734  0.2985 -0.1623
27438SOL    HW176655   5.649   0.457   3.174  0.2584 -1.9555  0.4199
27438SOL    HW276656   5.765   0.560   3.226 -1.4378 -0.2602  0.9096
27439SOL     OW76657   7.556   0.538   5.727  0.2227 -0.4407  0.4583
27439SOL    HW176658   7.645   0.569   5.693  0.4797 -1.4264  0.2178
27439SOL    HW276659   7.483   0.591   5.683  0.5668 -1.3902 -1.2835
27440SOL     OW76660   4.199   9.728   1.071  0.2552 -0.5016  0.8733
27440SOL    HW176661   4.273   9.790   1.045  1.6641 -2.7238 -0.6186
27440SOL    HW276662   4.237   9.640   1.099 -1.6689 -0.5734  3.4396
27441SOL     OW76663   3.291   1.468   7.579  0.5057  0.4592 -0.1277
27441SOL    HW176664   3.249   1.416   7.504 -0.8403  1.6244 -0.2002
27441SOL    HW276665   3.269   1.424   7.666  0.2796  0.3112 -0.2579
27442SOL     OW76666   6.075   2.023   0.820  0.1747 -0.2470 -0.0560
27442SOL    HW176667   6.068   1.941   0.877 -2.1779  0.7047  1.0560
27442SOL    HW276668   6.007   2.019   0.746 -1.6674  1.7991  1.4652
27443SOL     OW76669   0.837   8.679   3.372  0.9127  0.6579 -0.2641
27443SOL    HW176670   0.782   8.744   3.319  0.1312  0.3667  0.1871
27443SOL    HW276671   0.891   8.729   3.439  0.4186  0.8608 -0.0135
27445SOL     OW76672   1.562   0.878   2.041  0.4513  0.1817  0.1823
27445SOL    HW176673   1.626   0.874   2.118  1.8489 -0.7684 -0.9814
27445SOL    HW276674   1.547   0.786   2.006 -0.8904  0.5063 -0.1127
27448SOL     OW76675   9.379   9.406   4.799 -0.4453 -0.2444 -0.4299
27448SOL    HW176676   9.414   9.336   4.737  0.4810  0.3677 -0.5978
27448SOL    HW276677   9.293   9.375   4.839 -0.9848 -0.7068 -1.9188
27449SOL     OW76678   1.831   2.680   6.423  0.5886  0.5755 -0.4020
27449SOL    HW176679   1.834   2.716   6.516  0.5702  0.4745 -0.3624
27449SOL    HW276680   1.878   2.591   6.420 -3.2846 -1.6195  0.4853
27450SOL     OW76681   1.464   5.640   5.996 -0.2485  0.0418 -0.3858
27450SOL    HW176682   1.394   5.706   5.968 -0.0492 -0.6098 -2.4770
27450SOL    HW276683   1.478   5.574   5.923  0.5949 -1.4766  1.1302
27454SOL     OW76684   0.968   2.827   2.922 -0.1700 -0.0250 -0.0696
27454SOL    HW176685   1.019   2.889   2.863  1.2050 -1.0297  0.0292
27454SOL    HW276686   0.973   2.734   2.885 -1.6297 -0.2136  0.1462
27455SOL     OW76687   5.462   9.118   2.924  0.2553  0.5746 -0.0456
27455SOL    HW176688   5.446   9.066   3.008  0.3736  0.2161 -0.2446
27455SOL    HW276689   5.539   9.078   2.873 -0.6304  0.0114 -0.9590
27456SOL     OW76690   9.674   8.825   3.142 -0.2359 -0.1934 -0.9874
27456SOL    HW176691   9.580   8.825   3.177  0.1700 -2.5014  0.2234
27456SOL    HW276692   9.720   8.909   3.168 -1.7802  0.6913 -1.0664
27457SOL     OW76693   4.563   0.086   0.031  0.4272  0.5138  0.4561
27457SOL    HW176694   4.601   0.005   0.076 -1.9861 -1.4428 -0.8569
27457SOL    HW276695   4.555   0.068  -0.067 -3.1005  1.0574  0.5779
27459SOL     OW76696   0.952   5.620   6.075  0.4230  0.2291 -0.1783
27459SOL    HW176697   0.861   5.641   6.040  0.2030  0.0652  0.2961
27459SOL    HW276698   1.011   5.594   5.998 -0.0590 -0.1304 -0.4331
27461SOL     OW76699   7.733   3.354   0.197  0.4221 -0.6365 -0.6340
27461SOL    HW176700   7.769   3.308   0.278  1.6424 -1.4083 -1.5988
27461SOL    HW276701   7.634   3.369   0.209  0.7730  0.2235  1.4180
27462SOL     OW76702   6.394   0.197   5.515  0.4797  0.2634  0.2844
27462SOL    HW176703   6.446   0.137   5.576  2.4030  2.0449  0.4656
27462SOL    HW276704   6.318   0.238   5.566  0.7052 -0.0273  0.8618
27463SOL     OW76705   8.803   4.730   5.101 -0.3471  0.3448 -0.1461
27463SOL    HW176706   8.776   4.662   5.033  0.3581  1.2615 -1.3707
27463SOL    HW276707   8.759   4.709   5.188 -1.2741 -0.8484 -0.8766
27464SOL     OW76708   4.556   1.626   5.025  0.3502  0.1476  0.1469
27464SOL    HW176709   4.567   1.604   4.928 -0.7624 -0.0004  0.0502
27464SOL    HW276710   4.640   1.667   5.059  1.0237 -0.5191 -0.6876
27467SOL     OW76711   4.006   4.700   0.202 -0.1907  0.0520 -0.4790
27467SOL    HW176712   4.101   4.692   0.234 -0.3966  1.7345  0.6010
27467SOL    HW276713   3.949   4.635   0.251  0.4772 -1.3643 -1.5279
27468SOL     OW76714   0.136   9.112   2.991  0.0595  0.0063 -0.3568
27468SOL    HW176715   0.130   9.125   3.090  1.4844 -0.1946 -0.2306
27468SOL    HW276716   0.061   9.160   2.946  0.6499  1.9478  0.6741
27469SOL     OW76717   0.360   5.028   6.298  0.7705  0.1378  0.5729
27469SOL    HW176718   0.457   5.053   6.287  0.4873  0.9941 -0.0145
27469SOL    HW276719   0.312   5.103   6.343  0.7873 -1.1108  2.7152
27471SOL     OW76720   0.731   3.139   2.951  0.1657 -0.5533 -0.1468
27471SOL    HW176721   0.664   3.213   2.947 -0.3628 -1.0154  0.0984
27471SOL    HW276722   0.776   3.139   3.041 -0.1221 -0.7808 -0.0026
27472SOL     OW76723   8.890   8.550   2.193  0.4774 -0.0047 -0.2069
27472SOL    HW176724   8.898   8.636   2.142 -0.4657 -0.2193 -0.7451
27472SOL    HW276725   8.977   8.528   2.237  1.1569  0.4627 -1.2940
27474SOL     OW76726   7.730   8.958   5.980  0.0937  0.5565 -0.5539
27474SOL    HW176727   7.797   8.947   6.052  0.2561  0.6496 -0.6912
27474SOL    HW276728   7.700   9.054   5.976 -1.7839  0.0801  1.0520
27475SOL     OW76729   2.022   2.033   3.814  0.1546  0.0830  0.4838
27475SOL    HW176730   1.984   2.101   3.752 -0.0335  0.4270  0.9799
27475SOL    HW276731   2.087   2.077   3.876  1.6326 -0.5447 -0.5720
27476SOL     OW76732   4.459   3.215   6.935  0.0508 -0.4232  0.4122
27476SOL    HW176733   4.507   3.180   7.016 -1.6727 -1.3576  1.0546
27476SOL    HW276734   4.363   3.189   6.940 -0.7182  2.1947 -0.4369
27477SOL     OW76735   1.199   6.551   3.522  0.1499  0.4171  0.4654
27477SOL    HW176736   1.250   6.496   3.589  0.6230 -0.8720 -0.9262
27477SOL    HW276737   1.114   6.504   3.498 -0.4865  1.3487  0.8942
27479SOL     OW76738   4.914   4.251   6.241  0.3546  0.7831  0.0578
27479SOL    HW176739   4.940   4.162   6.279  0.1263  0.5418 -0.3422
27479SOL    HW276740   4.822   4.275   6.272  1.2414  1.8748  1.8849
27480SOL     OW76741   4.768   6.353   1.316 -0.0574 -0.0555  0.4319
27480SOL    HW176742   4.675   6.326   1.339 -0.1814  0.5128  0.6219
27480SOL    HW276743   4.775   6.453   1.320  0.2622 -0.0287 -0.6909
27481SOL     OW76744   7.567   8.919   3.453 -0.1448  0.4177  0.3745
27481SOL    HW176745   7.635   8.951   3.387  0.0077  2.2309  1.3799
27481SOL    HW276746   7.556   8.988   3.525 -0.8995 -1.1827  1.8029
27482SOL     OW76747   8.982   9.372   1.525 -0.0129  0.0969  0.1767
27482SOL    HW176748   9.063   9.408   1.477 -2.0013  2.5952 -1.4711
27482SOL    HW276749   8.937   9.447   1.574 -2.6760 -0.7165 -0.9582
27483SOL     OW76750   3.030   8.124   2.883  0.7044  0.0921 -0.2299
27483SOL    HW176751   3.106   8.070   2.918  0.1439  0.0320  0.9257
27483SOL    HW276752   2.946   8.069   2.884 -0.0649  1.2489  1.8284
27484SOL     OW76753   3.302   4.036   2.275  0.4016 -0.0738  0.5084
27484SOL    HW176754   3.281   4.063   2.369 -0.7111  0.6331  0.0753
27484SOL    HW276755   3.346   4.112   2.228 -0.3528  0.0893  0.0508
27485SOL     OW76756   4.658   8.040   4.368 -0.2749  0.4958  0.3018
27485SOL    HW176757   4.711   7.956   4.353 -0.9070  0.1413  0.0126
27485SOL    HW276758   4.589   8.023   4.438 -0.9862  0.5113 -0.3872
27486SOL     OW76759   9.753   7.136   3.017  0.1998  0.3289 -0.8843
27486SOL    HW176760   9.714   7.128   3.108 -1.2373  1.1259 -1.4027
27486SOL    HW276761   9.730   7.055   2.963  0.0365  0.3836 -0.8975
27489SOL     OW76762   4.307   5.095   4.361  0.1848  0.5111 -0.0514
27489SOL    HW176763   4.243   5.041   4.306 -0.9965  2.8835 -1.0894
27489SOL    HW276764   4.398   5.054   4.356 -0.4620 -0.7997 -1.6132
27492SOL     OW76765   0.029   7.883   6.317  0.1748  0.6353 -0.2011
27492SOL    HW176766  -0.001   7.799   6.272  1.6127 -0.7075  1.3112
27492SOL    HW276767  -0.030   7.959   6.288 -1.2792 -0.9157 -1.4038
27493SOL     OW76768   9.417   2.771   4.836  0.3335  0.2367  0.5403
27493SOL    HW176769   9.429   2.685   4.886  0.4515  1.5878  2.9188
27493SOL    HW276770   9.419   2.848   4.900  1.6751  2.1467 -1.7049
27496SOL     OW76771   2.983   4.987   4.137  0.0169 -0.5601 -0.0319
27496SOL    HW176772   3.068   4.935   4.144 -0.2300 -0.9210  0.2705
27496SOL    HW276773   2.925   4.968   4.216 -1.1446 -1.7419 -1.1453
27497SOL     OW76774   9.820   4.603   5.748 -0.7767 -0.0841 -0.3137
27497SOL    HW176775   9.782   4.681   5.799  2.0650  1.2621 -0.1328
27497SOL    HW276776   9.870   4.637   5.668  1.5808 -1.6064  0.4701
27498SOL     OW76777   8.329   1.500   7.908 -0.0534  0.3467  0.4017
27498SOL    HW176778   8.300   1.425   7.968 -0.3238 -0.4842 -0.7560
27498SOL    HW276779   8.428   1.495   7.895  0.1407  1.0919  1.5288
27499SOL     OW76780   6.348   8.053   4.515  0.2667 -0.2536 -0.6404
27499SOL    HW176781   6.278   7.990   4.550  0.9129 -1.6807 -1.8586
27499SOL    HW276782   6.321   8.147   4.535 -1.9218 -0.7842 -0.9445
27500SOL     OW76783   0.253   4.894   0.005 -0.0032 -0.4254 -0.4822
27500SOL    HW176784   0.301   4.973   0.043 -1.2870  0.7610 -1.2630
27500SOL    HW276785   0.189   4.858   0.073 -0.6875  0.3217 -0.7083
27502SOL     OW76786   3.825   4.936   1.549  0.0825 -0.0648  0.4694
27502SOL    HW176787   3.812   5.035   1.548  0.8214  0.0368  0.6966
27502SOL    HW276788   3.796   4.897   1.462 -0.5088  0.3136  0.4957
27503SOL     OW76789   3.715   5.321   6.414  0.0528 -0.1320  0.1184
27503SOL    HW176790   3.709   5.309   6.315  0.1244  0.7053  0.0063
27503SOL    HW276791   3.652   5.258   6.459  0.2755 -0.7609 -0.4441
27504SOL     OW76792   8.276   4.229   6.520 -0.2105  0.9484 -0.2458
27504SOL    HW176793   8.261   4.274   6.608  0.4688  0.8714 -0.0810
27504SOL    HW276794   8.269   4.295   6.446 -0.2216  1.1264 -0.0837
27507SOL     OW76795   5.061   4.246   0.602 -0.0344  0.2185 -0.4912
27507SOL    HW176796   5.114   4.194   0.534 -1.1739  1.0779 -2.0544
27507SOL    HW276797   5.098   4.338   0.609 -1.6873  1.0148 -2.0390
27508SOL     OW76798   7.601   4.235   5.451 -0.5470 -0.4215 -0.9148
27508SOL    HW176799   7.535   4.161   5.461  0.0928 -1.1170 -1.7127
27508SOL    HW276800   7.692   4.196   5.437 -0.2583  0.5145 -1.6805
27509SOL     OW76801   8.509   5.377   2.081 -0.0539  0.1883  0.1475
27509SOL    HW176802   8.425   5.375   2.135 -0.6300  0.4154 -0.7363
27509SOL    HW276803   8.570   5.447   2.118 -1.2098  1.6276 -0.6257
27513SOL     OW76804   0.249   7.479   3.677  0.2058  0.0525  0.1201
27513SOL    HW176805   0.251   7.578   3.685  0.3652 -0.0996  2.3313
27513SOL    HW276806   0.243   7.453   3.581 -1.6689  2.2193 -0.3807
27514SOL     OW76807   3.252   0.577   2.797 -0.0193  0.7567  0.6525
27514SOL    HW176808   3.226   0.654   2.738 -2.3876  0.9021  1.8304
27514SOL    HW276809   3.289   0.503   2.741  2.1050  2.6315 -0.5201
27515SOL     OW76810   8.605   0.978   2.423 -0.1921 -0.4177 -0.0054
27515SOL    HW176811   8.680   1.027   2.378 -1.4304 -1.4127 -3.3218
27515SOL    HW276812   8.521   1.032   2.418 -0.4431 -0.7374  0.7014
27516SOL     OW76813   3.214   5.010   3.324  0.3534 -0.2223 -0.1763
27516SOL    HW176814   3.118   5.024   3.299  0.8761  2.4395 -0.8432
27516SOL    HW276815   3.220   4.973   3.416 -1.3937 -3.4780 -1.3090
27517SOL     OW76816   3.614   5.692   1.973 -0.2310 -0.1084 -0.2658
27517SOL    HW176817   3.685   5.738   1.921 -1.2764  1.3489 -0.4201
27517SOL    HW276818   3.531   5.747   1.973 -1.3504 -1.7400 -0.0151
27518SOL     OW76819   5.467   8.986   5.926  0.5959 -0.0475  0.3434
27518SOL    HW176820   5.501   9.047   5.854  1.2814 -0.0909  0.6283
27518SOL    HW276821   5.439   9.040   6.005 -0.2879  0.0092 -0.0069
27519SOL     OW76822   7.078   6.842   4.373  0.0385  0.2574  0.3639
27519SOL    HW176823   7.164   6.797   4.349  1.0673  2.5945 -0.5175
27519SOL    HW276824   7.093   6.900   4.454 -0.5010  1.2652 -0.2498
27520SOL     OW76825   6.564   2.589   0.253  0.0791 -0.2715  0.6739
27520SOL    HW176826   6.593   2.562   0.345  0.0518 -0.6873  0.5640
27520SOL    HW276827   6.619   2.666   0.221  1.0291 -1.0243  0.4839
27521SOL     OW76828   9.155   3.503   3.486  0.0621 -0.5094  0.1989
27521SOL    HW176829   9.117   3.571   3.550  1.0824 -0.9449  1.3002
27521SOL    HW276830   9.174   3.547   3.399  2.7105  1.2003  1.5602
27522SOL     OW76831   2.703   6.135   2.261 -0.3439 -0.1325 -0.7397
27522SOL    HW176832   2.629   6.084   2.217 -1.5149  1.3744 -0.5858
27522SOL    HW276833   2.690   6.134   2.360  0.6820 -1.1069 -0.6079
27523SOL     OW76834   1.790   2.994   0.274  0.7276 -0.2929  0.1635
27523SOL    HW176835   1.888   2.996   0.294  0.5660 -1.2932  1.0462
27523SOL    HW276836   1.777   3.004   0.175  1.8212 -2.0876 -0.1961
27524SOL     OW76837   1.186   0.829   6.685 -0.0050  0.3199 -0.1822
27524SOL    HW176838   1.270   0.882   6.697 -2.0269  3.4176  0.8977
27524SOL    HW276839   1.176   0.803   6.589  2.0297  0.0926 -0.3707
27525SOL     OW76840   3.610   7.644   7.170  0.2281 -0.0826  0.0835
27525SOL    HW176841   3.654   7.653   7.081 -2.0369 -1.9624 -1.2746
27525SOL    HW276842   3.602   7.548   7.194 -0.4996  0.3540  1.6569
27526SOL     OW76843   8.577   9.879   7.702  0.2574  0.3883 -0.3321
27526SOL    HW176844   8.649   9.920   7.757  0.3225  0.4506 -0.4648
27526SOL    HW276845   8.519   9.951   7.663  1.0385  0.4005 -1.4785
27527SOL     OW76846   7.588   8.404   4.864  0.2318  0.0378  0.0868
27527SOL    HW176847   7.671   8.449   4.896 -0.9086  1.5621  0.9840
27527SOL    HW276848   7.569   8.324   4.922 -1.2790  2.2147  2.7694
27528SOL     OW76849   3.991   1.287   5.954 -0.0263  0.1279  0.2815
27528SOL    HW176850   3.892   1.300   5.958  0.1212  0.9946  1.2607
27528SOL    HW276851   4.013   1.220   5.883 -1.1569  1.5016 -1.3988
27529SOL     OW76852   7.308   3.860   0.062  0.0085  0.5680 -0.3938
27529SOL    HW176853   7.263   3.771   0.060  2.3213 -0.6722  0.8597
27529SOL    HW276854   7.378   3.864  -0.010  1.8773  0.2378  1.3354
27530SOL     OW76855   5.473   4.790   7.734 -0.4683 -0.6375 -0.0513
27530SOL    HW176856   5.527   4.712   7.703  1.5690  0.2322  1.2331
27530SOL    HW276857   5.468   4.858   7.661  0.3217 -0.6515 -0.1247
27531SOL     OW76858   9.217   2.186   3.084  0.4071  0.3326 -0.0237
27531SOL    HW176859   9.237   2.158   3.178  0.3692  0.3705 -0.0046
27531SOL    HW276860   9.282   2.143   3.021  3.3990  3.8913  0.4439
27532SOL     OW76861   6.510   8.904   2.069 -0.2274 -0.6689 -0.1180
27532SOL    HW176862   6.496   8.880   1.973  0.8793  0.6830 -0.6319
27532SOL    HW276863   6.422   8.917   2.114 -0.8399 -3.9909 -0.2332
27533SOL     OW76864   9.323   2.976   7.144 -0.3557  0.0916  0.5746
27533SOL    HW176865   9.400   2.914   7.135 -0.6825 -0.2334  0.0001
27533SOL    HW276866   9.323   3.017   7.235 -0.0637 -0.6520  0.9081
27534SOL     OW76867   7.967   0.021   0.125 -0.3992  0.3402 -0.2095
27534SOL    HW176868   7.926   0.105   0.163 -0.7351  0.2054 -0.2670
27534SOL    HW276869   7.896  -0.049   0.116 -0.0844 -0.0129  0.0129
27535SOL     OW76870   2.844   3.889   6.520  0.3214  0.5379  0.0083
27535SOL    HW176871   2.840   3.986   6.499 -0.8304  0.5364  0.1635
27535SOL    HW276872   2.857   3.837   6.435 -0.8375  0.7358 -0.3029
27536SOL     OW76873   6.664   0.504   1.548  0.5389  0.0169  0.0687
27536SOL    HW176874   6.655   0.424   1.608  2.2612  0.2650  0.7087
27536SOL    HW276875   6.753   0.546   1.564 -0.1674  1.7837 -0.6175
27539SOL     OW76876   0.420   8.713   4.829 -0.4599  0.0920 -0.2758
27539SOL    HW176877   0.389   8.655   4.753  0.7168  0.3429 -0.9478
27539SOL    HW276878   0.494   8.667   4.877 -1.3943 -0.1920  0.9155
27540SOL     OW76879   8.117   6.093   0.617  0.0147 -0.0940  0.3661
27540SOL    HW176880   8.078   6.127   0.702 -0.2736  0.2758  0.0873
27540SOL    HW276881   8.048   6.041   0.567  0.2461 -0.4913  0.4598
27542SOL     OW76882   1.212   6.242   4.163 -0.1687  0.0811  0.2097
27542SOL    HW176883   1.114   6.257   4.154  0.0976  1.9121  0.2236
27542SOL    HW276884   1.250   6.309   4.228  1.2488  0.0534 -0.5763
27543SOL     OW76885   3.528   4.533   2.127  0.0732  0.2951  0.3601
27543SOL    HW176886   3.466   4.550   2.051 -0.1517  0.0387  0.4843
27543SOL    HW276887   3.476   4.534   2.213  0.0661 -0.9107  0.3793
27544SOL     OW76888   8.023   0.547   0.205  0.5114 -0.0871  0.6520
27544SOL    HW176889   7.961   0.611   0.251  0.4505  0.3748 -0.0503
27544SOL    HW276890   7.999   0.543   0.108  0.5603 -1.1300  0.6829
27545SOL     OW76891   2.414   0.318   2.146  0.8788 -0.5058 -0.1208
27545SOL    HW176892   2.353   0.290   2.221 -0.2451  2.7200  0.2402
27545SOL    HW276893   2.370   0.296   2.059  0.6964 -1.2142  0.1390
27546SOL     OW76894   3.200   4.076   5.759  0.5455  0.1429  0.4722
27546SOL    HW176895   3.277   4.139   5.751  2.4978 -1.9765  1.8241
27546SOL    HW276896   3.203   4.010   5.684  0.0368  0.0929  0.4974
27548SOL     OW76897   1.542   2.885   6.206 -0.2378 -0.3544 -0.0648
27548SOL    HW176898   1.519   2.907   6.301  0.3401 -4.4120  1.1101
27548SOL    HW276899   1.637   2.856   6.201 -0.3007 -0.2645 -1.8609
27549SOL     OW76900   3.747   3.644   2.367  0.2876 -0.6861 -0.1287
27549SOL    HW176901   3.794   3.659   2.454 -0.9923 -1.3604  0.7002
27549SOL    HW276902   3.693   3.725   2.344  1.6638  0.0005 -0.9672
27550SOL     OW76903   2.682   4.318   1.973 -0.0399 -0.4715 -0.2139
27550SOL    HW176904   2.674   4.417   1.962 -1.6787 -0.3899  1.4606
27550SOL    HW276905   2.620   4.272   1.911 -0.0955 -0.4173 -0.1984
27553SOL     OW76906   3.503   7.435   3.819 -0.2060  0.2917  0.2876
27553SOL    HW176907   3.420   7.465   3.866 -0.3950 -0.4474  0.4384
27553SOL    HW276908   3.478   7.372   3.745  0.1119  1.2077 -0.6118
27554SOL     OW76909   4.661   3.916   7.110 -0.0481  0.4935 -0.2005
27554SOL    HW176910   4.727   3.880   7.045 -0.7571 -0.1821 -0.5553
27554SOL    HW276911   4.606   3.841   7.147 -0.0762  0.9509  0.6925
27555SOL     OW76912   9.784   3.572   6.619  0.0498 -0.4141 -0.0008
27555SOL    HW176913   9.794   3.610   6.527 -0.6221  0.7394  0.3952
27555SOL    HW276914   9.708   3.507   6.620 -0.8665  0.6409  0.0650
27556SOL     OW76915   9.103   5.169   2.932 -0.1362 -0.4944  0.2138
27556SOL    HW176916   9.146   5.259   2.939 -0.1588 -0.5730  1.5773
27556SOL    HW276917   9.171   5.102   2.903  0.5028 -0.4840  1.6373
27558SOL     OW76918   5.313   9.156   2.074 -0.0318  0.2136  0.3012
27558SOL    HW176919   5.339   9.252   2.061  2.9882 -0.5364  0.4450
27558SOL    HW276920   5.328   9.130   2.169  1.6061 -1.0808 -0.2883
27559SOL     OW76921   3.038   7.984   6.191 -0.2080 -0.1873  0.1784
27559SOL    HW176922   2.989   7.984   6.278  0.3481 -0.1530  0.4926
27559SOL    HW276923   3.097   7.904   6.186 -1.8383 -1.3427 -1.0823
27560SOL     OW76924   1.786   7.765   4.715  0.2347 -0.2064 -0.1552
27560SOL    HW176925   1.871   7.802   4.676  0.4800 -0.3648  0.2235
27560SOL    HW276926   1.790   7.665   4.715 -0.4356 -0.2329 -1.1921
27561SOL     OW76927   7.951   3.461   0.011  0.0878 -0.6001 -0.0024
27561SOL    HW176928   7.973   3.549  -0.032  0.8835 -1.3627 -1.1762
27561SOL    HW276929   7.902   3.478   0.096  0.3278  0.9904 -0.1533
27562SOL     OW76930   1.348   1.894   4.236  0.2302  0.1822  0.2038
27562SOL    HW176931   1.279   1.966   4.235 -1.4507 -1.4298 -0.4207
27562SOL    HW276932   1.374   1.873   4.330 -2.4096 -1.3598  0.6128
27563SOL     OW76933   8.384   6.474   4.006 -0.2175 -0.2321 -0.4802
27563SOL    HW176934   8.474   6.501   3.971 -0.3077  0.4270 -0.2084
27563SOL    HW276935   8.383   6.375   4.022  0.6191 -0.1737 -0.0230
27564SOL     OW76936   3.395   4.567   6.991 -0.4715  0.1582  0.3414
27564SOL    HW176937   3.424   4.662   7.002  1.7601 -0.5298  0.6845
27564SOL    HW276938   3.455   4.508   7.044  0.9362 -1.8319 -3.3092
27565SOL     OW76939   1.654   4.857   1.848  0.2641 -0.6201 -0.2448
27565SOL    HW176940   1.586   4.828   1.915 -1.2096  1.3195 -0.8630
27565SOL    HW276941   1.661   4.957   1.848  0.1288 -0.5747 -3.0564
27566SOL     OW76942   0.969   4.845   0.055 -0.2866  0.2044 -1.0210
27566SOL    HW176943   0.962   4.940   0.086  0.3351 -0.2516  0.5378
27566SOL    HW276944   0.891   4.824  -0.003 -0.5082  1.6265 -1.2721
27567SOL     OW76945   0.940   2.342   1.019  0.2371  0.0963  0.2184
27567SOL    HW176946   0.847   2.373   1.002 -0.3451 -2.3170 -1.2529
27567SOL    HW276947   0.971   2.285   0.943  2.8038  0.5754  0.8431
27568SOL     OW76948   4.173   6.530   1.662 -0.2496 -0.1801  0.4163
27568SOL    HW176949   4.262   6.523   1.707 -0.1617  0.6558  0.3953
27568SOL    HW276950   4.105   6.480   1.715  0.3982 -1.5669 -0.0410
27569SOL     OW76951   1.647   3.264   7.196 -0.4147  0.2709 -0.2740
27569SOL    HW176952   1.624   3.177   7.153  1.5100 -0.1479 -0.4654
27569SOL    HW276953   1.719   3.310   7.144  0.2436  0.8858  1.1519
27570SOL     OW76954   1.083   7.587   2.211 -0.7725  0.9531  0.7882
27570SOL    HW176955   1.112   7.666   2.158 -0.6367 -0.7939 -1.8586
27570SOL    HW276956   1.124   7.591   2.302  2.7529  1.7503 -0.7517
27571SOL     OW76957   0.372   5.583   6.286  0.1145 -0.5834 -0.0656
27571SOL    HW176958   0.366   5.672   6.241  1.3095  0.2978  1.4791
27571SOL    HW276959   0.304   5.521   6.247  0.4889  0.4413 -2.4143
27573SOL     OW76960   5.104   6.622   1.200  0.0812 -0.3232  0.1467
27573SOL    HW176961   5.153   6.645   1.283 -0.4561  0.3815  0.2660
27573SOL    HW276962   5.065   6.530   1.208  0.8286 -0.6252  0.3022
27574SOL     OW76963   8.990   2.380   3.913 -0.2807 -0.0878 -0.1962
27574SOL    HW176964   8.941   2.467   3.902 -3.0675 -1.5087  0.3521
27574SOL    HW276965   8.979   2.326   3.830  1.1191 -0.0848 -0.3897
27575SOL     OW76966   6.886   1.658   3.415  0.1977 -0.1001 -0.2061
27575SOL    HW176967   6.855   1.579   3.363  0.3944  1.6698 -3.0839
27575SOL    HW276968   6.815   1.685   3.480 -1.4452 -0.3067 -1.8890
27576SOL     OW76969   4.082   8.296   0.831  0.4814  0.1749 -0.3995
27576SOL    HW176970   4.067   8.290   0.733 -0.8597 -0.5663 -0.1672
27576SOL    HW276971   4.177   8.274   0.852  0.9053  0.8620 -1.5688
27577SOL     OW76972   9.363   4.601   3.416 -0.1873  0.2470  0.6412
27577SOL    HW176973   9.452   4.556   3.426  0.3404  0.6786 -1.6565
27577SOL    HW276974   9.334   4.638   3.504  1.8997  0.0737  1.4340
27578SOL     OW76975   4.154   1.501   4.108 -0.0335 -0.1037 -0.1720
27578SOL    HW176976   4.177   1.454   4.193  0.1513  0.3198  0.0155
27578SOL    HW276977   4.062   1.474   4.078  0.3208 -1.0629 -0.4078
27579SOL     OW76978   3.045   7.978   6.477  0.1728  0.1971  0.5115
27579SOL    HW176979   2.991   8.061   6.487  0.9990  0.6545  1.2459
27579SOL    HW276980   3.140   7.997   6.502  0.8684 -0.3708 -1.6185
27580SOL     OW76981   8.038   8.132   3.703 -0.5165 -0.2287  0.6178
27580SOL    HW176982   7.959   8.092   3.655 -1.0900  0.6054  0.8497
27580SOL    HW276983   8.013   8.223   3.736  1.1363  0.7781 -0.8732
27581SOL     OW76984   6.378   1.309   0.722  0.3518 -0.5186  0.5001
27581SOL    HW176985   6.341   1.268   0.806 -1.1833  1.7559  0.9978
27581SOL    HW276986   6.456   1.366   0.744 -0.1539  0.2135  0.4185
27582SOL     OW76987   9.719   6.928   6.010 -0.2546 -0.3263 -0.4939
27582SOL    HW176988   9.746   6.836   5.979 -0.7312 -0.5275 -0.3280
27582SOL    HW276989   9.771   6.997   5.959  0.1033 -0.6887 -0.6243
27583SOL     OW76990   9.564   1.893   3.358  0.5920  0.2555  0.1044
27583SOL    HW176991   9.522   1.823   3.301 -1.9006  1.8772 -0.1231
27583SOL    HW276992   9.579   1.976   3.303 -0.0390  1.1769  1.3055
27584SOL     OW76993   3.286   6.791   7.091  0.0898  0.2445 -0.0683
27584SOL    HW176994   3.214   6.802   7.022  1.6633 -0.4672 -1.8719
27584SOL    HW276995   3.276   6.863   7.160 -2.0279  0.4692 -0.5480
27585SOL     OW76996   9.338   9.492   2.332  0.6647 -0.5572 -0.1647
27585SOL    HW176997   9.295   9.582   2.337 -0.2579 -0.9713 -0.4567
27585SOL    HW276998   9.410   9.485   2.401 -0.3613 -0.1793  0.9554
27586SOL     OW76999   0.172   1.113   2.335 -0.0538 -0.0672 -0.2101
27586SOL    HW177000   0.266   1.096   2.365 -0.1261 -0.7497 -0.3683
27586SOL    HW277001   0.147   1.208   2.357  0.5408  0.0058  0.1675
27588SOL     OW77002   2.881   4.587   0.978 -0.0720  0.1738 -0.4373
27588SOL    HW177003   2.836   4.506   0.940 -1.3636  0.8921 -0.4778
27588SOL    HW277004   2.848   4.669   0.930  2.4877  0.5804 -1.5439
27589SOL     OW77005   0.025   8.659   3.062  0.3286 -0.0984 -0.2594
27589SOL    HW177006  -0.034   8.738   3.047  0.3987  0.1173  0.5752
27589SOL    HW277007   0.084   8.646   2.982  0.4031  0.7715 -0.3545
27591SOL     OW77008   1.064   0.225   3.524 -0.3701 -0.5868  0.0686
27591SOL    HW177009   1.111   0.313   3.517 -0.6267 -0.3508  1.3124
27591SOL    HW277010   1.131   0.152   3.537 -0.1354 -0.6162 -1.2638
27592SOL     OW77011   9.845   9.842   1.199 -0.8272  0.5588  0.3269
27592SOL    HW177012   9.923   9.880   1.149 -1.3651 -1.1163 -1.8882
27592SOL    HW277013   9.864   9.844   1.297  1.2672  1.7720 -0.0795
27593SOL     OW77014   8.047   7.330   7.175 -0.1158  0.7479  0.1684
27593SOL    HW177015   8.074   7.277   7.256  0.0090  1.3517  0.5243
27593SOL    HW277016   8.076   7.282   7.093  1.0846  0.8525  0.5181
27594SOL     OW77017   2.263   5.044   7.773 -0.3428  0.1745  0.8061
27594SOL    HW177018   2.294   5.128   7.818 -1.5667 -0.8297  3.6645
27594SOL    HW277019   2.198   5.067   7.701  1.3364  1.8223 -0.2194
27595SOL     OW77020   9.268   2.980   5.092  0.2941 -0.1590 -0.2451
27595SOL    HW177021   9.349   2.985   5.151 -0.1031 -0.4368  0.3252
27595SOL    HW277022   9.272   3.053   5.024  0.6034  0.3566  0.3208
27596SOL     OW77023   7.933   8.286   3.981 -0.2933 -0.0231  0.4477
27596SOL    HW177024   7.968   8.199   4.015 -0.1865  0.0737  0.5840
27596SOL    HW277025   7.833   8.284   3.979 -0.4197  1.0131  3.5682
27598SOL     OW77026   4.996   9.188   2.203 -0.0873 -0.5256 -0.2109
27598SOL    HW177027   4.988   9.285   2.226  0.9524 -0.1394 -1.3930
27598SOL    HW277028   5.080   9.151   2.241  0.1001 -0.6570 -0.7378
27599SOL     OW77029   9.991   3.390   5.754  0.3067  0.3007 -0.2815
27599SOL    HW177030   9.892   3.372   5.747  0.3984 -0.0826 -0.6191
27599SOL    HW277031  10.031   3.330   5.823  0.3798  0.1526 -0.4537
27600SOL     OW77032   4.498   6.440   0.789  0.0707  0.4348  0.4077
27600SOL    HW177033   4.530   6.423   0.695 -2.8598 -3.6446  0.0018
27600SOL    HW277034   4.573   6.425   0.853  1.3821  0.4588 -1.0892
27601SOL     OW77035   6.285   1.126   5.208 -0.3556  0.6427 -0.1415
27601SOL    HW177036   6.379   1.095   5.223 -0.6407 -0.5972 -0.8564
27601SOL    HW277037   6.222   1.050   5.224 -1.2466  1.4975  0.4479
27602SOL     OW77038   0.957   4.490   5.494 -0.2477  0.2361 -0.2707
27602SOL    HW177039   0.892   4.566   5.489 -0.6533  0.0103  1.2445
27602SOL    HW277040   1.047   4.525   5.522 -0.2450  0.2768 -0.3322
27603SOL     OW77041   1.856   8.532   1.718  0.1332 -0.4611  0.2149
27603SOL    HW177042   1.955   8.531   1.723  0.0969  0.0002  1.4424
27603SOL    HW277043   1.818   8.477   1.793 -0.5352  2.0098  1.7787
27604SOL     OW77044   2.741   9.062   6.851  0.6201  0.4778  0.1594
27604SOL    HW177045   2.723   9.048   6.948  0.9567 -0.9914  0.0176
27604SOL    HW277046   2.775   8.977   6.810  1.7324  1.4453 -0.9679
27605SOL     OW77047   1.617   3.299   6.720 -0.4741 -0.0215  0.5034
27605SOL    HW177048   1.689   3.369   6.715 -0.5185  0.0964  1.3378
27605SOL    HW277049   1.607   3.255   6.631  1.3609 -0.7650  0.6427
27609SOL     OW77050   0.571   5.772   5.345 -0.3788 -0.3991 -0.1859
27609SOL    HW177051   0.592   5.834   5.269  0.3663 -0.4578 -0.0264
27609SOL    HW277052   0.530   5.824   5.420  0.3117 -0.0933 -0.0231
27610SOL     OW77053   1.033   4.986   2.776  0.2131 -0.5468  0.0962
27610SOL    HW177054   1.032   5.061   2.711  0.3055 -1.6148 -1.1630
27610SOL    HW277055   0.990   5.015   2.862 -0.1111  0.8049 -0.5149
27611SOL     OW77056   7.780   1.395   4.852 -0.5774 -0.0883  0.1126
27611SOL    HW177057   7.835   1.435   4.779 -1.7993  0.0007 -0.7647
27611SOL    HW277058   7.774   1.459   4.928  0.2797  0.0221  0.0965
27613SOL     OW77059   0.736   8.714   1.101 -0.3171 -0.1471  0.0158
27613SOL    HW177060   0.780   8.697   1.013 -0.6755  0.2428 -0.2391
27613SOL    HW277061   0.708   8.627   1.141 -1.3574 -0.2367 -0.8793
27614SOL     OW77062   9.765   6.031   2.589  0.3602 -0.3049 -0.6557
27614SOL    HW177063   9.863   6.034   2.570  0.4246  0.5944 -0.2325
27614SOL    HW277064   9.714   6.041   2.504  0.6463  1.6249 -0.6257
27615SOL     OW77065   8.781   9.657   2.132  0.3017 -0.1897  0.2186
27615SOL    HW177066   8.714   9.639   2.060  2.4202  0.0912 -1.8843
27615SOL    HW277067   8.789   9.756   2.145 -0.6034 -0.2621  1.3762
27616SOL     OW77068   1.404   0.411   2.460 -0.2489 -0.4825  0.7348
27616SOL    HW177069   1.498   0.445   2.470 -0.0476 -0.9733  0.5259
27616SOL    HW277070   1.352   0.433   2.543 -0.2681  0.7897  0.3938
27617SOL     OW77071   2.344   0.493   1.711  0.2741 -0.3131 -0.1950
27617SOL    HW177072   2.443   0.503   1.708  0.1997 -0.1288 -3.4836
27617SOL    HW277073   2.304   0.574   1.755  1.3953  1.2750 -2.0251
27618SOL     OW77074   1.312   8.229   4.423 -0.3593  0.8115 -0.5340
27618SOL    HW177075   1.335   8.169   4.346  2.0304  0.3424  0.4786
27618SOL    HW277076   1.217   8.214   4.450 -1.1537  0.8145 -3.2186
27619SOL     OW77077   9.378   1.254   3.358 -1.2619 -0.0414  0.2674
27619SOL    HW177078   9.460   1.312   3.350 -0.7222 -1.1151 -2.7990
27619SOL    HW277079   9.354   1.244   3.454 -0.3474  3.8363  1.0158
27620SOL     OW77080   1.456   3.060   5.991  0.3897 -0.5254  0.1818
27620SOL    HW177081   1.405   2.995   5.933 -0.9530  0.0796  0.6609
27620SOL    HW277082   1.497   3.011   6.067  0.1352 -0.9550  0.0464
27623SOL     OW77083   3.766   9.137   7.318 -0.3725 -0.3437  0.3679
27623SOL    HW177084   3.686   9.177   7.363  0.0796  2.1247 -0.9386
27623SOL    HW277085   3.743   9.114   7.224  1.1537  2.9116 -0.8631
27625SOL     OW77086   4.829   6.670   2.935  0.0204  0.4648 -0.7811
27625SOL    HW177087   4.857   6.689   2.840 -1.6058  0.8207 -1.1983
27625SOL    HW277088   4.741   6.712   2.953  0.8775  1.4359  1.3071
27626SOL     OW77089   8.086   9.541   5.412 -0.0870  0.1745 -0.1774
27626SOL    HW177090   8.037   9.455   5.408  0.5924 -0.3374  1.9676
27626SOL    HW277091   8.180   9.525   5.444 -0.5039  1.9065  2.0456
27627SOL     OW77092   7.316   7.968   5.092 -0.2290 -0.3832 -0.3551
27627SOL    HW177093   7.398   7.920   5.060  0.8285  0.7988  0.5741
27627SOL    HW277094   7.253   7.981   5.015  1.2262  0.2759 -1.4566
27628SOL     OW77095   1.155   4.013   1.151 -0.5857 -0.7997  0.2470
27628SOL    HW177096   1.130   4.023   1.247  0.1333 -1.4202  0.4979
27628SOL    HW277097   1.254   4.013   1.141 -0.6568 -0.3014 -0.5469
27629SOL     OW77098   7.568   2.858   5.031 -0.0894 -0.3191 -0.8947
27629SOL    HW177099   7.585   2.864   4.932  0.8269  1.6757 -0.6314
27629SOL    HW277100   7.587   2.946   5.074 -0.6398 -1.1232  1.0578
27630SOL     OW77101   9.416   0.624   5.547  0.5153  0.0512  0.3039
27630SOL    HW177102   9.488   0.677   5.502  0.0346  0.2650 -0.2112
27630SOL    HW277103   9.457   0.566   5.618  1.1916  0.1842  0.0242
27631SOL     OW77104   9.346   0.888   7.848 -0.1925  0.2021 -0.1255
27631SOL    HW177105   9.424   0.864   7.906 -0.1273 -1.7462 -0.9559
27631SOL    HW277106   9.278   0.815   7.852 -2.5145  2.3737  1.4406
27632SOL     OW77107   2.351   8.751   2.279 -0.0669 -0.2595  0.4532
27632SOL    HW177108   2.298   8.687   2.335 -1.2203 -0.1606 -0.5055
27632SOL    HW277109   2.401   8.700   2.210 -2.3827 -0.0234 -1.4564
27633SOL     OW77110   2.995   5.575   7.636  0.1053  0.3156 -0.1355
27633SOL    HW177111   3.009   5.655   7.694 -1.2159  0.1620  0.4234
27633SOL    HW277112   3.074   5.514   7.642  0.6285  1.0300  0.3134
27634SOL     OW77113   0.804   5.416   7.710 -0.1457  0.8053 -0.2515
27634SOL    HW177114   0.894   5.374   7.710 -0.7721 -0.6078  1.5905
27634SOL    HW277115   0.757   5.395   7.624  1.6526  2.4537 -1.6768
27636SOL     OW77116   7.868   0.309   5.390  0.5122  0.8251  0.3558
27636SOL    HW177117   7.860   0.296   5.291  2.5165  0.5768  0.2155
27636SOL    HW277118   7.790   0.363   5.422 -1.0356 -0.4846 -1.0909
27637SOL     OW77119   4.710   5.228   1.712  0.1226  0.4613  0.1493
27637SOL    HW177120   4.767   5.194   1.787  1.7463 -0.5925 -1.5398
27637SOL    HW277121   4.625   5.175   1.708  0.7514 -0.5602  0.2214
27640SOL     OW77122   3.626   2.035   5.003 -0.0998 -0.1158 -0.2340
27640SOL    HW177123   3.571   2.116   4.979  0.1482  0.4584  1.0687
27640SOL    HW277124   3.573   1.977   5.065 -0.0130 -0.6194 -0.6285
27641SOL     OW77125   5.545   1.314   6.530  0.3247 -0.0627 -0.1758
27641SOL    HW177126   5.574   1.393   6.583  1.0853 -1.3643  1.3910
27641SOL    HW277127   5.458   1.333   6.486  1.4916  2.3752 -1.4978
27643SOL     OW77128   0.268   0.044   0.292  0.2099 -0.3881 -0.1280
27643SOL    HW177129   0.182   0.095   0.285  0.9083  0.8407  0.1270
27643SOL    HW277130   0.264  -0.018   0.370  0.1437  0.8029  0.8117
27644SOL     OW77131   2.181   6.958   1.243 -0.0912  0.2651 -0.2462
27644SOL    HW177132   2.241   7.032   1.214 -0.5573  0.5673 -0.4429
27644SOL    HW277133   2.150   6.975   1.336 -2.4636  1.7890 -1.2683
27645SOL     OW77134   5.447   8.035   6.264 -0.0261 -0.5177 -0.2031
27645SOL    HW177135   5.363   8.007   6.218 -0.0437 -0.1683 -0.3786
27645SOL    HW277136   5.523   7.980   6.230  0.0468  0.0656 -1.0046
27646SOL     OW77137   0.114   0.421   7.244 -0.1389  0.0999 -0.1236
27646SOL    HW177138   0.139   0.446   7.151 -1.8134 -0.5556 -0.7766
27646SOL    HW277139   0.025   0.376   7.244  0.5995 -1.4501  1.5958
27648SOL     OW77140   9.485   4.974   0.012  0.1063  0.9163  0.1387
27648SOL    HW177141   9.446   4.899  -0.041  0.8687  0.4377  0.2660
27648SOL    HW277142   9.576   4.996  -0.022  0.8136  0.2733  1.5640
27649SOL     OW77143   1.341   9.771   5.415 -0.4498  0.0777 -0.0779
27649SOL    HW177144   1.262   9.711   5.402 -0.2795 -0.4796  1.4813
27649SOL    HW277145   1.325   9.830   5.494 -0.1699  1.3861 -0.9777
27651SOL     OW77146   7.372   5.838   5.720 -0.0086  0.5101 -0.1161
27651SOL    HW177147   7.331   5.885   5.798 -0.5737 -0.9202  0.4616
27651SOL    HW277148   7.362   5.740   5.731  0.1301  0.2793 -1.8880
27652SOL     OW77149   0.930   5.783   3.754  0.4541  0.5286  0.2548
27652SOL    HW177150   0.852   5.724   3.731  1.6714 -1.6450  1.5334
27652SOL    HW277151   1.006   5.762   3.692  1.3000 -0.1402  1.5026
27653SOL     OW77152   2.617   2.567   1.893  0.1944 -0.2864  0.3030
27653SOL    HW177153   2.698   2.509   1.894  2.0460  2.2245  1.8647
27653SOL    HW277154   2.547   2.529   1.953  0.6368 -1.8796 -0.1851
27654SOL     OW77155   7.773   9.490   4.318  0.6600 -0.0231  0.5564
27654SOL    HW177156   7.783   9.501   4.219  1.6679 -1.2482  0.5154
27654SOL    HW277157   7.862   9.474   4.359  0.1366 -0.4566  1.5434
27656SOL     OW77158   7.008   1.853   2.056  0.0072  0.2507 -0.1701
27656SOL    HW177159   7.062   1.929   2.094 -1.7007  0.8440  1.1475
27656SOL    HW277160   7.068   1.793   2.004  1.6953  1.6299  0.1111
27657SOL     OW77161   0.655   6.925   1.389  0.2096 -0.0652  0.2430
27657SOL    HW177162   0.571   6.876   1.363 -0.0252  0.0206  0.8158
27657SOL    HW277163   0.642   6.966   1.480 -0.1271  2.2630 -0.7994
27658SOL     OW77164   0.667   3.148   1.189 -0.2656  0.1974  0.3584
27658SOL    HW177165   0.720   3.170   1.107  0.0536 -1.7175  0.0107
27658SOL    HW277166   0.724   3.094   1.251 -0.1018  2.6525  2.4185
27659SOL     OW77167   7.183   1.239   3.910  0.5940  0.1903 -0.9412
27659SOL    HW177168   7.207   1.303   3.837  1.0226 -2.3380 -3.1179
27659SOL    HW277169   7.262   1.224   3.969  1.4303 -0.5778 -2.2193
27660SOL     OW77170   2.187   0.894   3.662 -0.5324  0.3487 -0.2047
27660SOL    HW177171   2.138   0.864   3.581  0.7514  0.4156 -1.0260
27660SOL    HW277172   2.153   0.983   3.691 -0.1466  0.9011 -1.4271
27661SOL     OW77173   0.324   1.913   5.656 -0.2220  0.4184 -0.0123
27661SOL    HW177174   0.330   1.975   5.578  0.1262  1.4884  0.8583
27661SOL    HW277175   0.237   1.928   5.703 -0.4960 -0.3280 -0.2828
27662SOL     OW77176   3.029   8.465   0.310  0.2067 -0.5321 -0.1123
27662SOL    HW177177   3.022   8.476   0.211  0.8007 -0.1056 -0.1064
27662SOL    HW277178   3.109   8.514   0.343 -0.8267  0.5953  0.7737
27663SOL     OW77179   1.567   2.619   3.892 -0.7088 -0.4106  0.0045
27663SOL    HW177180   1.593   2.686   3.823 -2.5436  0.2235 -0.0708
27663SOL    HW277181   1.631   2.624   3.969  0.4403 -0.0807 -0.9628
27664SOL     OW77182   5.367   4.043   0.556  0.2479 -0.3952  0.5801
27664SOL    HW177183   5.462   4.062   0.528  0.3947 -0.5134  0.9948
27664SOL    HW277184   5.304   4.084   0.490  0.5765  0.5336  0.8381
27665SOL     OW77185   4.359   3.854   2.789  0.4570  0.4809 -0.2260
27665SOL    HW177186   4.443   3.821   2.746  0.3692  0.3352 -0.2873
27665SOL    HW277187   4.301   3.776   2.812  0.9709  0.4813  1.1321
27666SOL     OW77188   8.416   8.343   1.171  0.8831 -0.2609  0.4130
27666SOL    HW177189   8.461   8.271   1.118  2.0610  0.5750  0.2595
27666SOL    HW277190   8.347   8.387   1.114  0.0113 -1.3963  0.5715
27669SOL     OW77191   9.171   6.879   0.595  0.1901  0.0595 -0.5760
27669SOL    HW177192   9.108   6.885   0.517  1.5765  3.0666 -1.5312
27669SOL    HW277193   9.120   6.891   0.680 -1.3423 -3.2356 -0.9455
27670SOL     OW77194   1.206   6.970   0.670 -0.0736  0.4530  0.1910
27670SOL    HW177195   1.263   6.990   0.590  0.4441  0.7775  0.6374
27670SOL    HW277196   1.137   7.041   0.681 -0.4793  0.1258 -0.2807
27672SOL     OW77197   4.751   8.112   5.076 -0.4725  0.1044 -0.6995
27672SOL    HW177198   4.797   8.182   5.131  0.0980 -0.3006 -0.6605
27672SOL    HW277199   4.730   8.149   4.986 -0.2612  0.3630 -0.6428
27673SOL     OW77200   2.136   4.770   3.406  0.6563  0.1789 -0.1168
27673SOL    HW177201   2.213   4.831   3.385  1.0198  0.3205  1.6079
27673SOL    HW277202   2.149   4.684   3.357  2.0740  0.0855  0.3870
27674SOL     OW77203   4.531   0.065   6.744 -0.2687  0.1486  0.1193
27674SOL    HW177204   4.573   0.152   6.717  1.3390  0.1298  2.3350
27674SOL    HW277205   4.569  -0.009   6.690  0.2102  0.5316 -0.0730
27675SOL     OW77206   2.980   7.329   5.295 -0.0584  0.3784  0.1132
27675SOL    HW177207   2.993   7.423   5.325 -0.9129  0.7908 -0.7975
27675SOL    HW277208   2.883   7.313   5.275 -0.1192 -1.0356  1.3937
27676SOL     OW77209   4.546   1.391   7.682  0.4998 -0.1743  0.2364
27676SOL    HW177210   4.556   1.454   7.758 -0.7570 -0.9573  1.0839
27676SOL    HW277211   4.613   1.412   7.611  2.0427  0.2253  1.7861
27677SOL     OW77212   4.470   2.325   5.400  0.0397  0.5889  0.3740
27677SOL    HW177213   4.538   2.323   5.474  0.4848  0.3697 -0.0356
27677SOL    HW277214   4.457   2.233   5.364 -0.0671  0.7176  0.0810
27678SOL     OW77215   4.548   4.572   0.254  0.4258  0.0305 -0.7847
27678SOL    HW177216   4.520   4.528   0.168  0.3790 -1.7373  0.1140
27678SOL    HW277217   4.628   4.525   0.291  0.8113  1.1587 -0.1515
27679SOL     OW77218   2.401   8.831   7.300  0.0848 -0.3584 -0.2795
27679SOL    HW177219   2.346   8.750   7.280  0.8752 -0.6159 -1.4867
27679SOL    HW277220   2.423   8.834   7.397  0.8034 -2.0790 -0.3834
27680SOL     OW77221   3.604   0.936   5.565  0.3839  0.4427 -0.6409
27680SOL    HW177222   3.638   1.005   5.629  0.7292 -1.3076  1.1190
27680SOL    HW277223   3.504   0.942   5.559  0.4839  1.6441 -1.1582
27681SOL     OW77224   9.301   5.550   1.515 -0.0321  0.2146 -0.0041
27681SOL    HW177225   9.214   5.512   1.545 -0.0498  0.1696 -0.1127
27681SOL    HW277226   9.290   5.589   1.423 -0.1240  0.8690  0.2782
27682SOL     OW77227   3.741   5.987   1.849  0.1962  0.5660 -0.4533
27682SOL    HW177228   3.745   6.050   1.771  1.4730  2.1359  0.8409
27682SOL    HW277229   3.739   6.040   1.934  2.6285 -1.1558  0.7131
27684SOL     OW77230   2.311   7.522   2.782  0.5569  0.5029 -0.6102
27684SOL    HW177231   2.314   7.608   2.732 -1.1940  1.1718  0.3992
27684SOL    HW277232   2.304   7.540   2.880 -0.6470 -0.7792 -0.4482
27685SOL     OW77233   6.629   8.642   2.338 -0.4608  0.2633 -0.0487
27685SOL    HW177234   6.683   8.559   2.329 -0.7120  0.2196 -1.3451
27685SOL    HW277235   6.682   8.720   2.307 -1.8340 -0.0714 -3.5939
27686SOL     OW77236   4.255   1.149   7.101 -0.0625  0.1536  0.3004
27686SOL    HW177237   4.192   1.201   7.045 -1.7060 -2.4114 -0.2964
27686SOL    HW277238   4.349   1.168   7.073 -0.7140  1.5369 -0.9581
27687SOL     OW77239   1.597   8.742   5.448 -0.0160  0.2933 -0.4393
27687SOL    HW177240   1.656   8.672   5.488  1.7802  1.1288 -1.5534
27687SOL    HW277241   1.569   8.714   5.356  0.3376  0.8383 -0.7141
27688SOL     OW77242   0.661   1.795   7.037 -1.0838  0.0799 -0.0969
27688SOL    HW177243   0.650   1.838   7.127 -1.5626  1.7106 -0.9194
27688SOL    HW277244   0.751   1.817   7.001 -1.9763  1.8720 -1.2782
27689SOL     OW77245   8.668   5.172   5.721  0.4592 -0.3322 -0.0507
27689SOL    HW177246   8.587   5.179   5.662 -1.0781  2.9261  2.2973
27689SOL    HW277247   8.736   5.239   5.692  0.2631  0.3306  1.0029
27690SOL     OW77248   7.908   9.392   1.876  0.0042  0.4206  0.3845
27690SOL    HW177249   7.843   9.317   1.861  0.0557  0.2356  1.0480
27690SOL    HW277250   7.981   9.387   1.808 -0.0240 -0.1061  0.3848
27691SOL     OW77251   7.959   4.237   2.788  0.3325  0.4468 -0.5118
27691SOL    HW177252   7.994   4.168   2.726  0.3687 -0.1329  0.1478
27691SOL    HW277253   8.024   4.314   2.792 -0.9801  1.7383 -3.2723
27692SOL     OW77254   2.694   1.171   7.733 -0.0543 -0.2979  0.1400
27692SOL    HW177255   2.783   1.127   7.723 -1.1475 -2.1041 -2.1342
27692SOL    HW277256   2.703   1.270   7.720  1.4840 -0.5804 -1.0160
27694SOL     OW77257   3.472   7.272   4.175  0.6523  0.6088 -0.3819
27694SOL    HW177258   3.536   7.284   4.251  0.5435 -1.2807  0.0543
27694SOL    HW277259   3.408   7.349   4.172  0.7159  0.7457  1.4023
27695SOL     OW77260   8.308   6.758   7.008 -0.1679 -0.1250 -0.3288
27695SOL    HW177261   8.401   6.728   6.987  0.3740  1.2315  0.0998
27695SOL    HW277262   8.257   6.770   6.922  0.0309 -0.9339 -0.5623
27696SOL     OW77263   4.272   2.322   1.788  0.0756 -0.6015  0.0128
27696SOL    HW177264   4.321   2.384   1.849  0.3560 -2.2412  1.4991
27696SOL    HW277265   4.188   2.291   1.832 -0.2746 -0.9539 -0.8919
27697SOL     OW77266   6.744   4.051   1.247  0.3122  1.0720  0.3524
27697SOL    HW177267   6.754   3.989   1.325  2.4749  0.8315 -0.0793
27697SOL    HW277268   6.746   3.999   1.162  0.2806  1.5504  0.0568
27699SOL     OW77269   3.226   3.271   7.563 -0.0106 -0.5613 -0.5266
27699SOL    HW177270   3.324   3.260   7.550  0.1785  1.2914 -0.8794
27699SOL    HW277271   3.179   3.257   7.476  0.2748  1.6405 -1.0852
27700SOL     OW77272   0.217   7.928   4.782 -0.3403 -0.1038  0.4626
27700SOL    HW177273   0.277   7.931   4.702  1.2566  0.6738  1.6745
27700SOL    HW277274   0.226   7.840   4.828  1.1125  0.6167  1.5756
27702SOL     OW77275   0.779   8.618   7.833 -0.6742  0.0221 -0.2311
27702SOL    HW177276   0.879   8.612   7.841 -0.6870  0.1853  0.0426
27702SOL    HW277277   0.739   8.626   7.924 -0.7872  2.4961 -0.4620
27703SOL     OW77278   7.759   6.481   2.243  0.4332  0.4860  0.1173
27703SOL    HW177279   7.794   6.488   2.149  0.6458  0.1621  0.1696
27703SOL    HW277280   7.743   6.572   2.279 -0.0722  0.6018 -0.3927
27704SOL     OW77281   6.018   1.805   0.979  0.5289 -0.2462  0.3484
27704SOL    HW177282   6.091   1.739   0.994 -0.5003 -1.2673  1.0018
27704SOL    HW277283   5.972   1.823   1.066  0.1631  0.5695 -0.0125
27705SOL     OW77284   4.276   0.905   5.937 -0.3749 -0.0198  0.4560
27705SOL    HW177285   4.260   0.997   5.973  1.7851  0.3996  0.4103
27705SOL    HW277286   4.316   0.847   6.008 -0.2165 -0.4512  0.0255
27707SOL     OW77287   2.423   4.950   2.235 -0.1511  0.1399 -0.1566
27707SOL    HW177288   2.365   4.896   2.174 -0.5073  1.8416 -1.3460
27707SOL    HW277289   2.490   5.002   2.181 -0.2684  1.4341  0.9122
27708SOL     OW77290   5.277   2.650   0.520 -0.2758  0.3092  0.4340
27708SOL    HW177291   5.216   2.578   0.553  1.3182 -1.0380  0.4716
27708SOL    HW277292   5.241   2.687   0.434 -0.6315 -1.1349 -0.0441
27709SOL     OW77293   8.862   2.628   2.450 -0.4337 -0.3430  0.4980
27709SOL    HW177294   8.794   2.691   2.413  0.3441  0.0570 -0.2824
27709SOL    HW277295   8.925   2.678   2.510 -0.9038 -0.7377  1.3330
27710SOL     OW77296   2.103   2.802   5.799  0.4139 -0.0038  0.1543
27710SOL    HW177297   2.130   2.858   5.720 -1.2651  1.0509  0.3009
27710SOL    HW277298   2.045   2.727   5.768 -0.7922  0.7967  0.4499
27711SOL     OW77299   9.187   5.586   6.235  0.1716  0.2656 -0.3825
27711SOL    HW177300   9.172   5.625   6.326  0.0023 -1.2867  0.2728
27711SOL    HW277301   9.284   5.597   6.211  0.3596  0.0904  0.2700
27712SOL     OW77302   3.616   8.400   5.678 -0.1995 -0.5028  0.4407
27712SOL    HW177303   3.687   8.435   5.617 -1.3378 -2.9458 -2.3611
27712SOL    HW277304   3.659   8.369   5.763  1.5585  1.6934  0.4200
27713SOL     OW77305   4.112   3.011   1.480  0.3453 -0.6260 -0.2502
27713SOL    HW177306   4.093   3.086   1.416 -1.0040 -0.8236 -0.0910
27713SOL    HW277307   4.131   2.927   1.428  1.5376 -0.2528 -0.4230
27714SOL     OW77308   9.153   5.658   2.507  0.2217  0.5219 -0.4097
27714SOL    HW177309   9.246   5.653   2.470 -0.3710  0.1312 -1.9165
27714SOL    HW277310   9.134   5.575   2.559  0.4242  0.2083 -0.8284
27715SOL     OW77311   2.765   9.683   1.507  0.3787 -0.3242  0.4324
27715SOL    HW177312   2.733   9.637   1.590 -0.9081 -1.0252 -0.4376
27715SOL    HW277313   2.740   9.780   1.510 -0.6249 -0.5746  0.3901
27716SOL     OW77314   5.191   3.038   5.045 -0.0303  0.6681 -0.7002
27716SOL    HW177315   5.162   3.023   4.951 -2.9628 -1.5304  0.4374
27716SOL    HW277316   5.266   2.976   5.067 -2.0218 -1.7789 -0.4916
27717SOL     OW77317   1.317   8.857   4.078 -0.4361 -0.4122  0.8574
27717SOL    HW177318   1.399   8.857   4.135 -0.3546 -1.0444  0.7412
27717SOL    HW277319   1.255   8.785   4.109 -0.3084 -0.8800  0.0152
27718SOL     OW77320   6.788   3.484   2.687  0.6284  0.2887 -0.0491
27718SOL    HW177321   6.734   3.399   2.691 -0.0821  0.7187 -0.3455
27718SOL    HW277322   6.872   3.467   2.636 -0.2705  0.1596 -1.5037
27719SOL     OW77323   4.441   5.029   7.842  0.0160  0.2429  1.1229
27719SOL    HW177324   4.487   4.971   7.774 -0.0724 -0.4441  1.6376
27719SOL    HW277325   4.431   5.121   7.806 -0.9157 -0.3547 -0.2054
27720SOL     OW77326   3.064   0.639   7.220  0.0812  0.2923  0.2906
27720SOL    HW177327   3.006   0.688   7.155  0.1589 -0.3776 -0.2963
27720SOL    HW277328   3.025   0.548   7.237 -0.1419  0.6032  1.4761
27721SOL     OW77329   7.224   3.864   3.935 -0.0016 -0.1216  0.9375
27721SOL    HW177330   7.179   3.933   3.878  1.3320 -0.2587 -0.3526
27721SOL    HW277331   7.173   3.778   3.930 -0.4118  0.1345  0.6782
27722SOL     OW77332   9.720   2.933   4.640 -0.0408  0.6326 -0.1917
27722SOL    HW177333   9.735   2.834   4.641 -0.9013  0.4820 -1.1889
27722SOL    HW277334   9.739   2.971   4.731  1.2099 -0.2980 -0.0538
27723SOL     OW77335   6.594   8.430   6.573  0.4152  0.5108  0.6912
27723SOL    HW177336   6.650   8.511   6.554  1.1608 -0.2287 -0.3292
27723SOL    HW277337   6.635   8.350   6.528 -0.9676 -0.2169  0.7085
27724SOL     OW77338   1.774   0.200   6.304 -0.1374 -0.2478  0.2572
27724SOL    HW177339   1.769   0.194   6.403  2.7157 -2.4175  0.3252
27724SOL    HW277340   1.792   0.294   6.277 -1.9116  0.5421  1.7047
27726SOL     OW77341   8.167   7.446   6.344 -0.1621  0.5057 -0.6697
27726SOL    HW177342   8.210   7.479   6.259 -0.2371 -1.3824 -1.4696
27726SOL    HW277343   8.238   7.433   6.414  0.0745  0.8358 -0.8444
27727SOL     OW77344   6.993   5.383   1.269  0.7896  0.0031 -0.5477
27727SOL    HW177345   6.947   5.315   1.326 -1.1526  1.7200 -0.0006
27727SOL    HW277346   7.088   5.393   1.298  0.1866 -0.1060  1.5381
27728SOL     OW77347   8.476   4.807   0.608 -0.1484 -0.2175  0.3189
27728SOL    HW177348   8.432   4.869   0.673 -0.8548 -0.7401  0.3388
27728SOL    HW277349   8.542   4.859   0.553  0.0744  0.3245  1.0964
27729SOL     OW77350   4.026   9.671   5.415  0.8001  0.1521  0.0598
27729SOL    HW177351   4.001   9.763   5.383  1.4079  1.4944  3.2631
27729SOL    HW277352   4.105   9.677   5.476 -0.6526 -2.1993  2.2584
27730SOL     OW77353   3.227   1.431   1.825 -0.3655  0.1098  0.4064
27730SOL    HW177354   3.164   1.496   1.782  0.4243  0.8735  0.3889
27730SOL    HW277355   3.294   1.481   1.879 -0.4396 -0.7644  1.3292
27731SOL     OW77356   3.909   2.432   7.013  0.4503  0.3386 -0.0599
27731SOL    HW177357   3.825   2.383   6.989 -0.1236  0.3103  1.9102
27731SOL    HW277358   3.893   2.530   7.004 -0.1938  0.3912  1.4437
27732SOL     OW77359   4.421   9.264   7.437 -0.1938 -0.0675  0.6297
27732SOL    HW177360   4.457   9.348   7.477  1.1522 -0.7314  0.8246
27732SOL    HW277361   4.493   9.218   7.386 -0.7787 -1.4179  1.0138
27733SOL     OW77362   8.657   4.981   7.169  0.4619 -0.1035 -0.2297
27733SOL    HW177363   8.695   5.018   7.254  1.1943 -1.1576 -0.0904
27733SOL    HW277364   8.599   4.903   7.190  0.9890 -0.6316 -0.7306
27735SOL     OW77365   0.756   4.039   1.082  0.2586  0.0211 -0.2836
27735SOL    HW177366   0.701   3.995   1.011  1.4963 -2.0458 -0.0166
27735SOL    HW277367   0.851   4.046   1.051  0.2026  1.9422 -0.0485
27737SOL     OW77368   1.860   6.539   4.701 -0.5362  0.1079  0.3932
27737SOL    HW177369   1.938   6.518   4.643 -0.7646 -1.4025  0.6055
27737SOL    HW277370   1.791   6.587   4.647  0.1038  0.5263 -0.0598
27738SOL     OW77371   5.062   9.635   6.150  0.2827  0.1685  0.2515
27738SOL    HW177372   5.124   9.659   6.224  0.4700  0.1102  0.1131
27738SOL    HW277373   5.088   9.684   6.067 -0.5204  0.9906  0.4768
27739SOL     OW77374   7.794   4.602   0.802  0.6032 -0.2702  0.1351
27739SOL    HW177375   7.800   4.543   0.883  1.2534 -0.6405 -0.1831
27739SOL    HW277376   7.882   4.603   0.755  0.1463 -0.2612 -0.7189
27741SOL     OW77377   0.074   2.101   5.403  0.1161  0.7259 -0.0286
27741SOL    HW177378   0.040   2.152   5.324 -0.8561  1.7124  1.0157
27741SOL    HW277379   0.004   2.036   5.433  0.7030 -0.0460 -0.3154
27744SOL     OW77380   3.734   9.211   0.336 -0.0679 -0.5681  0.2366
27744SOL    HW177381   3.805   9.272   0.370  0.3503 -0.9497  0.0471
27744SOL    HW277382   3.774   9.143   0.275 -1.1691  1.5811 -3.0006
27745SOL     OW77383   0.269   1.050   5.440  0.6760  0.3464  0.0364
27745SOL    HW177384   0.308   1.043   5.532  1.1114  0.3004 -0.1484
27745SOL    HW277385   0.252   0.958   5.404 -0.0667  0.3726  0.3072
27746SOL     OW77386   6.977   3.136   0.088  0.2194 -0.0521 -0.0656
27746SOL    HW177387   6.887   3.178   0.093  0.4815  0.4465  0.5346
27746SOL    HW277388   6.973   3.054   0.031 -0.7039 -0.2686  0.3024
27749SOL     OW77389   9.560   1.854   6.961 -0.3014 -0.0152  0.0147
27749SOL    HW177390   9.581   1.757   6.969 -0.6487 -0.3407 -2.4056
27749SOL    HW277391   9.463   1.869   6.982 -0.0151 -0.0220  1.3768
27750SOL     OW77392   4.142   6.000   0.175  0.0755  0.0294 -0.4148
27750SOL    HW177393   4.123   5.949   0.258 -0.2972  0.2147 -0.3875
27750SOL    HW277394   4.096   5.957   0.097  0.8862 -0.4780 -0.6271
27751SOL     OW77395   1.438   3.592   0.917  0.0136  0.1643  0.0049
27751SOL    HW177396   1.339   3.588   0.905 -0.1113  0.4992  0.8612
27751SOL    HW277397   1.481   3.515   0.869 -0.6645  0.0026 -0.3435
27752SOL     OW77398   0.179   0.130   4.207  0.5409 -0.0897  0.1904
27752SOL    HW177399   0.174   0.217   4.255  0.8898  0.0769 -0.0717
27752SOL    HW277400   0.262   0.082   4.234 -0.4853 -1.0915  1.5934
27753SOL     OW77401   5.760   9.648   7.938 -0.3959 -0.4981 -0.3704
27753SOL    HW177402   5.801   9.641   7.847  1.5969 -0.1608  0.4704
27753SOL    HW277403   5.780   9.566   7.991 -0.2320 -0.0409  0.2873
27754SOL     OW77404   1.755   2.203   6.871 -0.1342 -0.0650  0.6436
27754SOL    HW177405   1.733   2.238   6.780 -0.9151  1.9794  1.6092
27754SOL    HW277406   1.718   2.110   6.881 -2.3354  0.7016 -0.1863
27755SOL     OW77407   9.032   2.128   1.887  0.1115  0.3710 -0.3028
27755SOL    HW177408   9.047   2.032   1.865  1.0478  0.4710 -0.1184
27755SOL    HW277409   9.029   2.182   1.803 -1.1696  0.0818 -0.4513
27756SOL     OW77410   8.758   5.816   6.253 -0.8817  0.2163 -0.7102
27756SOL    HW177411   8.842   5.860   6.221 -0.3783  0.9200  1.5088
27756SOL    HW277412   8.684   5.883   6.258 -0.6863  0.3554  0.5517
27757SOL     OW77413   5.739   4.625   1.047 -0.1128  0.0381 -0.5306
27757SOL    HW177414   5.824   4.678   1.041 -0.4765  0.9002  1.4424
27757SOL    HW277415   5.754   4.544   1.104  0.0311 -1.1756 -2.2610
27759SOL     OW77416   1.127   3.920   3.160 -0.4050  1.0172 -0.3512
27759SOL    HW177417   1.145   3.855   3.086 -1.6992  2.7250 -2.2260
27759SOL    HW277418   1.214   3.959   3.191  0.1755  0.1434 -0.8436
27760SOL     OW77419   9.171   8.695   3.685  0.5238  0.4207  0.1500
27760SOL    HW177420   9.189   8.735   3.774 -1.5035  0.5588  0.5357
27760SOL    HW277421   9.134   8.602   3.696 -2.0334  1.3290 -0.3994
27761SOL     OW77422   7.223   5.737   1.462 -0.0715  0.3160 -0.1433
27761SOL    HW177423   7.289   5.690   1.520 -0.4505  0.4501  0.4055
27761SOL    HW277424   7.215   5.690   1.374  1.5532  0.9292 -0.6182
27762SOL     OW77425   2.847   5.205   4.430 -0.4271 -0.2458  0.0472
27762SOL    HW177426   2.809   5.293   4.403 -0.6558 -0.4565 -0.3299
27762SOL    HW277427   2.828   5.137   4.358  0.8210 -0.3061 -0.2282
27763SOL     OW77428   0.186   9.637   0.366 -0.1802 -0.5674 -0.3450
27763SOL    HW177429   0.159   9.585   0.446 -0.3634 -0.4563 -0.3349
27763SOL    HW277430   0.108   9.645   0.303 -1.1244  2.4890  1.1395
27766SOL     OW77431   0.285   4.340   7.001  0.4862 -0.1599  0.2252
27766SOL    HW177432   0.232   4.409   6.952 -0.6487 -1.5060 -0.4797
27766SOL    HW277433   0.258   4.339   7.097 -1.0839 -1.0930 -0.2002
27767SOL     OW77434   3.271   7.101   2.041  0.0323 -0.4721 -0.2699
27767SOL    HW177435   3.241   7.105   2.137 -0.5531 -0.9934 -0.4204
27767SOL    HW277436   3.219   7.029   1.994  0.7259 -0.6022 -0.8351
27768SOL     OW77437   2.355   8.004   2.598 -0.7151  0.0715 -0.7231
27768SOL    HW177438   2.446   8.034   2.627 -0.3512  0.3361 -2.1247
27768SOL    HW277439   2.334   8.042   2.508 -2.0046 -0.4101 -0.6355
27769SOL     OW77440   5.566   2.722   0.150 -0.4002  0.0230 -0.1338
27769SOL    HW177441   5.600   2.628   0.159 -0.8374 -0.1058  0.2128
27769SOL    HW277442   5.639   2.786   0.171 -0.3853 -0.2501  0.6906
27770SOL     OW77443   2.267   9.097   0.762 -0.3092 -0.3502  0.2384
27770SOL    HW177444   2.272   9.061   0.855  0.8170 -0.7826  0.0240
27770SOL    HW277445   2.309   9.031   0.699 -0.1261  0.4080 -0.4365
27771SOL     OW77446   9.147   6.127   7.358 -0.1127  0.1501 -0.3085
27771SOL    HW177447   9.192   6.179   7.430 -1.2135  0.4396  0.1723
27771SOL    HW277448   9.116   6.189   7.286 -0.7016  0.0662 -0.1255
27773SOL     OW77449   3.391   3.997   3.963 -0.3131 -0.0056 -0.0351
27773SOL    HW177450   3.301   3.996   3.920  0.1711  1.4806 -1.1563
27773SOL    HW277451   3.389   3.944   4.048 -2.7988  1.7736  1.0611
27774SOL     OW77452   3.321   8.754   3.910  0.1763  0.3336  0.1245
27774SOL    HW177453   3.336   8.690   3.835  1.3180 -0.6466  1.1731
27774SOL    HW277454   3.224   8.754   3.935 -0.6555  2.3603 -2.8271
27775SOL     OW77455   9.025   1.327   3.403 -0.5621 -0.2103 -0.2035
27775SOL    HW177456   8.980   1.243   3.432 -0.2414 -0.9386 -1.7115
27775SOL    HW277457   9.006   1.343   3.306  1.7626 -0.1239 -0.6849
27776SOL     OW77458   9.540   4.074   7.430 -0.3351  0.2972 -0.3584
27776SOL    HW177459   9.470   4.023   7.481  1.0639  1.9365  3.3999
27776SOL    HW277460   9.505   4.165   7.407 -0.8932 -0.3709 -2.2418
27777SOL     OW77461   8.419   5.539   1.866 -0.1885  0.2743  0.1692
27777SOL    HW177462   8.338   5.481   1.856 -2.0225  2.3793  2.0467
27777SOL    HW277463   8.463   5.520   1.954 -0.6712  1.5303  0.6969
27778SOL     OW77464   7.687   1.594   4.990  0.0081  0.2884 -0.1642
27778SOL    HW177465   7.666   1.608   5.087  0.4846 -3.2549  0.5046
27778SOL    HW277466   7.612   1.546   4.946  1.6182 -1.9999 -0.4911
27781SOL     OW77467   0.814   1.982   4.722 -0.5403 -0.1978  0.3212
27781SOL    HW177468   0.760   2.055   4.679 -1.3893 -0.0960  1.5416
27781SOL    HW277469   0.911   2.008   4.723 -0.6223  0.1668 -0.7603
27784SOL     OW77470   7.511   0.856   0.726  0.4342  0.2402  0.2795
27784SOL    HW177471   7.483   0.886   0.817  2.2008  0.7789  0.6764
27784SOL    HW277472   7.556   0.766   0.734 -0.1290 -0.0828 -0.1737
27785SOL     OW77473   8.063   7.227   2.926 -0.3315  0.1500  0.2262
27785SOL    HW177474   8.064   7.319   2.887  1.4104  0.3744  0.7540
27785SOL    HW277475   8.075   7.159   2.854 -0.3520  0.4043 -0.0136
27786SOL     OW77476   2.569   7.346   1.794  0.3577 -0.3909 -0.0280
27786SOL    HW177477   2.663   7.369   1.768 -1.0963  2.6640 -2.9025
27786SOL    HW277478   2.530   7.284   1.727 -0.2859 -0.1692  0.1394
27787SOL     OW77479   4.556   2.641   5.975 -0.4519 -0.0410 -0.2390
27787SOL    HW177480   4.634   2.625   5.914  0.9728  0.2395  1.4687
27787SOL    HW277481   4.549   2.567   6.041 -0.1465  1.1220  1.1361
27790SOL     OW77482   8.190   7.053   5.445  0.1734 -0.7776  0.2755
27790SOL    HW177483   8.219   7.063   5.540  1.2427 -1.8083  0.0705
27790SOL    HW277484   8.112   6.991   5.440  0.5140 -1.2234  0.4261
27791SOL     OW77485   8.309   0.447   3.388  0.0077 -0.2734 -0.2093
27791SOL    HW177486   8.385   0.437   3.453  1.2396 -0.8329 -1.6915
27791SOL    HW277487   8.255   0.528   3.412  0.5765 -0.3368  1.3573
27792SOL     OW77488   1.280   8.850   7.394  0.2073 -0.0340  0.6418
27792SOL    HW177489   1.350   8.875   7.461  1.6408  1.2281 -1.2462
27792SOL    HW277490   1.254   8.931   7.341 -1.6024 -0.8056  0.3052
27794SOL     OW77491   2.418   3.993   1.860  0.0738 -0.1723 -0.4657
27794SOL    HW177492   2.419   4.009   1.959 -2.0027 -1.4491 -0.1886
27794SOL    HW277493   2.461   3.904   1.841 -0.4047 -0.3790 -0.5938
27795SOL     OW77494   5.620   7.757   5.319  0.2140  0.2106 -0.4337
27795SOL    HW177495   5.698   7.814   5.346 -0.3257  1.7507 -2.0706
27795SOL    HW277496   5.539   7.785   5.369  0.4824 -0.7967  0.5974
27796SOL     OW77497   0.085   4.950   7.272 -0.5973 -0.5161 -0.1185
27796SOL    HW177498   0.070   4.978   7.367 -2.9700 -1.2294 -0.2533
27796SOL    HW277499   0.032   4.868   7.253 -1.2169  0.3918 -2.4558
27797SOL     OW77500   2.080   1.535   3.348  0.1650  0.1706 -0.1171
27797SOL    HW177501   2.140   1.528   3.428  0.4922  0.5897 -0.3221
27797SOL    HW277502   2.019   1.614   3.359  0.3746  0.3702 -0.3893
27798SOL     OW77503   6.174   8.508   4.278  0.2552 -0.4307 -0.9875
27798SOL    HW177504   6.102   8.440   4.268 -2.3391  1.7858  1.7196
27798SOL    HW277505   6.165   8.577   4.206 -0.6851  0.1139 -0.3626
27799SOL     OW77506   0.706   0.646   3.908 -0.2255  0.3782 -0.2194
27799SOL    HW177507   0.793   0.684   3.940  1.2099 -1.9823 -1.1839
27799SOL    HW277508   0.662   0.710   3.845  0.2773  2.0535  1.0957
27800SOL     OW77509   3.861   9.220   3.278  0.0634  0.0865  0.1123
27800SOL    HW177510   3.832   9.248   3.369 -0.5255 -1.0124  0.2786
27800SOL    HW277511   3.879   9.122   3.278 -0.3034  0.0104 -1.0360
27801SOL     OW77512   3.855   3.405   3.833  0.6232  0.4001 -0.3082
27801SOL    HW177513   3.776   3.465   3.837 -0.1212 -0.5899  0.1741
27801SOL    HW277514   3.829   3.313   3.864  1.7577 -0.1496 -0.9340
27802SOL     OW77515   3.569   2.226   7.583  0.6758  0.3745 -0.2575
27802SOL    HW177516   3.573   2.292   7.509 -0.6991 -0.3463 -1.0031
27802SOL    HW277517   3.512   2.261   7.657  0.4444  0.2872 -0.3928
27803SOL     OW77518   2.079   4.698   0.448  0.3646 -0.5791 -0.2266
27803SOL    HW177519   2.054   4.754   0.527  1.3349 -0.1172 -0.2459
27803SOL    HW277520   2.149   4.633   0.474  2.3935  1.1262 -1.2519
27804SOL     OW77521   1.736   9.932   0.810  0.5940  0.2695  0.1714
27804SOL    HW177522   1.651   9.885   0.833  1.5938 -0.4629  2.4601
27804SOL    HW277523   1.796   9.870   0.758  0.8412 -0.1291  0.9277
27805SOL     OW77524   9.583   9.297   5.263  0.2081  0.9154  1.1413
27805SOL    HW177525   9.628   9.245   5.190 -1.3586  0.2903  0.6116
27805SOL    HW277526   9.583   9.243   5.347  0.4873  0.9468  1.1642
27806SOL     OW77527   0.378   7.697   6.649 -0.4050  0.2427  0.4525
27806SOL    HW177528   0.351   7.739   6.561 -1.5603 -1.0527  0.1653
27806SOL    HW277529   0.296   7.662   6.694 -0.2412  3.4464  3.4418
27807SOL     OW77530   0.670   4.259   5.083 -0.5432  0.3835 -0.0754
27807SOL    HW177531   0.739   4.316   5.038 -0.1910  0.3271  0.4027
27807SOL    HW277532   0.631   4.195   5.016  0.3287 -0.0333 -0.1837
27809SOL     OW77533   2.356   1.434   5.056 -0.1248  0.0787  0.6331
27809SOL    HW177534   2.267   1.462   5.021 -0.7336 -1.5085  0.8497
27809SOL    HW277535   2.380   1.344   5.018  2.1463  1.2353 -0.7317
27810SOL     OW77536   9.049   2.813   6.560  0.5950  0.0733  0.2170
27810SOL    HW177537   8.955   2.847   6.559  0.5624 -0.0183  0.0422
27810SOL    HW277538   9.097   2.847   6.480  0.3624 -0.8434 -0.3211
27812SOL     OW77539   6.805   6.032   0.288 -0.6422  0.2276 -0.0409
27812SOL    HW177540   6.808   5.932   0.292 -1.3035  0.2294  0.7625
27812SOL    HW277541   6.880   6.065   0.232  0.2240 -0.6707  0.5574
27813SOL     OW77542   8.454   3.097   2.592  0.4162 -0.4519  0.7857
27813SOL    HW177543   8.363   3.072   2.623 -0.0686  0.9081  0.4945
27813SOL    HW277544   8.507   3.014   2.573 -1.7642 -1.3184 -1.9584
27814SOL     OW77545   3.167   4.448   5.506 -0.1179  0.0177 -0.8669
27814SOL    HW177546   3.233   4.429   5.579  1.3625 -0.9481 -2.4195
27814SOL    HW277547   3.076   4.418   5.535  0.5597 -0.9180  0.3607
27815SOL     OW77548   3.315   7.599   2.486 -0.0272  0.1762 -0.0363
27815SOL    HW177549   3.254   7.554   2.422 -0.5120 -0.7193  1.0552
27815SOL    HW277550   3.299   7.565   2.578  2.1514 -0.1167  0.2645
27816SOL     OW77551   4.689   8.426   3.407  0.4814  0.7263 -0.4705
27816SOL    HW177552   4.664   8.425   3.310 -3.1191 -1.6613  0.3696
27816SOL    HW277553   4.650   8.508   3.451 -0.3567  0.3619 -0.5128
27818SOL     OW77554   5.106   2.055   5.009  0.0811  0.6504 -0.0399
27818SOL    HW177555   5.096   1.966   4.965  0.5616 -0.3240  1.7744
27818SOL    HW277556   5.167   2.113   4.954  0.5125 -0.4654 -0.7473
27819SOL     OW77557   8.615   0.707   2.489  0.1737  0.3823  0.1178
27819SOL    HW177558   8.607   0.788   2.431 -2.8364  0.3764  0.4330
27819SOL    HW277559   8.711   0.691   2.510  1.4061  0.4158 -4.7860
27820SOL     OW77560   8.964   3.093   4.254 -0.1627 -0.4878  0.3844
27820SOL    HW177561   8.982   3.048   4.342 -1.4416 -0.0278  0.8898
27820SOL    HW277562   8.888   3.047   4.208  0.4769 -0.7036 -0.4713
27821SOL     OW77563   6.905   1.158   4.659 -0.2545 -0.3002  1.0462
27821SOL    HW177564   6.967   1.169   4.737  0.0554  0.9576  0.6414
27821SOL    HW277565   6.955   1.115   4.584  0.6268  2.1279  0.1791
27822SOL     OW77566   7.598   6.478   1.570 -0.0531 -0.2803 -0.2985
27822SOL    HW177567   7.545   6.479   1.654  2.6576  1.3508  1.4820
27822SOL    HW277568   7.661   6.400   1.570  1.2813  0.7739  0.0927
27823SOL     OW77569   3.913   5.422   2.799  0.3640  0.0179 -0.5462
27823SOL    HW177570   3.927   5.324   2.810 -3.5811 -0.6493 -0.7480
27823SOL    HW277571   3.912   5.466   2.889 -0.4379 -0.5617 -0.2636
27824SOL     OW77572   7.022   9.247   3.635 -0.3342  0.3475  0.2003
27824SOL    HW177573   6.948   9.203   3.687 -2.2872  1.1382 -1.8134
27824SOL    HW277574   6.988   9.332   3.594  1.3612  0.1475 -1.6910
27826SOL     OW77575   6.561   5.077   2.620 -0.6913 -0.4029  0.4640
27826SOL    HW177576   6.556   5.124   2.532  0.3022  0.8927  1.0694
27826SOL    HW277577   6.598   4.985   2.607  1.9661  0.6907 -0.1869
27827SOL     OW77578   6.588   2.326   4.123 -0.0988 -0.2409  0.2161
27827SOL    HW177579   6.661   2.389   4.097 -1.1125  0.2217 -1.6267
27827SOL    HW277580   6.539   2.363   4.202 -0.2639  0.9717 -0.4379
27828SOL     OW77581   4.699   0.919   0.114  0.6092 -0.3221  0.0828
27828SOL    HW177582   4.717   1.014   0.088  0.8006 -0.2911  0.3303
27828SOL    HW277583   4.622   0.884   0.060  0.9726 -0.2435 -0.4953
27829SOL     OW77584   3.151   2.586   0.648 -0.0612 -0.0516 -0.6602
27829SOL    HW177585   3.059   2.590   0.688  0.5153 -0.5395  0.7568
27829SOL    HW277586   3.197   2.673   0.662  0.6984 -0.7284  1.1337
27830SOL     OW77587   3.681   5.818   3.251  0.8211  0.9393 -0.2956
27830SOL    HW177588   3.747   5.759   3.203 -1.3876 -0.5383 -1.6631
27830SOL    HW277589   3.661   5.779   3.341 -1.7892 -1.3870 -1.7905
27831SOL     OW77590   4.919   3.787   0.700 -0.0817 -0.1307  0.0351
27831SOL    HW177591   4.841   3.740   0.742 -0.9735 -0.3148 -1.8102
27831SOL    HW277592   4.929   3.877   0.742 -0.7292 -0.4522  0.9106
27832SOL     OW77593   6.079   9.695   4.242  0.4864 -0.0012  0.0789
27832SOL    HW177594   6.056   9.676   4.146  1.2022 -0.4750 -0.0027
27832SOL    HW277595   6.150   9.631   4.272  0.3862  0.2601  0.8748
27833SOL     OW77596   2.744   1.572   3.646 -0.2179 -0.6680  0.1415
27833SOL    HW177597   2.783   1.481   3.637  0.9518 -0.1216 -0.3664
27833SOL    HW277598   2.774   1.613   3.732  0.7975 -0.0233 -0.5184
27834SOL     OW77599   3.912   1.379   3.680 -0.2420  0.0454 -0.6325
27834SOL    HW177600   3.828   1.391   3.733  0.4694 -0.6436  0.6914
27834SOL    HW277601   3.889   1.354   3.586 -1.5534  2.4811 -0.9940
27835SOL     OW77602   0.669   8.468   1.176  0.1388 -0.0824  0.0972
27835SOL    HW177603   0.622   8.433   1.257  2.8003 -0.9032  1.3335
27835SOL    HW277604   0.698   8.392   1.117 -1.4756  0.4906 -1.4778
27836SOL     OW77605   4.359   9.104   6.455  0.2464  0.3680 -0.2516
27836SOL    HW177606   4.365   9.030   6.522 -2.0944 -1.0683 -1.5687
27836SOL    HW277607   4.322   9.186   6.499  0.3629 -0.0250  0.5969
27838SOL     OW77608   3.072   3.187   5.091 -0.0043 -0.3160 -0.0551
27838SOL    HW177609   2.990   3.242   5.075 -1.4650 -1.8951  1.6438
27838SOL    HW277610   3.118   3.170   5.004 -0.4556  2.1180 -0.8101
27839SOL     OW77611   8.816   2.596   3.106 -0.7498  0.6788 -0.1674
27839SOL    HW177612   8.868   2.519   3.070 -2.2219 -1.4506  2.1207
27839SOL    HW277613   8.793   2.659   3.032 -0.4449 -1.6110 -2.2580
27840SOL     OW77614   3.663   3.589   3.889  0.0375  0.1341 -0.2139
27840SOL    HW177615   3.684   3.687   3.889 -1.2846  0.4491  2.0564
27840SOL    HW277616   3.578   3.573   3.839 -0.2712  0.3051  0.2409
27841SOL     OW77617   7.253   1.742   5.100 -0.3583 -0.1054 -0.4577
27841SOL    HW177618   7.275   1.794   5.182  2.0024  0.3252 -1.3206
27841SOL    HW277619   7.258   1.644   5.120 -1.4050 -0.0114  0.3021
27842SOL     OW77620   1.567   6.814   7.740 -0.1924  0.0739  0.4727
27842SOL    HW177621   1.662   6.784   7.725 -0.3994  0.8477 -2.7738
27842SOL    HW277622   1.529   6.766   7.819  2.5571 -1.0513  1.1629
27843SOL     OW77623   7.109   4.790   0.432 -0.6117  0.7460  0.1147
27843SOL    HW177624   7.202   4.812   0.404 -0.7116  1.3573  0.2426
27843SOL    HW277625   7.058   4.753   0.355 -0.4956  1.1748 -0.1701
27844SOL     OW77626   0.466   9.533   5.593 -0.1057 -0.5120  0.1018
27844SOL    HW177627   0.464   9.588   5.677  0.4069  0.1322 -0.2999
27844SOL    HW277628   0.484   9.593   5.515 -0.4896 -1.1230 -0.4590
27845SOL     OW77629   2.735   9.333   6.320  0.4932 -0.3383  0.4157
27845SOL    HW177630   2.737   9.241   6.358  0.2787 -0.5425 -0.0614
27845SOL    HW277631   2.732   9.328   6.220  0.5509  0.1841  0.3867
27846SOL     OW77632   1.519   7.283   1.990  0.2016 -0.3653 -0.3756
27846SOL    HW177633   1.590   7.213   2.001  1.6624  1.4031  2.0310
27846SOL    HW277634   1.436   7.254   2.037  0.5739 -0.7740  0.0347
27847SOL     OW77635   9.131   9.325   1.076 -0.5553  0.3610  0.2519
27847SOL    HW177636   9.105   9.411   1.120  0.2275 -0.0997  1.6599
27847SOL    HW277637   9.138   9.253   1.145  1.2549 -0.2513 -0.5274
27848SOL     OW77638   7.448   8.080   4.039 -0.0798  0.1149 -0.0166
27848SOL    HW177639   7.439   8.003   3.977  1.0620  0.1839 -0.2867
27848SOL    HW277640   7.537   8.124   4.025 -0.7520  1.5391  0.0582
27849SOL     OW77641   9.872   6.272   1.324 -0.0775  0.1358  0.2619
27849SOL    HW177642   9.805   6.219   1.375  0.7502  0.0682  1.3079
27849SOL    HW277643   9.913   6.341   1.385 -0.3976  1.2874 -0.8017
27850SOL     OW77644   7.872   7.635   6.716  0.5549 -0.2718 -0.3145
27850SOL    HW177645   7.772   7.637   6.715  0.5467  2.6070 -2.4961
27850SOL    HW277646   7.906   7.642   6.622  2.7670  1.9572  0.5817
27851SOL     OW77647   9.700   7.557   7.655  0.1563 -0.1331 -0.3459
27851SOL    HW177648   9.719   7.586   7.562  0.9384 -1.6520 -0.6741
27851SOL    HW277649   9.716   7.633   7.718  0.1890  0.7245 -1.3756
27853SOL     OW77650   3.354   4.148   0.972  0.0226 -0.2696 -0.0038
27853SOL    HW177651   3.452   4.170   0.971  0.4870 -1.8544  3.3717
27853SOL    HW277652   3.332   4.092   0.892  1.8222  0.2744 -0.9052
27854SOL     OW77653   8.461   2.282   3.832 -0.0816 -0.0880 -0.1359
27854SOL    HW177654   8.472   2.347   3.907  1.7450 -0.8865  0.3314
27854SOL    HW277655   8.519   2.310   3.755 -1.3536  0.3031 -0.9609
27855SOL     OW77656   1.637   6.404   2.916 -0.6931 -0.1368  1.0977
27855SOL    HW177657   1.716   6.448   2.874 -1.3460  0.5464  0.5556
27855SOL    HW277658   1.558   6.464   2.908 -1.1632 -0.6255  2.0312
27856SOL     OW77659   3.502   5.515   4.714 -0.0064  0.0541  0.1651
27856SOL    HW177660   3.559   5.596   4.704  0.2104  0.1898  2.2937
27856SOL    HW277661   3.414   5.530   4.669 -0.3734  1.8887  1.4630
27857SOL     OW77662   1.339   8.815   3.028 -0.0161 -0.0621 -0.2794
27857SOL    HW177663   1.253   8.764   3.028  0.3220 -0.6564  0.9976
27857SOL    HW277664   1.336   8.887   3.096  0.4138  0.0563 -0.3812
27858SOL     OW77665   4.704   2.796   6.225  0.2780  0.3622  0.4806
27858SOL    HW177666   4.738   2.799   6.319  0.8601 -1.2041  0.3422
27858SOL    HW277667   4.652   2.711   6.211 -1.6357  1.5665 -0.0165
27859SOL     OW77668   2.498   5.197   3.036  0.3261  0.1034  0.5938
27859SOL    HW177669   2.436   5.119   3.048 -1.2749  1.2702  0.0122
27859SOL    HW277670   2.521   5.206   2.939  2.9793 -1.4846  1.0192
27862SOL     OW77671   4.648   1.990   6.293 -0.1252  0.1974 -0.4651
27862SOL    HW177672   4.677   1.898   6.266 -0.1696 -0.4068  1.4542
27862SOL    HW277673   4.601   2.034   6.217 -1.5766 -1.9952 -0.8772
27863SOL     OW77674   5.661   5.552   2.213 -0.3441 -0.0995  0.5028
27863SOL    HW177675   5.622   5.591   2.130  1.9007 -0.8153 -0.9436
27863SOL    HW277676   5.654   5.452   2.209 -0.6850 -0.1137  1.4181
27864SOL     OW77677   9.109   4.525   6.683  0.4229 -0.1042  0.5874
27864SOL    HW177678   9.161   4.444   6.710  0.7830  0.5577  1.9706
27864SOL    HW277679   9.062   4.562   6.763  0.4652  1.1835  0.0301
27865SOL     OW77680   6.019   2.009   0.431 -0.5140 -0.7301 -0.4575
27865SOL    HW177681   5.945   1.966   0.483 -0.4434 -1.4592 -0.9446
27865SOL    HW277682   6.099   1.950   0.431  0.6553  0.8034  1.4655
27866SOL     OW77683   6.193   7.698   3.744  0.0326  0.3547 -0.2597
27866SOL    HW177684   6.165   7.787   3.780  0.2812  0.0018  0.8414
27866SOL    HW277685   6.259   7.711   3.670  1.3972  1.0552  1.0632
27867SOL     OW77686   8.905   8.835   0.833  0.0177  0.2874  0.0984
27867SOL    HW177687   8.979   8.832   0.765  0.5262  0.9579  0.6168
27867SOL    HW277688   8.817   8.843   0.786  0.0137 -3.2119 -0.6743
27868SOL     OW77689   4.336   4.344   4.613 -0.0776  0.6354 -0.4202
27868SOL    HW177690   4.360   4.271   4.549  1.2027  0.5773  0.1034
27868SOL    HW277691   4.332   4.307   4.705  0.1985  1.1454 -0.2015
27870SOL     OW77692   8.377   3.670   0.171 -0.1824  0.3243 -0.1966
27870SOL    HW177693   8.412   3.749   0.121 -0.3518  0.0429 -0.7705
27870SOL    HW277694   8.447   3.598   0.173 -0.0597  0.4515  0.2481
27872SOL     OW77695   4.987   5.244   7.900  0.1351  0.0523  0.0080
27872SOL    HW177696   4.919   5.263   7.971  1.9291  1.1698  1.5109
27872SOL    HW277697   5.048   5.323   7.892  2.3847 -1.6387  0.0485
27873SOL     OW77698   9.415   1.769   4.443 -0.1005  0.4478 -0.5420
27873SOL    HW177699   9.407   1.802   4.537  0.8739  0.0368 -0.3148
27873SOL    HW277700   9.324   1.748   4.408 -0.4642  0.5361  0.3309
27874SOL     OW77701   2.880   0.565   3.059  0.0578  0.0410  0.1452
27874SOL    HW177702   2.812   0.626   3.099 -3.3065 -1.8073 -2.4982
27874SOL    HW277703   2.886   0.481   3.113  1.2961  0.7470  1.1414
27875SOL     OW77704   2.929   8.295   3.715 -0.4924  0.1511 -0.3661
27875SOL    HW177705   2.839   8.335   3.730  0.0167  0.7886  1.0100
27875SOL    HW277706   2.970   8.337   3.634  0.1655  2.6965  1.2224
27876SOL     OW77707   7.224   5.939   0.057  0.1399  0.1516 -0.1291
27876SOL    HW177708   7.276   6.024   0.063  0.8641 -0.1520 -1.9436
27876SOL    HW277709   7.287   5.861   0.062 -0.5353 -0.3159  1.7538
27877SOL     OW77710   9.005   9.627   0.668 -0.3211 -0.0966  0.2276
27877SOL    HW177711   9.101   9.613   0.641  0.4310  2.2510  1.5733
27877SOL    HW277712   8.953   9.658   0.589  0.9884  2.7844  0.4530
27878SOL     OW77713   4.021   9.181   4.971  0.1577 -0.1391 -0.0496
27878SOL    HW177714   4.066   9.216   5.053 -3.4949  1.7371  1.2784
27878SOL    HW277715   4.061   9.223   4.890  1.8819  0.1873  0.9613
27879SOL     OW77716   8.329   4.876   5.960 -0.1623 -0.3846  0.5434
27879SOL    HW177717   8.370   4.918   6.041  0.5647 -0.2303  0.1023
27879SOL    HW277718   8.394   4.879   5.884 -0.9832 -0.1809 -0.1596
27880SOL     OW77719   5.863   0.402   1.785  0.0389  0.0092  0.0920
27880SOL    HW177720   5.943   0.434   1.835 -0.8928  1.5389  0.6389
27880SOL    HW277721   5.834   0.313   1.821  0.9960 -0.1593  0.4383
27881SOL     OW77722   7.379   0.169   0.471 -0.1977  0.4342 -0.1631
27881SOL    HW177723   7.435   0.097   0.431 -0.8679 -0.0946 -0.1480
27881SOL    HW277724   7.373   0.157   0.570  1.0523  1.4620  0.0508
27882SOL     OW77725   6.652   1.009   7.796 -0.2656 -0.3588  0.2095
27882SOL    HW177726   6.707   1.002   7.880  0.3665 -0.1446 -0.1849
27882SOL    HW277727   6.610   0.921   7.776 -1.9997  0.0692  1.8238
27884SOL     OW77728   7.211   1.801   0.682 -0.5106 -0.9371 -0.4973
27884SOL    HW177729   7.306   1.831   0.673 -0.2636 -2.1109 -2.0358
27884SOL    HW277730   7.150   1.873   0.652 -0.1128 -0.1661  0.5181
27885SOL     OW77731   7.960   3.629   2.154 -0.1674  0.2183  0.3980
27885SOL    HW177732   7.897   3.702   2.128 -0.6494 -0.4342 -0.2633
27885SOL    HW277733   7.993   3.645   2.248  0.6040  1.8910 -0.1367
27888SOL     OW77734   1.636   1.054   1.277 -0.1596 -0.9542  0.2338
27888SOL    HW177735   1.648   0.956   1.294 -2.3412 -0.9421  2.0182
27888SOL    HW277736   1.551   1.069   1.227 -0.3806  0.1135  0.9140
27889SOL     OW77737   2.989   1.946   1.918  0.0024  0.0498 -0.2232
27889SOL    HW177738   3.051   1.983   1.849 -0.8622  0.2156 -0.9140
27889SOL    HW277739   2.931   1.876   1.877  0.4645 -0.8825  0.6829
27890SOL     OW77740   7.073   7.753   3.596 -0.0097 -0.1231  0.5748
27890SOL    HW177741   7.039   7.682   3.658  0.1005 -2.0614 -1.5311
27890SOL    HW277742   7.165   7.730   3.565 -1.3779 -1.0897 -3.0675
27891SOL     OW77743   7.249   9.521   3.299 -0.1027 -0.7814 -0.0629
27891SOL    HW177744   7.190   9.506   3.378 -1.4910 -2.8249 -1.4571
27891SOL    HW277745   7.223   9.607   3.255 -0.8357 -0.7727  0.3730
27894SOL     OW77746   7.783   7.035   6.936  0.1100  0.2559 -0.3600
27894SOL    HW177747   7.787   7.133   6.915 -0.4867  0.0562 -1.4337
27894SOL    HW277748   7.692   7.001   6.916  0.2119 -0.4440  0.3812
27896SOL     OW77749   2.408   8.982   2.816 -0.3088  0.0812 -0.2862
27896SOL    HW177750   2.378   9.067   2.772 -0.6665 -0.5478 -1.2817
27896SOL    HW277751   2.332   8.941   2.866 -0.7355 -0.7549 -1.5919
27897SOL     OW77752   8.999   3.569   4.825 -0.0926  0.0875  0.3108
27897SOL    HW177753   9.033   3.508   4.753  0.0209 -0.6691  1.0050
27897SOL    HW277754   8.932   3.633   4.785 -0.7381 -0.9428 -0.2805
27899SOL     OW77755   0.044   5.482   1.548 -0.2655 -0.4977 -0.3300
27899SOL    HW177756  -0.044   5.442   1.525  1.1221 -2.9767 -1.4830
27899SOL    HW277757   0.082   5.527   1.467  0.2609 -0.8488 -0.2802
27900SOL     OW77758   0.785   2.953   1.348  0.0632  0.3441  0.0926
27900SOL    HW177759   0.871   2.957   1.297  0.5339 -1.1980  0.7245
27900SOL    HW277760   0.744   2.862   1.336 -0.9368  0.7196  0.6529
27901SOL     OW77761   7.714   7.743   7.705 -0.7803  0.0357 -0.2266
27901SOL    HW177762   7.669   7.780   7.787 -0.0932  2.4617 -0.9026
27901SOL    HW277763   7.788   7.804   7.678 -0.6104 -1.0669 -2.3368
27902SOL     OW77764   2.371   2.197   3.232  0.4035  0.0725  0.0634
27902SOL    HW177765   2.342   2.111   3.275  2.0434 -1.1111 -1.1090
27902SOL    HW277766   2.462   2.222   3.266 -0.8157  2.3933  1.8085
27903SOL     OW77767   4.560   6.078   1.247 -0.0024  0.0537 -0.1668
27903SOL    HW177768   4.529   6.050   1.337  2.2614 -0.1065  0.5812
27903SOL    HW277769   4.482   6.082   1.185 -1.8676  1.9253  2.2200
27905SOL     OW77770   4.208   3.951   5.400  0.0535 -0.3301  0.5487
27905SOL    HW177771   4.212   4.045   5.433  1.4232 -0.6501  1.3414
27905SOL    HW277772   4.233   3.889   5.474 -0.8948 -1.3301  0.0434
27906SOL     OW77773   0.278   6.142   2.261  0.0812 -0.6022  0.5494
27906SOL    HW177774   0.215   6.163   2.335  0.6023  0.8519  0.5851
27906SOL    HW277775   0.289   6.042   2.254 -0.7257 -0.7859  1.7738
27907SOL     OW77776   4.084   0.109   1.187 -0.0594  0.1666 -0.1194
27907SOL    HW177777   4.134   0.195   1.180 -1.4529  0.9407 -0.8202
27907SOL    HW277778   4.057   0.078   1.096 -0.9803 -0.1465  0.2525
27909SOL     OW77779   8.839   6.060   1.522  0.3364 -0.0656  0.1523
27909SOL    HW177780   8.861   6.017   1.610 -1.5172 -0.6057  0.3837
27909SOL    HW277781   8.743   6.088   1.522  0.0664 -0.8911 -2.0242
27910SOL     OW77782   8.958   3.943   6.067  0.5807  0.6082 -0.1907
27910SOL    HW177783   8.922   4.033   6.043 -0.8030  0.4205  1.0742
27910SOL    HW277784   9.043   3.953   6.119  0.0404  1.2173  0.5814
27911SOL     OW77785   7.813   1.070   7.765 -0.1219  0.1145 -0.5966
27911SOL    HW177786   7.835   0.974   7.749 -0.9684 -0.3109  0.8026
27911SOL    HW277787   7.891   1.116   7.807  0.5348  0.2236 -1.8912
27912SOL     OW77788   1.318   1.591   2.772  0.3290 -0.2537 -0.0669
27912SOL    HW177789   1.319   1.595   2.672  1.1371  0.9378 -0.0145
27912SOL    HW277790   1.296   1.498   2.800 -0.7893 -0.4100 -1.3446
27913SOL     OW77791   4.241   4.808   2.441  0.6835  0.0448 -1.0906
27913SOL    HW177792   4.234   4.740   2.514  0.2300  1.3291  0.0864
27913SOL    HW277793   4.308   4.878   2.467 -0.3662  1.1633 -1.3423
27914SOL     OW77794   2.852   8.128   5.563  0.3028 -0.0875 -0.1807
27914SOL    HW177795   2.837   8.034   5.533  0.5325  0.2265 -1.3227
27914SOL    HW277796   2.935   8.133   5.619  0.2044 -0.5915  0.0020
27915SOL     OW77797   0.894   9.534   3.431  0.4780 -0.4760 -0.0667
27915SOL    HW177798   0.954   9.607   3.464  0.5365 -0.3051 -0.5490
27915SOL    HW277799   0.918   9.511   3.337 -1.6038  1.0908 -1.0126
27917SOL     OW77800   5.115   0.126   2.778 -0.4124  0.2893 -0.0417
27917SOL    HW177801   5.067   0.211   2.761 -0.1206  0.7516  1.4142
27917SOL    HW277802   5.061   0.067   2.838 -0.2289 -0.1936 -0.3390
27918SOL     OW77803   2.058   5.272   3.789  0.0034  0.2816 -0.0474
27918SOL    HW177804   2.132   5.337   3.770  0.2499 -0.8070 -3.0585
27918SOL    HW277805   1.975   5.302   3.743  0.1206 -1.4765 -1.4769
27920SOL     OW77806   4.816   0.855   4.947  0.0072  0.1621  0.1177
27920SOL    HW177807   4.720   0.848   4.918  0.0511  0.7667 -0.1984
27920SOL    HW277808   4.874   0.860   4.866  0.2730  0.2085  0.3129
27921SOL     OW77809   4.065   9.946   5.823 -0.2323 -0.0587 -0.4137
27921SOL    HW177810   4.035  10.036   5.792  1.5616 -0.0766 -2.2766
27921SOL    HW277811   4.162   9.948   5.846 -0.0369 -1.6270 -0.9731
27923SOL     OW77812   6.212   8.732   5.283 -0.2383 -0.4442 -0.6759
27923SOL    HW177813   6.229   8.718   5.381  2.3163  2.3511 -0.6642
27923SOL    HW277814   6.245   8.652   5.232 -0.5062 -1.4031  0.6208
27924SOL     OW77815   3.010   2.041   5.869  0.3274 -0.5967  0.2576
27924SOL    HW177816   3.044   2.035   5.963  1.0432  1.9076  0.1712
27924SOL    HW277817   2.911   2.032   5.869  0.1844  0.9262  1.4123
27925SOL     OW77818   9.541   3.159   7.804  0.4697  0.4907 -0.5249
27925SOL    HW177819   9.634   3.192   7.821  0.5206  0.1483 -0.1261
27925SOL    HW277820   9.542   3.059   7.798  0.2495  0.5310 -1.2789
27926SOL     OW77821   5.260   8.728   7.752 -0.1120  0.0354 -0.7065
27926SOL    HW177822   5.205   8.664   7.806 -1.1315  1.1573 -0.3845
27926SOL    HW277823   5.200   8.790   7.702  0.8445  1.0239 -0.6612
27927SOL     OW77824   2.056   2.121   3.367 -0.3928 -0.2003  0.1660
27927SOL    HW177825   1.989   2.112   3.293 -0.6212 -2.1596  0.5888
27927SOL    HW277826   2.135   2.063   3.348  0.6573  1.1812  0.2657
27928SOL     OW77827   4.040   6.357   3.689  0.6724  0.1148  0.3462
27928SOL    HW177828   4.071   6.384   3.781  1.5068 -0.6467  0.2989
27928SOL    HW277829   3.942   6.370   3.682  0.6554  0.5194  1.2394
27929SOL     OW77830   1.099   2.049   4.801  0.2421 -0.0179 -0.5445
27929SOL    HW177831   1.060   2.134   4.766  1.8484  0.5138 -1.0747
27929SOL    HW277832   1.167   2.069   4.871  0.9177 -0.8370 -0.9509
27930SOL     OW77833   6.591   2.005   3.733 -0.1977  0.0152  0.0866
27930SOL    HW177834   6.535   1.924   3.718  1.4637 -1.1926  0.2087
27930SOL    HW277835   6.537   2.076   3.777 -1.4780 -1.3080  0.6830
27931SOL     OW77836   9.315   0.822   3.515  0.1857 -0.0975 -0.1961
27931SOL    HW177837   9.363   0.759   3.576 -1.4452 -0.6164  0.5716
27931SOL    HW277838   9.382   0.875   3.463  1.5848 -2.1855 -0.5883
27932SOL     OW77839   1.755   4.688   6.385 -0.1201  0.2363  0.1248
27932SOL    HW177840   1.837   4.676   6.441 -0.9616 -1.4591  1.0297
27932SOL    HW277841   1.740   4.785   6.368  1.3523  0.6332  1.0253
27933SOL     OW77842   9.940   6.114   4.953 -0.5626 -0.5829  0.1570
27933SOL    HW177843   9.973   6.114   5.048  1.2567  0.5709 -0.4499
27933SOL    HW277844   9.871   6.042   4.942 -1.2665 -0.3110  2.5073
27934SOL     OW77845   9.623   1.541   7.386 -0.2581  0.6953 -0.2505
27934SOL    HW177846   9.722   1.555   7.376 -0.2429  1.0147  0.3271
27934SOL    HW277847   9.598   1.453   7.347  1.0136 -1.5925  3.8291
27935SOL     OW77848   3.991   7.608   4.690  0.1149  0.2844  0.4020
27935SOL    HW177849   4.065   7.654   4.641 -0.9186  0.4540 -1.0445
27935SOL    HW277850   3.975   7.654   4.777  3.2722 -1.1906  1.8363
27937SOL     OW77851   8.595   2.586   0.510  0.4684 -0.7516 -0.0659
27937SOL    HW177852   8.581   2.515   0.579 -1.5688 -0.1088  0.2238
27937SOL    HW277853   8.534   2.664   0.530  1.4191  0.3391 -1.3609
27938SOL     OW77854   3.446   9.674   5.501  0.1065 -0.5617  0.6676
27938SOL    HW177855   3.529   9.725   5.477 -0.0301  1.0252  3.4099
27938SOL    HW277856   3.388   9.730   5.560 -2.3345 -2.1439 -0.1676
27939SOL     OW77857   3.419   2.699   5.108  0.0385  0.3722 -0.0811
27939SOL    HW177858   3.487   2.688   5.036  1.9668  3.0555  1.2534
27939SOL    HW277859   3.398   2.609   5.147  0.4098 -0.8673 -2.6328
27940SOL     OW77860   8.862   1.525   5.345 -0.6762 -0.2392  0.3773
27940SOL    HW177861   8.809   1.537   5.429  0.9927  0.6866  1.3346
27940SOL    HW277862   8.936   1.460   5.362  0.3506  0.8048 -0.0411
27941SOL     OW77863   6.854   2.449   4.081  0.4932  0.2818  0.1234
27941SOL    HW177864   6.905   2.511   4.140  1.6878  0.8599 -1.4690
27941SOL    HW277865   6.870   2.354   4.110 -0.0623  0.6285  1.5812
27942SOL     OW77866   1.992   3.989   4.385 -0.0830  0.0421  0.1033
27942SOL    HW177867   1.994   3.977   4.485  0.1752  2.4006  0.4194
27942SOL    HW277868   1.897   3.997   4.355 -0.1153  1.3694  0.4775
27943SOL     OW77869   5.927   3.364   1.475 -0.1691 -0.4441  0.6513
27943SOL    HW177870   6.002   3.416   1.516 -0.3001  0.3494 -0.0984
27943SOL    HW277871   5.870   3.325   1.547  1.1554 -1.3522  1.2270
27945SOL     OW77872   3.296   5.866   3.356  0.1468  0.3144 -0.0741
27945SOL    HW177873   3.385   5.831   3.324  0.6553  1.6548 -0.1350
27945SOL    HW277874   3.251   5.795   3.410  2.3822  0.5124  2.1457
27946SOL     OW77875   2.710   3.112   6.246 -0.2919 -0.4675  0.4123
27946SOL    HW177876   2.715   3.209   6.270 -1.7829 -0.1213 -0.6322
27946SOL    HW277877   2.754   3.058   6.318  0.7349  0.9824  0.9051
27947SOL     OW77878   8.869   8.825   2.132 -0.1916 -0.6127 -0.1362
27947SOL    HW177879   8.923   8.907   2.112 -0.5713 -0.0974  0.9346
27947SOL    HW277880   8.785   8.827   2.078 -0.2418 -0.2545 -0.0442
27950SOL     OW77881   7.605   3.669   2.813  0.1400  0.0613  0.4061
27950SOL    HW177882   7.511   3.703   2.824 -0.1594 -0.1446 -1.3986
27950SOL    HW277883   7.665   3.745   2.785  0.8126  0.4921  2.8804
27951SOL     OW77884   6.216   4.265   2.087 -0.5631 -0.1099 -0.2456
27951SOL    HW177885   6.250   4.251   1.994  0.0376 -1.6099  0.1934
27951SOL    HW277886   6.182   4.178   2.123  2.0795 -0.2291  2.0949
27952SOL     OW77887   0.832   9.562   2.770 -0.1437 -0.0340 -0.7427
27952SOL    HW177888   0.838   9.462   2.766  0.7088  0.0176 -0.8905
27952SOL    HW277889   0.899   9.602   2.707 -0.4381  0.6316 -0.6423
27953SOL     OW77890   6.255   1.963   5.506  0.7480 -0.0012  0.2184
27953SOL    HW177891   6.291   1.888   5.451  1.3657 -1.0716  2.0349
27953SOL    HW277892   6.265   2.049   5.456  0.3060 -1.0728 -1.7646
27954SOL     OW77893   9.845   9.822   0.447  0.5807 -0.0389 -0.0923
27954SOL    HW177894   9.865   9.727   0.423  0.0121 -0.0743 -0.4451
27954SOL    HW277895   9.886   9.882   0.379  1.2265 -0.0177  0.3182
27955SOL     OW77896   9.332   8.561   2.584  0.3783 -0.0838 -0.0369
27955SOL    HW177897   9.276   8.603   2.655  0.3748  1.1964 -0.7805
27955SOL    HW277898   9.420   8.607   2.579  0.2749  0.0269 -1.0464
27956SOL     OW77899   1.894   3.749   5.079  0.3841 -0.4045 -0.1736
27956SOL    HW177900   1.979   3.748   5.130  0.6911 -0.2294 -0.6759
27956SOL    HW277901   1.832   3.678   5.114  0.7694 -0.5888  0.1272
27957SOL     OW77902   8.509   6.955   6.441 -0.5501 -0.2986  0.3931
27957SOL    HW177903   8.602   6.991   6.454 -0.3950 -0.2901 -0.7199
27957SOL    HW277904   8.443   7.022   6.475 -0.1385 -0.4764  1.5539
27958SOL     OW77905   2.019   2.400   0.486 -0.5808 -0.4413  0.4645
27958SOL    HW177906   1.944   2.341   0.515 -1.0399 -0.2473 -0.3244
27958SOL    HW277907   2.043   2.380   0.391  0.9010 -1.0611  0.9482
27959SOL     OW77908   5.959   2.001   5.272 -0.2812  0.2076 -0.2035
27959SOL    HW177909   5.962   1.902   5.264  0.4807 -0.0476  2.5752
27959SOL    HW277910   5.936   2.026   5.367  1.1619  2.6658 -0.4563
27960SOL     OW77911   2.335   5.137   7.011  0.0147 -0.3182  0.2432
27960SOL    HW177912   2.386   5.159   6.928 -0.4894  0.0060  0.0207
27960SOL    HW277913   2.389   5.073   7.067  1.3974  1.3020  0.7931
27961SOL     OW77914   1.541   8.174   2.002 -0.0019 -0.5927 -0.2896
27961SOL    HW177915   1.572   8.091   2.049 -0.0659 -0.5268 -0.1327
27961SOL    HW277916   1.590   8.183   1.915  1.6378  0.3722  0.6920
27963SOL     OW77917   9.846   1.189   5.391  0.6047  0.1458  0.2412
27963SOL    HW177918   9.752   1.190   5.427  0.8792  0.3887  0.9640
27963SOL    HW277919   9.883   1.097   5.398  1.3108  0.5666  2.3339
27964SOL     OW77920   5.238   4.691   1.042 -0.8979  0.0359 -0.6223
27964SOL    HW177921   5.233   4.791   1.040 -1.2393  0.0421  0.2537
27964SOL    HW277922   5.328   4.662   1.075 -0.9177  0.0579 -0.5505
27965SOL     OW77923   3.133   9.124   4.085  0.0318 -0.0869 -0.2419
27965SOL    HW177924   3.153   9.064   4.162 -0.5446 -0.9497 -0.7526
27965SOL    HW277925   3.034   9.136   4.077  0.1525  1.2788  0.1044
27966SOL     OW77926   8.023   6.793   3.875  0.9672 -0.6003 -0.7295
27966SOL    HW177927   7.972   6.868   3.918  0.6874 -1.1400 -0.1090
27966SOL    HW277928   7.975   6.707   3.891  0.5073 -0.7393 -2.7020
27968SOL     OW77929   7.087   0.137   4.510 -0.0223  0.3432  0.2243
27968SOL    HW177930   7.130   0.180   4.589 -0.7653  0.4135  0.5933
27968SOL    HW277931   7.111   0.040   4.507 -0.3137  0.2543  0.7639
27969SOL     OW77932   8.693   5.075   7.456 -0.4919  0.0699 -0.0913
27969SOL    HW177933   8.631   5.141   7.499 -0.9480  0.6953 -1.6737
27969SOL    HW277934   8.675   4.984   7.493 -0.6550  0.6439  1.2720
27970SOL     OW77935   1.151   2.352   5.156  0.3044 -0.0689 -0.1461
27970SOL    HW177936   1.136   2.448   5.178  0.5216  0.1200 -0.8105
27970SOL    HW277937   1.177   2.302   5.239  4.1243  1.2305 -0.4302
27971SOL     OW77938   3.725   0.824   7.636 -0.0332  0.0105  0.1101
27971SOL    HW177939   3.691   0.790   7.548 -0.8357 -0.7403  0.6920
27971SOL    HW277940   3.653   0.816   7.704  1.2764 -1.4836  1.3546
27972SOL     OW77941   2.536   7.388   0.970 -0.5466 -0.0530  0.0826
27972SOL    HW177942   2.613   7.441   1.006 -1.0493  0.7817 -0.0661
27972SOL    HW277943   2.459   7.393   1.034 -0.1337 -1.7384  0.7303
27973SOL     OW77944   0.184   0.697   6.764 -0.8353  0.3917  0.1764
27973SOL    HW177945   0.129   0.625   6.721  0.7364 -0.9311  0.3231
27973SOL    HW277946   0.218   0.759   6.694 -0.7428 -0.0241 -0.1466
27974SOL     OW77947   6.638   4.793   2.596  0.4098 -0.6449  0.6942
27974SOL    HW177948   6.673   4.739   2.519  2.0613  0.2849  0.7640
27974SOL    HW277949   6.653   4.744   2.681 -2.0991 -2.0126  0.3936
27975SOL     OW77950   6.838   5.819   1.727  0.5559  0.1260  0.3219
27975SOL    HW177951   6.815   5.725   1.754 -2.3807  0.2447 -1.5474
27975SOL    HW277952   6.781   5.846   1.650  2.7966  2.7723 -0.4865
27977SOL     OW77953   8.580   2.862   2.548 -0.5574  0.2232 -0.0993
27977SOL    HW177954   8.527   2.864   2.463 -1.3630  0.8005  0.4165
27977SOL    HW277955   8.581   2.769   2.584  0.4330 -0.1902 -1.1346
27979SOL     OW77956   5.915   5.577   2.295 -0.6534  0.2290  0.1831
27979SOL    HW177957   5.818   5.558   2.279 -0.8756  1.0809  0.5048
27979SOL    HW277958   5.968   5.493   2.280 -1.3118  0.0192 -1.0605
27980SOL     OW77959   1.688   1.477   5.979 -0.5097  0.3981 -0.4811
27980SOL    HW177960   1.609   1.452   6.035  0.4376 -0.3237  0.5536
27980SOL    HW277961   1.694   1.576   5.972 -0.5994  0.4992  0.7695
27981SOL     OW77962   9.278   2.787   4.210 -0.1374 -0.5783 -0.2061
27981SOL    HW177963   9.319   2.870   4.172  0.0565  1.3712  3.9591
27981SOL    HW277964   9.178   2.797   4.211 -0.1529 -0.7141 -0.3340
27982SOL     OW77965   8.682   0.842   4.060 -0.3023 -0.4139 -0.1405
27982SOL    HW177966   8.754   0.792   4.012 -0.5418  0.4021 -1.3663
27982SOL    HW277967   8.720   0.925   4.101  0.0663 -1.5043  1.7659
27983SOL     OW77968   1.846   3.826   5.772 -0.0721  0.2708  0.3903
27983SOL    HW177969   1.946   3.825   5.774 -0.0696  0.8092  1.5814
27983SOL    HW277970   1.815   3.907   5.722  0.0893 -0.1504 -0.3877
27984SOL     OW77971   3.261   3.911   1.893 -0.2156  0.4802 -0.1233
27984SOL    HW177972   3.205   3.987   1.924  0.2005  1.6327 -2.1414
27984SOL    HW277973   3.353   3.943   1.871  0.7078 -1.0529  1.3270
27985SOL     OW77974   9.770   2.194   7.453  0.2440 -0.1092 -0.2115
27985SOL    HW177975   9.735   2.185   7.359 -1.3542 -0.0712  0.3665
27985SOL    HW277976   9.869   2.181   7.453  0.1940 -0.5877 -1.8401
27986SOL     OW77977   9.852   8.013   7.379 -0.0123 -0.0775  0.1581
27986SOL    HW177978   9.820   7.947   7.447 -1.8511 -0.1221 -0.7097
27986SOL    HW277979   9.822   7.984   7.288 -1.9683  2.5921 -0.1070
27987SOL     OW77980   4.797   0.059   7.568  0.1764 -0.4181  0.3835
27987SOL    HW177981   4.863  -0.009   7.536 -0.1846 -0.8005  0.4477
27987SOL    HW277982   4.719   0.060   7.506  0.7275  0.7995 -0.3134
27988SOL     OW77983   1.735   2.250   6.357  0.7467 -0.1006  0.0032
27988SOL    HW177984   1.725   2.159   6.318  1.9625 -0.9892  1.6975
27988SOL    HW277985   1.807   2.300   6.308  0.5995 -0.3314 -0.4432
27989SOL     OW77986   9.917   5.916   0.096  0.1039 -0.2088  0.0715
27989SOL    HW177987   9.823   5.893   0.068  0.5715 -2.1525 -0.0056
27989SOL    HW277988   9.927   6.015   0.102 -1.6063  0.0581 -1.1242
27990SOL     OW77989   1.055   5.472   1.427  0.0390 -0.0947  0.2333
27990SOL    HW177990   0.973   5.432   1.385 -0.1036  0.0934  0.3342
27990SOL    HW277991   1.126   5.402   1.434  0.2412 -0.0051 -0.7890
27992SOL     OW77992   6.452   1.877   4.027  0.1953  0.1469  0.7553
27992SOL    HW177993   6.434   1.920   4.115 -0.1510  0.4172  0.5514
27992SOL    HW277994   6.393   1.917   3.957 -2.0401 -2.4407  1.0401
27993SOL     OW77995   2.717   4.546   2.344 -0.3847  0.0767 -0.0680
27993SOL    HW177996   2.664   4.617   2.389 -0.1439  0.4389 -0.3564
27993SOL    HW277997   2.765   4.585   2.265 -1.2224 -0.6606 -0.9572
27994SOL     OW77998   1.291   7.301   4.991  0.6555  0.0923 -0.1072
27994SOL    HW177999   1.347   7.314   5.073 -0.9820  1.3740  0.8431
27994SOL    HW278000   1.214   7.365   4.993 -1.6847 -2.6096 -0.6320
27995SOL     OW78001   4.910   0.385   1.984  0.6051  0.0630 -0.0552
27995SOL    HW178002   4.881   0.304   1.932  1.1892  0.1773 -0.5658
27995SOL    HW278003   4.862   0.466   1.948  1.8397  0.3138 -1.1656
27996SOL     OW78004   9.695   0.132   6.387  0.5387  0.2741  0.3059
27996SOL    HW178005   9.597   0.117   6.402  0.6185 -1.2959 -0.5761
27996SOL    HW278006   9.710   0.153   6.291  1.1781 -0.4815  0.2433
27997SOL     OW78007   6.646   1.231   6.514 -0.0859 -0.3258 -0.0693
27997SOL    HW178008   6.599   1.207   6.598  0.6629  0.9154  0.7259
27997SOL    HW278009   6.580   1.263   6.446 -0.2840  3.2967  1.6955
28000SOL     OW78010   3.348   8.197   3.465  0.7207 -0.0128 -0.0990
28000SOL    HW178011   3.265   8.184   3.411  0.7894  1.5297 -0.5883
28000SOL    HW278012   3.323   8.207   3.562  0.4172 -0.4532 -0.1279
28001SOL     OW78013   3.280   1.619   2.656 -0.5199 -0.2975  0.3413
28001SOL    HW178014   3.302   1.715   2.673 -1.1107  0.2649 -1.8806
28001SOL    HW278015   3.181   1.606   2.663 -0.3126 -1.0709  2.0834
28002SOL     OW78016   3.712   8.105   2.855  1.0109  0.1663 -1.0308
28002SOL    HW178017   3.758   8.174   2.910  2.7215 -0.5937 -1.4640
28002SOL    HW278018   3.616   8.130   2.844  1.0010  1.1457  0.9470
28003SOL     OW78019   2.743   3.156   5.981  0.1353  0.6531  0.5567
28003SOL    HW178020   2.734   3.101   6.064  0.4621 -1.2539 -0.6466
28003SOL    HW278021   2.742   3.253   6.006  0.0726  0.1234  2.7664
28004SOL     OW78022   0.694   2.309   4.396  0.3827 -0.8047 -0.3918
28004SOL    HW178023   0.683   2.254   4.479  0.7965 -0.1862  0.0759
28004SOL    HW278024   0.672   2.404   4.415 -1.5309 -0.9974 -1.5096
28005SOL     OW78025   1.744   9.284   3.058  0.9105 -0.4146 -0.4063
28005SOL    HW178026   1.658   9.232   3.062  0.3582  0.3668 -1.7227
28005SOL    HW278027   1.753   9.339   3.141 -1.8075  2.4415 -1.8619
28006SOL     OW78028   3.906   8.754   3.480  0.1248 -0.5285  0.1982
28006SOL    HW178029   3.948   8.816   3.546  0.2224 -0.0064 -0.3465
28006SOL    HW278030   3.970   8.681   3.458  0.8799  0.4358 -0.8604
28007SOL     OW78031   8.855   0.696   3.954 -0.3426  0.1747  0.9653
28007SOL    HW178032   8.952   0.695   3.930  0.4210 -1.0463  3.8718
28007SOL    HW278033   8.822   0.602   3.965 -1.4235  0.6166  1.5597
28008SOL     OW78034   8.361   4.598   5.781  0.1049  0.5650 -0.3127
28008SOL    HW178035   8.365   4.662   5.704 -0.6903  1.8876  0.7090
28008SOL    HW278036   8.266   4.575   5.801  0.3131  0.1288  0.1922
28011SOL     OW78037   7.736   7.192   3.335  0.1400 -0.8923 -0.3061
28011SOL    HW178038   7.785   7.221   3.416  0.0262 -0.7291 -0.2948
28011SOL    HW278039   7.662   7.130   3.361  0.1499 -0.8994 -0.2933
28012SOL     OW78040   9.436   9.204   4.008  0.0174 -0.7509 -0.4095
28012SOL    HW178041   9.390   9.117   4.023 -2.1044  0.1192 -1.5743
28012SOL    HW278042   9.393   9.251   3.930  1.2527  1.2248  0.0691
28013SOL     OW78043   8.781   2.004   7.463  0.4046  0.0544  0.1995
28013SOL    HW178044   8.876   2.011   7.432  0.3308 -1.5802 -0.4433
28013SOL    HW278045   8.749   2.094   7.493  3.5652 -0.0627  4.5182
28014SOL     OW78046   2.621   7.101   1.176  0.1521  0.2252  0.2289
28014SOL    HW178047   2.689   7.035   1.208  0.9924  0.5995 -0.7436
28014SOL    HW278048   2.632   7.188   1.225  0.7493  0.4595 -0.3046
28015SOL     OW78049   5.967   0.162   7.207  1.1898 -0.4251  0.1817
28015SOL    HW178050   6.030   0.087   7.189  1.4491 -0.7245  2.1776
28015SOL    HW278051   5.873   0.127   7.211  1.2704 -0.5941  0.7070
28016SOL     OW78052   9.934   2.439   6.019  0.0914 -0.0752  0.6968
28016SOL    HW178053   9.876   2.503   5.968 -0.3837 -1.1018 -0.0857
28016SOL    HW278054   9.986   2.383   5.954  0.4933 -0.4822  1.3681
28017SOL     OW78055   1.122   9.871   7.186  0.6113 -0.3525  0.3591
28017SOL    HW178056   1.055   9.941   7.213  0.3500 -0.9625  1.3154
28017SOL    HW278057   1.198   9.872   7.251  0.7894 -0.7040  0.1560
28018SOL     OW78058   0.909   6.453   5.775  0.5700 -0.1020  0.3645
28018SOL    HW178059   0.991   6.401   5.748  0.8823 -0.4431  1.9537
28018SOL    HW278060   0.855   6.473   5.693  2.7711  1.0712 -0.8630
28019SOL     OW78061   4.692   4.426   1.965 -1.0066  0.1007  0.3305
28019SOL    HW178062   4.669   4.508   2.017  0.7276 -0.0134  1.3334
28019SOL    HW278063   4.754   4.369   2.019 -0.7365 -0.9866 -1.0896
28020SOL     OW78064   2.357   6.985   1.978 -0.1820  0.3301 -0.1691
28020SOL    HW178065   2.351   6.989   1.878 -4.4331 -2.4430 -0.1450
28020SOL    HW278066   2.340   7.077   2.015  1.3249  1.3705 -1.9326
28021SOL     OW78067   7.649   3.843   7.498  0.2534 -0.4422 -0.0790
28021SOL    HW178068   7.627   3.933   7.461  0.2657  0.0342  1.0513
28021SOL    HW278069   7.602   3.772   7.445 -0.1789  0.2582 -0.6373
28023SOL     OW78070   2.280   1.756   5.016  0.2414 -0.2347 -0.4480
28023SOL    HW178071   2.212   1.685   5.032 -1.0125  1.1588  0.5747
28023SOL    HW278072   2.300   1.763   4.919 -0.0209 -1.6044 -0.6050
28024SOL     OW78073   7.443   5.078   7.781 -0.0991  0.2734  0.2937
28024SOL    HW178074   7.483   4.994   7.743  1.5517  1.0434  0.2849
28024SOL    HW278075   7.493   5.157   7.746  0.0405  1.1231  2.3560
28025SOL     OW78076   0.011   8.695   6.464  0.0339 -0.4383  0.2138
28025SOL    HW178077   0.029   8.777   6.518 -2.3885 -0.5589  1.2412
28025SOL    HW278078   0.098   8.655   6.436  1.2672  2.0379  0.3332
28026SOL     OW78079   2.367   6.376   2.135  0.1630  0.3970  0.1633
28026SOL    HW178080   2.361   6.408   2.040 -1.2761  1.0112  0.4522
28026SOL    HW278081   2.310   6.434   2.193 -1.1647 -1.6928  0.9619
28027SOL     OW78082   3.433   2.297   7.292  0.1458 -1.1259 -0.3661
28027SOL    HW178083   3.457   2.359   7.366 -0.6761 -1.4079  0.1475
28027SOL    HW278084   3.516   2.254   7.255  0.5299 -1.1964  0.5822
28028SOL     OW78085   4.821   6.965   0.833  0.1259 -0.5593 -0.2274
28028SOL    HW178086   4.919   6.972   0.812  0.2810 -0.5258  0.5067
28028SOL    HW278087   4.777   7.053   0.813  0.4471 -0.2350  0.4918
28030SOL     OW78088   2.185   8.673   2.962 -0.1427  0.1500  0.2309
28030SOL    HW178089   2.269   8.650   2.913  0.4617  1.3134  0.7004
28030SOL    HW278090   2.124   8.594   2.962  1.7435 -1.3560  1.5328
28031SOL     OW78091   9.396   9.600   1.183 -0.8621 -0.5669  0.0962
28031SOL    HW178092   9.425   9.510   1.151 -3.0661 -0.9888 -0.8619
28031SOL    HW278093   9.317   9.630   1.130  0.2565  2.2614 -0.0562
28032SOL     OW78094   0.838   5.777   0.911  0.3651  0.1017  0.0504
28032SOL    HW178095   0.849   5.750   0.815 -1.3024  0.6268 -0.2919
28032SOL    HW278096   0.757   5.834   0.921  2.1789  2.5398  1.2893
28033SOL     OW78097   7.290   4.542   1.368 -0.6013  0.1008  0.0010
28033SOL    HW178098   7.374   4.597   1.372 -0.3612  0.0053 -3.0555
28033SOL    HW278099   7.300   4.462   1.428  0.8910  0.9029  0.8404
28034SOL     OW78100   0.156   9.582   2.627  0.0320  0.1067  0.2525
28034SOL    HW178101   0.206   9.658   2.669 -0.8303  1.0741 -0.4728
28034SOL    HW278102   0.221   9.522   2.579  0.4716  1.5050 -0.9199
28035SOL     OW78103   2.162   2.210   7.831  0.0627  0.1440 -0.4907
28035SOL    HW178104   2.168   2.308   7.849 -0.8745  0.0764  0.2742
28035SOL    HW278105   2.126   2.163   7.913 -0.1518 -0.7402 -1.0789
28036SOL     OW78106   7.435   1.052   7.174 -0.0277 -0.2728  0.4217
28036SOL    HW178107   7.416   1.136   7.223  3.6793  1.7110 -1.3193
28036SOL    HW278108   7.401   1.059   7.080 -0.5801 -1.1303  0.5506
28037SOL     OW78109   2.116   5.793   2.207 -0.0769 -0.3611 -0.6272
28037SOL    HW178110   2.150   5.863   2.144  1.3077 -0.7897 -0.3782
28037SOL    HW278111   2.181   5.781   2.282 -1.2347 -0.5520  0.3741
28039SOL     OW78112   3.019   3.757   6.649 -0.2515  0.1033 -0.1857
28039SOL    HW178113   2.938   3.811   6.626 -0.1709  0.4577  0.3423
28039SOL    HW278114   3.037   3.690   6.577 -1.2470 -0.2469 -0.1136
28040SOL     OW78115   7.002   9.990   7.338 -0.2432 -0.2281  0.1072
28040SOL    HW178116   7.067   9.918   7.363 -0.0886 -0.3675 -0.7053
28040SOL    HW278117   7.050  10.077   7.332 -0.1990 -0.2670 -0.1166
28041SOL     OW78118   3.686   0.780   3.227  0.3261  1.2765 -0.3962
28041SOL    HW178119   3.624   0.855   3.202 -0.3418  0.5053 -1.0394
28041SOL    HW278120   3.682   0.708   3.159 -1.7024 -0.9779  1.9864
28043SOL     OW78121   1.441   1.696   6.116  0.2893  0.0502  0.3847
28043SOL    HW178122   1.394   1.618   6.158  0.7188 -0.1016  0.5894
28043SOL    HW278123   1.429   1.692   6.017 -0.6113  0.3315  0.4774
28044SOL     OW78124   0.468   0.122   7.039 -0.1688 -0.3968  0.0198
28044SOL    HW178125   0.369   0.109   7.046 -0.4913  2.0325  0.3072
28044SOL    HW278126   0.506   0.139   7.129  0.4160 -0.6422 -0.1784
28045SOL     OW78127   9.049   4.780   4.727 -0.0684 -0.2347 -0.2166
28045SOL    HW178128   9.039   4.683   4.706 -0.0645  0.1052 -1.8732
28045SOL    HW278129   8.993   4.834   4.663  0.1750  0.8683  0.4831
28046SOL     OW78130   3.947   3.012   0.057  0.0385  0.7441  0.3750
28046SOL    HW178131   3.977   3.101   0.022 -0.3986  0.2323 -1.3354
28046SOL    HW278132   3.852   2.997   0.032 -0.6957  0.8911  2.8861
28047SOL     OW78133   3.011   2.972   0.748 -0.5468  0.4713  0.3868
28047SOL    HW178134   2.980   2.901   0.811 -1.0177 -1.2011 -1.6840
28047SOL    HW278135   3.103   2.951   0.717 -0.2870  1.3317  0.5597
28048SOL     OW78136   3.216   7.826   3.870 -0.5531  0.1227  0.1589
28048SOL    HW178137   3.177   7.856   3.782  1.0217  0.0799 -0.5640
28048SOL    HW278138   3.307   7.865   3.881  0.0542 -1.4770  0.8815
28049SOL     OW78139   3.259   1.313   1.211 -0.1458 -0.6263  0.1602
28049SOL    HW178140   3.195   1.307   1.287 -0.6100 -2.0749 -0.3345
28049SOL    HW278141   3.212   1.348   1.130 -0.4469 -2.1786 -0.3428
28050SOL     OW78142   1.769   8.051   3.373 -0.5302 -0.2129 -1.1247
28050SOL    HW178143   1.766   7.969   3.430 -1.3662 -1.2661 -2.6410
28050SOL    HW278144   1.729   8.128   3.423 -1.4670 -1.1758 -0.3688
28051SOL     OW78145   2.771   4.282   3.367 -0.0567 -0.3086 -0.0661
28051SOL    HW178146   2.737   4.357   3.423 -0.6039 -2.2746  2.3659
28051SOL    HW278147   2.751   4.300   3.270 -0.8712  2.2631  0.5445
28052SOL     OW78148   7.666   3.440   4.418  0.2456 -0.3085 -0.5102
28052SOL    HW178149   7.756   3.475   4.392  0.8238 -0.5614  1.0909
28052SOL    HW278150   7.646   3.468   4.512 -2.0666  1.1547 -1.3985
28053SOL     OW78151   6.011   1.028   2.369 -0.3699  0.1306  0.1072
28053SOL    HW178152   6.000   1.080   2.284  3.0389 -1.1541 -1.2539
28053SOL    HW278153   6.078   1.075   2.427 -0.3305 -0.6159  0.6604
28054SOL     OW78154   2.463   9.820   5.437 -0.5426  0.5142  0.5855
28054SOL    HW178155   2.442   9.722   5.435  0.7302  0.2450  0.0347
28054SOL    HW278156   2.378   9.872   5.437 -1.2542 -0.6013  1.7693
28055SOL     OW78157   1.809   1.981   7.182 -0.4032 -0.0147  0.3270
28055SOL    HW178158   1.876   1.913   7.213 -0.6857  0.1092  1.2342
28055SOL    HW278159   1.857   2.065   7.156 -0.1638 -0.0981  0.4923
28057SOL     OW78160   7.299   9.682   1.279  0.1357  0.5437 -0.4951
28057SOL    HW178161   7.252   9.632   1.207 -0.3796  1.2832 -0.6760
28057SOL    HW278162   7.294   9.780   1.261 -0.8170  0.7961  1.0247
28058SOL     OW78163   9.389   8.197   0.143 -0.3717  0.1783 -0.2756
28058SOL    HW178164   9.376   8.199   0.044  3.2781  0.9202 -0.8347
28058SOL    HW278165   9.358   8.109   0.180  0.0347 -0.8707 -2.3773
28059SOL     OW78166   2.465   5.169   4.179 -0.0491  0.1768  0.0279
28059SOL    HW178167   2.505   5.120   4.102 -1.3144  0.8434 -1.0748
28059SOL    HW278168   2.500   5.263   4.180  0.6906 -0.1003  0.8348
28060SOL     OW78169   3.376   3.473   6.515  0.9464  0.8147 -0.4757
28060SOL    HW178170   3.383   3.503   6.420  0.0312 -0.2333 -0.8763
28060SOL    HW278171   3.328   3.543   6.568 -0.5437  0.4212 -1.2629
28061SOL     OW78172   1.932   8.962   1.233  0.4314 -0.2948 -0.0584
28061SOL    HW178173   1.979   8.891   1.181  0.9166  0.7275 -1.0295
28061SOL    HW278174   1.948   8.947   1.331 -0.0784 -1.9328 -0.2063
28063SOL     OW78175   7.996   7.319   5.952  0.5302 -0.2562  0.6567
28063SOL    HW178176   7.989   7.252   5.879 -1.5305 -0.2310  0.8201
28063SOL    HW278177   8.058   7.392   5.924 -0.0025 -0.4038 -0.9484
28064SOL     OW78178   3.578   3.593   1.575  0.0228  0.2026  0.0791
28064SOL    HW178179   3.674   3.595   1.550 -0.1114 -0.5198 -0.5013
28064SOL    HW278180   3.568   3.626   1.669  0.7518  0.9210 -0.0875
28066SOL     OW78181   2.234   7.358   5.588 -0.4643 -0.2853  0.1889
28066SOL    HW178182   2.278   7.368   5.677  0.0070 -0.6793  0.0048
28066SOL    HW278183   2.231   7.446   5.541  2.2271 -0.6501 -0.7705
28067SOL     OW78184   1.704   5.905   7.023 -0.0774  0.4766  0.1429
28067SOL    HW178185   1.611   5.869   7.024 -0.5551  1.6872  0.3157
28067SOL    HW278186   1.768   5.831   7.001 -1.2762  0.1136 -2.3021
28068SOL     OW78187   8.879   7.936   3.797  0.2813  0.2965 -0.9110
28068SOL    HW178188   8.794   7.888   3.779  0.0876 -0.2624  1.3429
28068SOL    HW278189   8.951   7.870   3.818  0.7378  0.8465 -0.7296
28070SOL     OW78190   4.824   4.814   1.822  0.1875 -0.6575  0.2170
28070SOL    HW178191   4.730   4.781   1.829 -0.1717  0.0101 -1.3026
28070SOL    HW278192   4.878   4.751   1.767 -0.1033  0.4433 -1.3496
28071SOL     OW78193   8.982   9.013   2.628 -0.1429  0.4525 -0.5141
28071SOL    HW178194   8.974   9.054   2.719  0.0372 -0.6665  0.0216
28071SOL    HW278195   8.906   9.043   2.571  0.4731  2.2315 -0.4301
28074SOL     OW78196   8.677   8.716   3.259  0.0154  0.2432 -0.7040
28074SOL    HW178197   8.578   8.710   3.250  0.0428 -0.8946 -0.3380
28074SOL    HW278198   8.703   8.808   3.290 -1.1024 -0.2208  1.7037
28075SOL     OW78199   7.819   9.910   2.444  0.0559  0.1922 -0.3294
28075SOL    HW178200   7.824   9.811   2.456 -0.4939  0.2594  0.5058
28075SOL    HW278201   7.743   9.946   2.499  0.3699  1.0944 -0.4819
28076SOL     OW78202   1.296   0.628   7.606 -0.1436  0.3136  0.0510
28076SOL    HW178203   1.299   0.676   7.694 -0.3816  0.1434  0.1505
28076SOL    HW278204   1.328   0.690   7.534  1.6882 -0.0669  0.4967
28077SOL     OW78205   2.415   1.757   3.234 -0.6633 -0.2987  0.2100
28077SOL    HW178206   2.356   1.691   3.188 -1.4326 -0.1069  0.8891
28077SOL    HW278207   2.500   1.713   3.262  0.1882 -0.2044 -2.1252
28078SOL     OW78208   1.927   0.142   3.870  0.1301 -0.4314 -0.0112
28078SOL    HW178209   1.838   0.185   3.887 -0.8553 -1.5305 -2.2134
28078SOL    HW278210   1.933   0.057   3.921 -0.3275 -0.6409 -0.2988
28079SOL     OW78211   6.113   7.352   3.133 -0.4255  0.2876  0.2625
28079SOL    HW178212   6.213   7.356   3.124 -0.4854  1.7780  0.1756
28079SOL    HW278213   6.071   7.406   3.060 -1.2451  1.5226  1.6330
28082SOL     OW78214   9.408   2.376   4.075  0.3794 -0.1293  0.1580
28082SOL    HW178215   9.403   2.457   4.016 -0.7263 -0.5408 -0.3092
28082SOL    HW278216   9.379   2.295   4.025 -2.1117 -0.2506  1.7157
28083SOL     OW78217   9.403   6.544   3.508 -0.2959 -0.2941 -0.1616
28083SOL    HW178218   9.447   6.471   3.560  0.3757  0.5339  0.4518
28083SOL    HW278219   9.470   6.586   3.446 -0.4401  0.3863  0.1363
28085SOL     OW78220   2.831   1.689   3.873  0.0083 -0.2830 -0.6513
28085SOL    HW178221   2.922   1.710   3.910  0.8304 -3.6299 -0.6502
28085SOL    HW278222   2.764   1.687   3.947  0.2045  0.7085 -0.4433
28086SOL     OW78223   9.113   6.042   0.396  0.2984 -0.1411  0.3471
28086SOL    HW178224   9.198   6.078   0.434 -0.9707  1.3241  1.8373
28086SOL    HW278225   9.101   5.947   0.425  2.0362 -0.7658 -0.9158
28087SOL     OW78226   3.473   4.808   0.076  0.4344  0.1010  0.0760
28087SOL    HW178227   3.417   4.828   0.156 -1.3302 -0.2499 -1.0340
28087SOL    HW278228   3.563   4.851   0.086  1.1576 -1.9715  3.3502
28088SOL     OW78229   4.175   6.755   3.303 -0.1231  0.3516  0.3155
28088SOL    HW178230   4.128   6.682   3.351 -0.1984  0.5904  0.6090
28088SOL    HW278231   4.250   6.718   3.249 -0.0321  0.0850  0.6286
28089SOL     OW78232   1.902   5.277   0.686 -0.4266 -0.3395 -0.6708
28089SOL    HW178233   1.807   5.305   0.698 -0.5820 -0.6146 -1.2133
28089SOL    HW278234   1.910   5.178   0.703 -0.2936 -0.3679 -0.8987
28090SOL     OW78235   2.977   0.529   1.752 -0.0081 -0.0899 -0.5054
28090SOL    HW178236   3.057   0.589   1.745 -0.7740  1.2975  2.1459
28090SOL    HW278237   2.990   0.464   1.826 -2.0904  1.3823  1.2032
28091SOL     OW78238   8.737   9.170   7.808 -0.6185 -0.3201  0.2403
28091SOL    HW178239   8.672   9.110   7.762  0.7348 -0.8423 -1.0577
28091SOL    HW278240   8.742   9.147   7.905 -1.5856 -0.9685  0.1428
28093SOL     OW78241   3.606   0.627   5.681  0.9638  0.1519  0.1722
28093SOL    HW178242   3.690   0.578   5.659  1.3130  0.2176  1.3007
28093SOL    HW278243   3.611   0.720   5.647  0.2929 -0.5845 -1.9938
28095SOL     OW78244   0.339   8.962   5.243 -0.6796 -1.0071  0.6554
28095SOL    HW178245   0.265   8.929   5.184  1.8430  0.5792 -3.6016
28095SOL    HW278246   0.405   8.888   5.257 -0.0372 -0.7083 -0.6602
28097SOL     OW78247   8.654   9.648   3.248 -0.0952  0.0861 -0.2268
28097SOL    HW178248   8.733   9.660   3.309  0.2736 -1.7532 -0.3011
28097SOL    HW278249   8.572   9.681   3.294  0.3143 -0.5061  0.9688
28098SOL     OW78250   2.743   5.756   7.138  0.6290  0.2104  0.2394
28098SOL    HW178251   2.792   5.685   7.088  0.7215  0.1153  0.4644
28098SOL    HW278252   2.651   5.724   7.160  0.7883  0.0215  0.6475
28099SOL     OW78253   9.489   3.927   3.954  0.4622  0.0449  0.0078
28099SOL    HW178254   9.445   3.940   4.043 -0.2545  0.0650 -0.3393
28099SOL    HW278255   9.485   3.831   3.928 -0.8538  0.2912 -0.7624
28100SOL     OW78256   7.718   4.222   1.733  0.2508 -0.8689 -0.4540
28100SOL    HW178257   7.806   4.263   1.754  0.8414 -1.9895 -0.7021
28100SOL    HW278258   7.647   4.262   1.791  1.1734 -1.0253  0.7920
28101SOL     OW78259   7.007   5.486   7.074  0.5439  0.5768 -0.4232
28101SOL    HW178260   7.103   5.508   7.089 -0.1301  1.5826  2.8316
28101SOL    HW278261   6.995   5.387   7.078  1.0295  0.5803  2.3500
28102SOL     OW78262   7.300   7.004   7.702 -0.4055  0.5078  0.1367
28102SOL    HW178263   7.241   7.083   7.684 -1.6439 -0.5878 -0.7271
28102SOL    HW278264   7.314   6.994   7.800 -1.6594  0.8030  0.3508
28104SOL     OW78265   9.658   7.318   6.707  0.8555  0.2589  0.1866
28104SOL    HW178266   9.610   7.342   6.623  0.2538 -0.1558  0.4095
28104SOL    HW278267   9.660   7.219   6.717  1.3760  0.2889  0.4005
28106SOL     OW78268   7.860   7.129   7.513 -0.2531  0.3207 -0.1644
28106SOL    HW178269   7.943   7.104   7.562  0.4757  1.5588 -0.7363
28106SOL    HW278270   7.864   7.094   7.419  0.4353  1.8803 -0.7381
28107SOL     OW78271   3.872   9.980   0.703 -0.0465  0.2383 -0.3047
28107SOL    HW178272   3.776   9.976   0.672  0.1349  1.3718 -1.0464
28107SOL    HW278273   3.921  10.049   0.650  1.5119 -1.2217 -0.8002
28108SOL     OW78274   2.410   5.603   1.458  0.3723  0.1438 -0.5825
28108SOL    HW178275   2.379   5.671   1.525 -2.2098 -0.4783 -1.0959
28108SOL    HW278276   2.463   5.532   1.505 -0.4364  0.3287  0.6514
28110SOL     OW78277   2.876   6.040   0.171  0.4369  0.1614  0.2214
28110SOL    HW178278   2.946   6.088   0.118  0.5188 -0.9782 -0.7266
28110SOL    HW278279   2.790   6.040   0.121 -0.0637  0.9190  1.0586
28111SOL     OW78280   1.488   3.052   5.562 -0.3123  0.0694 -0.9278
28111SOL    HW178281   1.579   3.086   5.586  0.1478 -1.0119 -1.1491
28111SOL    HW278282   1.420   3.118   5.593  0.4921  0.4831 -0.0057
28112SOL     OW78283   6.554   1.685   2.277 -0.4544 -0.2610  0.1607
28112SOL    HW178284   6.606   1.755   2.228 -1.3038 -0.8426 -1.6121
28112SOL    HW278285   6.617   1.626   2.327  0.4355  0.3740 -0.1949
28113SOL     OW78286   8.842   0.355   4.033  0.1726 -0.4932 -0.4459
28113SOL    HW178287   8.772   0.309   3.978 -1.1064  0.8989 -0.0076
28113SOL    HW278288   8.823   0.340   4.130  0.9554 -0.7778 -0.3321
28114SOL     OW78289   7.904   3.585   4.356 -0.1661  0.1370 -0.2630
28114SOL    HW178290   7.930   3.493   4.329  0.9647  0.7319 -1.2683
28114SOL    HW278291   7.946   3.651   4.294 -1.0727  1.3246  0.3617
28115SOL     OW78292   8.577   1.344   2.618  0.4800 -0.3243 -0.6370
28115SOL    HW178293   8.508   1.414   2.635 -0.9707 -1.7016 -0.7988
28115SOL    HW278294   8.667   1.379   2.644 -0.2930  1.4221 -0.2749
28116SOL     OW78295   4.118   0.747   1.561 -0.8387 -0.3265  0.3396
28116SOL    HW178296   4.179   0.825   1.545 -0.7674 -0.6961 -1.2559
28116SOL    HW278297   4.148   0.699   1.643 -0.4847  0.9412  0.9674
28117SOL     OW78298   4.961   9.754   7.214 -0.7287  0.0265 -0.2629
28117SOL    HW178299   5.059   9.744   7.227 -0.6590 -0.7369 -1.4010
28117SOL    HW278300   4.919   9.777   7.302  0.0792 -2.6623  0.8824
28118SOL     OW78301   4.311   4.688   1.210  0.4275 -0.0338  0.1518
28118SOL    HW178302   4.378   4.761   1.220 -2.3326  2.7747 -0.8865
28118SOL    HW278303   4.257   4.681   1.293  0.2644 -0.4485  0.0122
28121SOL     OW78304   4.940   1.065   1.065  0.0802  0.5193 -0.5175
28121SOL    HW178305   4.938   1.125   1.145 -1.6245  0.3711 -0.4314
28121SOL    HW278306   4.861   1.085   1.007  0.3938 -0.5355 -1.3169
28122SOL     OW78307   7.349   4.036   3.330 -0.0557 -0.1713  0.7584
28122SOL    HW178308   7.339   4.025   3.429  0.2963 -0.7316  0.7353
28122SOL    HW278309   7.405   4.117   3.311 -0.3127  0.0691  1.0073
28123SOL     OW78310   0.484   2.462   7.648  0.6080  0.1204 -0.2021
28123SOL    HW178311   0.401   2.500   7.607  0.7134 -1.2194 -1.7225
28123SOL    HW278312   0.562   2.522   7.627 -0.0293  1.5935  1.5775
28124SOL     OW78313   1.346   7.335   5.428 -0.3638 -0.3399  0.0171
28124SOL    HW178314   1.412   7.325   5.353 -1.6157  2.5262 -1.5453
28124SOL    HW278315   1.355   7.426   5.468 -3.0601 -0.0592  0.0621
28127SOL     OW78316   8.106   1.984   5.809 -0.2671 -0.2351 -0.6760
28127SOL    HW178317   8.174   2.009   5.879  0.1833  1.0094 -1.5431
28127SOL    HW278318   8.074   1.891   5.826 -0.4660  0.1792  1.4288
28128SOL     OW78319   3.594   6.132   2.691  0.1577 -0.6113  0.5563
28128SOL    HW178320   3.524   6.071   2.654  1.0869 -1.3068 -0.0900
28128SOL    HW278321   3.684   6.092   2.675  0.8570  1.5213 -0.9858
28129SOL     OW78322   8.278   2.464   0.436  0.2905  0.0846  0.0234
28129SOL    HW178323   8.360   2.420   0.400 -0.1193 -1.0024  0.4119
28129SOL    HW278324   8.303   2.550   0.481  1.2819 -0.5222  0.6412
28130SOL     OW78325   5.185   1.354   6.141 -0.2291 -0.4400  0.0495
28130SOL    HW178326   5.244   1.429   6.172  0.1130  0.4985 -2.7101
28130SOL    HW278327   5.104   1.348   6.200 -0.4011  2.2911  0.1494
28131SOL     OW78328   3.947   5.867   7.638 -0.0839 -0.0005  0.1084
28131SOL    HW178329   3.883   5.836   7.569 -0.1274 -1.5502  0.8252
28131SOL    HW278330   4.010   5.793   7.662  0.1215  0.5977  1.5064
28132SOL     OW78331   7.250   1.580   1.617 -0.1491 -0.5073  0.1746
28132SOL    HW178332   7.155   1.602   1.593  0.0780  0.7095  0.3246
28132SOL    HW278333   7.269   1.485   1.594 -1.0902 -0.4582 -0.8767
28133SOL     OW78334   9.099   2.405   2.186 -0.0948 -0.3899  0.8030
28133SOL    HW178335   9.117   2.444   2.096 -0.5315 -1.1659  0.3751
28133SOL    HW278336   9.133   2.467   2.256  2.4087 -0.8736  0.0741
28134SOL     OW78337   4.065   3.435   4.062 -0.5312 -0.3568 -0.0756
28134SOL    HW178338   3.996   3.391   4.120 -0.0142 -1.5119 -0.3294
28134SOL    HW278339   4.028   3.449   3.971 -0.3286 -1.2795 -0.3054
28135SOL     OW78340   8.717   3.528   0.669  0.2182  0.3832 -0.0457
28135SOL    HW178341   8.738   3.434   0.641 -0.4977  0.2289 -0.0543
28135SOL    HW278342   8.640   3.563   0.616  2.0264  1.8464 -1.7796
28136SOL     OW78343   0.780   1.787   5.700 -0.1905 -0.2553 -0.0245
28136SOL    HW178344   0.853   1.822   5.641 -0.2419 -0.4634 -0.2099
28136SOL    HW278345   0.801   1.694   5.728 -0.4663 -0.3742 -0.2118
28137SOL     OW78346   4.164   3.582   7.240  0.3384 -0.4446  0.0050
28137SOL    HW178347   4.141   3.657   7.179 -1.5051 -0.3546  0.7847
28137SOL    HW278348   4.255   3.547   7.218  1.3310  2.1903 -0.1617
28138SOL     OW78349   3.079   1.960   3.066 -0.0508 -0.3400 -0.3913
28138SOL    HW178350   3.093   1.909   2.981 -0.4182 -0.8133 -0.1716
28138SOL    HW278351   3.165   1.964   3.117  0.0969 -0.3201 -0.6411
28142SOL     OW78352   6.442   1.947   1.476  0.3898 -0.2063  0.1819
28142SOL    HW178353   6.476   1.868   1.425 -1.0842 -0.4003 -0.5215
28142SOL    HW278354   6.342   1.947   1.475  0.3266 -0.0229  2.8137
28144SOL     OW78355   1.594   3.709   3.487  0.0615 -0.0333 -0.2338
28144SOL    HW178356   1.496   3.707   3.464 -0.0934  0.2661  0.3895
28144SOL    HW278357   1.623   3.804   3.500 -0.4198 -0.2734  3.1216
28145SOL     OW78358   1.936   4.755   1.158 -0.0747  0.3059  1.0165
28145SOL    HW178359   2.020   4.747   1.104 -0.4031 -0.5853  0.6210
28145SOL    HW278360   1.863   4.793   1.102 -0.0414  0.7011  1.2419
28146SOL     OW78361   9.455   2.378   6.768  0.0922  0.0962  0.1020
28146SOL    HW178362   9.521   2.435   6.719  0.1052  2.2264  2.4730
28146SOL    HW278363   9.369   2.427   6.776 -0.8361 -1.4315 -0.3008
28147SOL     OW78364   7.769   0.251   4.594  0.3383  0.2217  0.4429
28147SOL    HW178365   7.844   0.283   4.652  1.8580 -1.9946 -0.2671
28147SOL    HW278366   7.736   0.163   4.629 -1.0024  0.5009 -0.0957
28149SOL     OW78367   5.838   8.813   2.024  0.2072 -0.0610 -0.5969
28149SOL    HW178368   5.767   8.791   2.092  0.7843 -1.6961 -0.4979
28149SOL    HW278369   5.855   8.732   1.967  1.2818  0.6297 -1.2647
28150SOL     OW78370   0.413   9.151   5.057 -0.5055 -0.0458 -0.4323
28150SOL    HW178371   0.450   9.095   4.983 -0.1274 -2.2807  1.3816
28150SOL    HW278372   0.398   9.093   5.138 -1.9165  2.1174  0.8934
28151SOL     OW78373   1.507   4.871   0.456  0.1040 -0.2887 -0.0526
28151SOL    HW178374   1.512   4.785   0.406 -1.3392  0.4252 -1.4606
28151SOL    HW278375   1.495   4.947   0.391 -0.3503  0.8055  1.2835
28153SOL     OW78376   8.236   8.416   7.638 -0.1875  0.2886 -0.1245
28153SOL    HW178377   8.236   8.479   7.561 -0.4254 -0.1980 -0.5302
28153SOL    HW278378   8.330   8.387   7.658 -0.1512  0.2446 -0.3685
28154SOL     OW78379   3.152   6.588   3.319  0.2269 -0.4417 -0.7705
28154SOL    HW178380   3.197   6.588   3.230  1.6215 -0.7626 -0.0852
28154SOL    HW278381   3.175   6.504   3.368  1.1446  0.6548  0.7135
28155SOL     OW78382   2.459   9.709   4.613 -0.4097 -0.4941  0.9133
28155SOL    HW178383   2.471   9.635   4.546 -1.3563  1.3101 -1.3170
28155SOL    HW278384   2.546   9.728   4.658  0.7097 -0.4184 -1.2363
28156SOL     OW78385   8.810   6.051   3.528  0.3796 -0.9719 -0.3666
28156SOL    HW178386   8.722   6.050   3.481  0.0695 -1.2269  0.2043
28156SOL    HW278387   8.816   6.133   3.585  1.1774 -0.1434 -1.6310
28157SOL     OW78388   2.862   2.560   3.398  0.3762 -0.4165 -0.1178
28157SOL    HW178389   2.933   2.512   3.346  2.6477  0.3174  2.2148
28157SOL    HW278390   2.855   2.654   3.365  0.7289 -0.3922 -0.1257
28158SOL     OW78391   8.524   1.539   1.287  0.2910  0.6394 -0.1373
28158SOL    HW178392   8.505   1.441   1.282  1.1306  0.4466  0.2478
28158SOL    HW278393   8.623   1.554   1.278  0.2153  1.4133  0.2751
28159SOL     OW78394   2.769   3.048   7.502 -0.7193 -0.4639 -0.1442
28159SOL    HW178395   2.800   3.124   7.559 -2.2657 -1.3353  1.9489
28159SOL    HW278396   2.847   2.990   7.478  0.0335  0.1521  0.7806
28160SOL     OW78397   8.485   5.886   4.092  0.1740  0.0508 -0.5187
28160SOL    HW178398   8.472   5.898   4.191  2.9419  0.8911 -0.2211
28160SOL    HW278399   8.489   5.975   4.048 -3.7310 -0.3465 -1.8215
28161SOL     OW78400   9.859   6.090   7.517 -0.1930 -0.5844 -0.7124
28161SOL    HW178401   9.789   6.090   7.447  0.6073 -0.4816 -1.5278
28161SOL    HW278402   9.921   6.013   7.504  0.6070  0.0553 -0.7910
28162SOL     OW78403   1.224   6.414   3.017  0.1262  0.3236  0.3709
28162SOL    HW178404   1.276   6.369   3.089  0.4075 -0.6183 -0.4114
28162SOL    HW278405   1.140   6.452   3.055 -0.9996 -2.4283  0.7359
28163SOL     OW78406   6.221   8.673   4.524  0.2807  0.0174  0.0070
28163SOL    HW178407   6.292   8.625   4.575  0.1972  0.4486  0.5309
28163SOL    HW278408   6.148   8.609   4.501  0.4784 -0.2525  0.1348
28164SOL     OW78409   9.476   8.696   3.928  0.2313  0.2365 -0.1538
28164SOL    HW178410   9.480   8.795   3.938  0.6713  0.2059 -0.0411
28164SOL    HW278411   9.536   8.667   3.853 -0.8751  0.1828 -1.0371
28165SOL     OW78412   8.717   6.701   7.637  0.5081  0.4649  0.0762
28165SOL    HW178413   8.693   6.796   7.660  0.1734  0.3112  0.3582
28165SOL    HW278414   8.716   6.646   7.720  1.2261  0.3259 -0.0036
28166SOL     OW78415   7.075   5.362   3.079 -0.4874  0.1654 -0.1810
28166SOL    HW178416   7.006   5.380   3.010  0.4776  0.8487 -0.9880
28166SOL    HW278417   7.146   5.433   3.074  0.2532 -0.5045  0.6445
28167SOL     OW78418   7.434   0.362   0.291  0.0836  0.0354 -0.0195
28167SOL    HW178419   7.424   0.291   0.360  0.3096  0.1777  0.1625
28167SOL    HW278420   7.356   0.424   0.295  0.7034  0.7629  0.9494
28169SOL     OW78421   5.959   9.883   4.408  0.1517 -0.7854  0.1911
28169SOL    HW178422   6.007   9.813   4.354  1.0073  0.4134 -0.6317
28169SOL    HW278423   5.907   9.942   4.346  0.5759  0.1735  0.7385
28170SOL     OW78424   8.245   6.104   4.228  0.4987 -0.2559  0.3450
28170SOL    HW178425   8.186   6.182   4.211  1.2774  0.0260 -1.1632
28170SOL    HW278426   8.289   6.114   4.317 -4.1552 -2.0643  2.9940
28172SOL     OW78427   7.868   1.701   6.152 -0.1121 -0.0046  0.0351
28172SOL    HW178428   7.812   1.618   6.144 -0.0324 -0.0973  0.4632
28172SOL    HW278429   7.929   1.693   6.230  3.2136 -1.5009 -2.5875
28173SOL     OW78430   8.178   0.779   0.664 -0.4809  0.5538 -0.2016
28173SOL    HW178431   8.181   0.679   0.659 -3.1586  0.4072  0.5698
28173SOL    HW278432   8.266   0.813   0.696  1.2359 -1.3953 -2.5724
28174SOL     OW78433   6.826   2.814   1.296 -0.5200 -0.0154 -0.1312
28174SOL    HW178434   6.860   2.788   1.387  1.0419  0.2265 -0.6314
28174SOL    HW278435   6.813   2.913   1.292 -1.6336 -0.1426  0.1643
28175SOL     OW78436   0.578   5.957   2.465 -0.3989  0.2811  0.3422
28175SOL    HW178437   0.636   5.880   2.494  0.6883  0.9743  0.0643
28175SOL    HW278438   0.601   6.038   2.520 -1.9510  0.2557  1.0321
28176SOL     OW78439   3.285   3.580   7.000  0.3311  0.8090 -0.7146
28176SOL    HW178440   3.221   3.646   7.041  0.8086  1.4285 -0.9634
28176SOL    HW278441   3.367   3.628   6.969  0.1372  0.2809 -2.0553
28177SOL     OW78442   5.954   1.304   3.505 -0.2107 -0.1559 -0.3252
28177SOL    HW178443   5.944   1.228   3.441  0.6892  0.9503 -1.7858
28177SOL    HW278444   5.890   1.377   3.481 -0.0099  0.1871  0.1589
28178SOL     OW78445   7.643   7.055   1.996 -0.7547  0.4649  0.1488
28178SOL    HW178446   7.659   7.125   1.926  0.4861  0.7924  0.7353
28178SOL    HW278447   7.680   7.087   2.083  3.6195 -2.6048 -0.4346
28180SOL     OW78448   9.860   1.896   3.371 -0.0684  0.2536  0.1456
28180SOL    HW178449   9.763   1.912   3.353 -0.6198 -1.0767  1.7928
28180SOL    HW278450   9.888   1.809   3.331  0.3272  0.4281  0.0422
28181SOL     OW78451   8.731   6.851   5.786  0.3006  0.2156 -0.6314
28181SOL    HW178452   8.765   6.882   5.697  0.3864 -2.6706 -1.6587
28181SOL    HW278453   8.809   6.826   5.844  0.1460 -0.7081 -0.8185
28182SOL     OW78454   0.067   5.863   5.418 -0.4524 -0.4766 -0.6856
28182SOL    HW178455   0.127   5.804   5.471 -0.1641  1.1604  0.8571
28182SOL    HW278456   0.008   5.915   5.480  0.3339  1.9669 -1.9263
28184SOL     OW78457   5.044   9.882   3.589  0.0830  0.0307  0.1696
28184SOL    HW178458   5.100   9.952   3.634  1.2468 -0.5288 -0.3834
28184SOL    HW278459   4.990   9.834   3.657  0.0690  0.7599  0.6805
28185SOL     OW78460   3.490   0.639   7.250 -0.0296  0.5127 -0.2750
28185SOL    HW178461   3.516   0.557   7.200  1.2477  1.6215 -1.4662
28185SOL    HW278462   3.493   0.718   7.189 -0.3332  1.5875  1.0679
28186SOL     OW78463   5.486   4.659   1.151 -0.2474 -0.1021  0.1113
28186SOL    HW178464   5.572   4.653   1.100 -0.0645 -2.7643  0.6374
28186SOL    HW278465   5.506   4.670   1.249 -0.4742 -1.1574  0.2840
28188SOL     OW78466   7.287   8.732   2.502  0.3336  0.5124  0.2039
28188SOL    HW178467   7.240   8.777   2.578  1.5687  0.5235  0.9775
28188SOL    HW278468   7.228   8.732   2.421 -2.0280 -1.7438  1.8617
28190SOL     OW78469   2.334   0.773   5.424  0.3010 -0.8351  0.2162
28190SOL    HW178470   2.345   0.867   5.456 -0.5307 -0.5246 -0.3790
28190SOL    HW278471   2.237   0.751   5.420  0.5218 -2.5315  2.6494
28191SOL     OW78472   8.568   8.571   7.949  0.9886  0.2520  0.2525
28191SOL    HW178473   8.617   8.483   7.953 -1.8174 -1.4265 -0.7609
28191SOL    HW278474   8.523   8.580   7.860 -1.6839  1.0323  1.6280
28192SOL     OW78475   1.936   2.195   2.869 -0.6661 -0.1097  0.1872
28192SOL    HW178476   2.000   2.128   2.905 -1.0636 -0.5996 -0.0197
28192SOL    HW278477   1.950   2.283   2.915  0.7556  0.0188 -0.4827
28193SOL     OW78478   0.770   3.324   6.469 -0.3064 -0.6968 -0.1962
28193SOL    HW178479   0.719   3.320   6.383  0.6468  0.3053 -0.8086
28193SOL    HW278480   0.819   3.411   6.475  0.5848 -1.2607  0.8252
28194SOL     OW78481   0.702   8.360   2.078  0.4002  0.1725 -0.2923
28194SOL    HW178482   0.624   8.423   2.073 -0.1319 -0.4619 -0.0042
28194SOL    HW278483   0.697   8.294   2.003  0.5729  0.0269 -0.1760
28195SOL     OW78484   9.402   5.540   1.906  0.0853 -0.3241 -0.0072
28195SOL    HW178485   9.442   5.468   1.963 -1.3517 -0.6402  0.6225
28195SOL    HW278486   9.311   5.513   1.877  0.5453  0.1267 -1.9472
28196SOL     OW78487   1.889   9.853   3.048 -0.4245 -0.3333 -0.0400
28196SOL    HW178488   1.834   9.899   2.978  0.4428 -0.3826 -0.7670
28196SOL    HW278489   1.962   9.801   3.003 -0.1401 -0.7294  0.8842
28197SOL     OW78490   7.944   8.991   2.854 -0.1980  0.3477  0.1037
28197SOL    HW178491   7.980   9.034   2.771 -2.7077  2.0060 -0.1982
28197SOL    HW278492   7.927   9.061   2.923 -0.2647 -0.7335  1.2016
28198SOL     OW78493   4.873   7.962   6.195  0.5854  0.4631  0.2782
28198SOL    HW178494   4.875   7.929   6.100  1.9628 -1.7341  1.0545
28198SOL    HW278495   4.967   7.974   6.228  0.1244  2.9252  0.8207
28199SOL     OW78496   3.932   0.156   5.383 -0.1659  0.0707  0.3191
28199SOL    HW178497   4.030   0.138   5.378  0.1915  1.9998 -0.1682
28199SOL    HW278498   3.898   0.185   5.293 -0.7205  1.4997  0.9626
28200SOL     OW78499   0.076   6.397   0.569 -0.4180  0.0293 -0.4880
28200SOL    HW178500   0.087   6.455   0.650 -0.0891 -0.3891 -0.2258
28200SOL    HW278501   0.004   6.434   0.510  1.3122  1.9897 -1.4459
28201SOL     OW78502   1.385   3.326   7.791  0.0362 -0.4760  0.4566
28201SOL    HW178503   1.433   3.413   7.801 -1.5296  0.1835  2.6833
28201SOL    HW278504   1.321   3.332   7.715  0.7244 -0.0845 -0.1045
28202SOL     OW78505   2.240   9.288   6.659  0.0470 -0.0493 -0.3578
28202SOL    HW178506   2.304   9.258   6.589 -0.9416  0.5357 -1.5218
28202SOL    HW278507   2.192   9.208   6.697  0.4096 -0.3403 -0.5129
28204SOL     OW78508   2.629   6.830   5.758  0.1635 -0.0634 -0.5162
28204SOL    HW178509   2.723   6.859   5.739  0.1828  0.4370  0.3337
28204SOL    HW278510   2.629   6.767   5.836 -0.4554  1.7791  1.0031
28205SOL     OW78511   0.672   9.347   5.975  0.1209  0.5021 -0.5188
28205SOL    HW178512   0.734   9.283   5.929 -2.8738 -2.8802 -0.0780
28205SOL    HW278513   0.703   9.361   6.069  2.2050  1.7461 -1.3530
28206SOL     OW78514   2.349   3.797   0.491 -0.5469  0.3946  0.1774
28206SOL    HW178515   2.305   3.876   0.534 -2.1648 -0.7748  0.7434
28206SOL    HW278516   2.301   3.713   0.519  0.0963 -0.6382 -1.7163
28207SOL     OW78517   1.934   1.068   4.781 -0.4729 -0.6088 -0.0748
28207SOL    HW178518   1.867   1.110   4.720 -1.0269  1.1722  1.6895
28207SOL    HW278519   1.904   1.080   4.876  2.2982  0.1774  0.7476
28208SOL     OW78520   7.169   0.090   6.513  0.0954  0.4591 -0.1757
28208SOL    HW178521   7.178   0.111   6.416  1.5622  1.2898  0.1232
28208SOL    HW278522   7.236   0.021   6.539 -0.8199 -0.3491  0.0954
28211SOL     OW78523   1.151   2.119   1.455  0.1708 -0.0706  0.0562
28211SOL    HW178524   1.099   2.142   1.373  0.0544 -1.8182 -0.3946
28211SOL    HW278525   1.237   2.169   1.456 -0.2591  0.6888 -0.6403
28212SOL     OW78526   1.686   6.343   5.264  0.9924 -0.1653  0.3130
28212SOL    HW178527   1.751   6.418   5.265  0.6102  0.1677  1.4220
28212SOL    HW278528   1.684   6.300   5.355 -0.5433  0.0153  0.3757
28213SOL     OW78529   5.900   7.688   4.258 -0.2125  0.3004 -0.7915
28213SOL    HW178530   5.892   7.718   4.162 -3.2249 -0.3065 -0.7677
28213SOL    HW278531   5.925   7.591   4.260  0.8338  0.5512 -0.9136
28214SOL     OW78532   1.046   4.711   2.362  0.5146 -0.2277  0.1776
28214SOL    HW178533   0.981   4.649   2.318  0.9802 -1.0332  0.6062
28214SOL    HW278534   0.999   4.762   2.434 -0.0008  0.3238 -0.5487
28215SOL     OW78535   8.846   1.710   2.437 -0.5247  0.0353  0.4078
28215SOL    HW178536   8.797   1.655   2.370 -2.0207 -1.0026  2.3062
28215SOL    HW278537   8.817   1.684   2.529  2.7239  0.2450  1.5404
28216SOL     OW78538   4.800   1.184   7.822 -0.2796  0.0079 -0.6260
28216SOL    HW178539   4.771   1.251   7.890 -0.5363 -2.1732  1.4845
28216SOL    HW278540   4.751   1.098   7.836 -1.5822 -0.0341 -4.6435
28217SOL     OW78541   7.863   3.371   2.131  0.0296 -0.2736 -0.1038
28217SOL    HW178542   7.862   3.363   2.031 -0.6956 -1.4069 -0.0020
28217SOL    HW278543   7.913   3.454   2.156 -2.0491  1.4564 -1.4886
28218SOL     OW78544   0.206   9.366   3.209 -0.7432  0.1751 -0.0017
28218SOL    HW178545   0.190   9.386   3.305 -0.9480  1.1302 -0.2268
28218SOL    HW278546   0.275   9.430   3.173 -1.4400  0.5121 -0.7515
28219SOL     OW78547   2.470   2.441   7.381  0.3288 -0.5441 -0.3289
28219SOL    HW178548   2.558   2.395   7.395 -0.1256 -1.5012 -0.5898
28219SOL    HW278549   2.424   2.401   7.302  0.0794  0.5971 -0.7651
28220SOL     OW78550   0.960   1.761   6.979 -0.0931 -0.3165  0.0432
28220SOL    HW178551   1.055   1.732   6.963 -1.2680 -3.0450 -2.6308
28220SOL    HW278552   0.943   1.847   6.932  1.4660  1.0857  1.9499
28221SOL     OW78553   0.330   1.818   1.968 -0.4281 -0.2002 -0.2812
28221SOL    HW178554   0.261   1.885   1.940 -1.0166 -1.2089 -1.2917
28221SOL    HW278555   0.349   1.829   2.066  0.9832  2.7801 -0.8138
28222SOL     OW78556   2.942   1.819   4.887 -0.1641 -0.2813 -0.1899
28222SOL    HW178557   2.955   1.766   4.971  0.6659 -0.8790 -0.6897
28222SOL    HW278558   2.861   1.876   4.896  0.9924  1.1075  1.7667
28223SOL     OW78559   8.445   3.065   0.497  0.1092 -0.1048  0.1613
28223SOL    HW178560   8.422   2.973   0.466  2.4910 -1.3348  1.9628
28223SOL    HW278561   8.497   3.061   0.582 -0.6358  2.9597  0.8560
28224SOL     OW78562   7.138   6.751   7.201 -0.2498 -0.0723 -0.2380
28224SOL    HW178563   7.160   6.842   7.165 -0.2023 -0.4605 -1.1942
28224SOL    HW278564   7.180   6.740   7.291  2.9256 -0.5566 -1.7261
28225SOL     OW78565   4.370   9.421   4.823 -0.5782 -0.8201 -0.1156
28225SOL    HW178566   4.431   9.349   4.854 -0.8825 -1.3902 -0.8143
28225SOL    HW278567   4.276   9.387   4.821 -0.7904 -0.2526  0.0152
28226SOL     OW78568   4.066   3.570   4.839 -0.5233 -0.2354  0.6026
28226SOL    HW178569   4.163   3.546   4.840 -0.6601 -0.7651  1.8923
28226SOL    HW278570   4.039   3.604   4.929 -1.3138  0.8374 -0.0201
28227SOL     OW78571   1.310   5.525   5.199 -0.2013  0.2580 -0.7541
28227SOL    HW178572   1.259   5.439   5.207  1.0239 -0.3883  0.3763
28227SOL    HW278573   1.246   5.601   5.190 -1.4362 -0.3943  2.0087
28229SOL     OW78574   3.326   0.313   5.132 -0.1130  0.3701 -0.5408
28229SOL    HW178575   3.321   0.412   5.122 -0.7947  0.6239  1.8691
28229SOL    HW278576   3.405   0.290   5.190  0.4671 -0.5444 -1.6841
28231SOL     OW78577   4.676   1.437   5.825 -0.2780  0.0316  0.1701
28231SOL    HW178578   4.591   1.458   5.777 -0.1673 -0.1599 -0.1161
28231SOL    HW278579   4.664   1.352   5.878 -0.6933  0.7499  1.2434
28232SOL     OW78580   5.842   4.013   2.214 -0.3326  0.3191 -0.5204
28232SOL    HW178581   5.803   4.040   2.302  0.4654 -0.2750  0.0290
28232SOL    HW278582   5.770   3.976   2.155 -0.8570  0.6422 -0.0825
28233SOL     OW78583   8.495   1.737   5.106 -0.2621  0.2601  0.3330
28233SOL    HW178584   8.530   1.683   5.182 -1.1768 -2.4150 -1.0952
28233SOL    HW278585   8.395   1.742   5.112 -0.4003 -0.6439 -1.1301
28234SOL     OW78586   6.743   7.988   6.156 -0.7889  0.2256 -0.1859
28234SOL    HW178587   6.660   8.024   6.115 -0.5598 -0.1344 -0.9787
28234SOL    HW278588   6.807   7.959   6.084 -0.5463 -0.7767  0.4112
28235SOL     OW78589   3.681   0.926   0.726 -0.7807  0.2540  0.5283
28235SOL    HW178590   3.705   0.913   0.630 -1.6507 -0.1030  0.3561
28235SOL    HW278591   3.635   0.844   0.760 -0.2406  0.2701  1.3255
28236SOL     OW78592   5.229   8.486   4.460  0.2209 -0.0520 -0.2771
28236SOL    HW178593   5.304   8.419   4.459  0.7328  0.5113 -0.6343
28236SOL    HW278594   5.268   8.578   4.465 -0.5221  0.1677  1.6933
28238SOL     OW78595   9.277   9.610   3.597 -0.4480  0.0479  0.6812
28238SOL    HW178596   9.317   9.521   3.574 -1.3264 -0.0465 -0.4784
28238SOL    HW278597   9.187   9.597   3.637  0.4755  0.2921  2.9275
28239SOL     OW78598   0.943   8.965   1.100 -0.4242  0.2852 -0.0500
28239SOL    HW178599   1.041   8.947   1.113 -0.1759  0.4067 -1.6231
28239SOL    HW278600   0.892   8.931   1.179  0.9265  0.5884  0.9674
28242SOL     OW78601   1.158   2.746   1.901  0.2457  0.1264  0.8345
28242SOL    HW178602   1.238   2.801   1.879  0.4547  0.5104  2.4741
28242SOL    HW278603   1.077   2.787   1.860  0.7403  0.2903  0.0075
28243SOL     OW78604   4.121   8.059   2.143 -0.2321  0.0941 -0.2516
28243SOL    HW178605   4.064   7.985   2.180  0.4683  0.2945  1.2800
28243SOL    HW278606   4.063   8.127   2.099 -1.2613  0.6101  1.8452
28246SOL     OW78607   1.849   1.217   1.461  0.6324 -0.0429  0.3933
28246SOL    HW178608   1.849   1.215   1.561 -1.4114 -0.5277  0.3886
28246SOL    HW278609   1.827   1.127   1.425  0.2516  0.3933 -0.4835
28247SOL     OW78610   2.009   0.023   6.328 -0.2429  0.5721  0.5156
28247SOL    HW178611   1.933   0.081   6.300  0.9252  1.1842 -1.4798
28247SOL    HW278612   2.077   0.078   6.376  0.9218  0.9125 -1.4846
28248SOL     OW78613   7.983   7.370   1.612  0.3870  0.4264 -0.3072
28248SOL    HW178614   8.033   7.323   1.539  1.8552  0.2946  0.7743
28248SOL    HW278615   7.917   7.306   1.653 -0.3822  0.4744 -1.4431
28249SOL     OW78616   3.853   5.454   6.719 -0.2877 -0.4741  0.0646
28249SOL    HW178617   3.835   5.460   6.620  1.9441  0.4865 -0.2991
28249SOL    HW278618   3.782   5.397   6.762 -1.6745 -0.3445 -1.9732
28250SOL     OW78619   4.622   8.788   6.210 -0.3064  0.3577 -0.1295
28250SOL    HW178620   4.674   8.739   6.141  1.6755  2.8109 -0.4499
28250SOL    HW278621   4.670   8.783   6.298 -1.1039  0.0473  0.2924
28251SOL     OW78622   7.690   0.948   6.663 -0.0554  0.7603  0.4567
28251SOL    HW178623   7.718   0.921   6.755  1.1143 -2.0553 -0.6612
28251SOL    HW278624   7.770   0.982   6.612 -0.2826  0.4374 -0.1257
28252SOL     OW78625   0.261   1.714   5.136  0.4263 -0.0336 -0.4951
28252SOL    HW178626   0.314   1.790   5.175  1.0712 -0.2889 -0.8619
28252SOL    HW278627   0.187   1.751   5.081  0.4613  0.3337 -0.3017
28255SOL     OW78628   8.554   8.111   2.877  0.3386  0.4213 -0.2243
28255SOL    HW178629   8.606   8.027   2.864  2.4603  1.5726  0.4549
28255SOL    HW278630   8.556   8.137   2.974 -1.5527  0.4679 -0.1890
28256SOL     OW78631   0.090   9.047   3.287 -0.2771 -0.1641  0.0798
28256SOL    HW178632   0.112   8.952   3.310 -0.0498 -0.4728 -1.3972
28256SOL    HW278633   0.121   9.106   3.361  1.4070 -1.0471  0.1120
28258SOL     OW78634   2.079   5.284   0.478 -0.3098  0.2201  0.0730
28258SOL    HW178635   2.048   5.240   0.394  0.3954  1.0090 -0.6017
28258SOL    HW278636   2.011   5.269   0.550 -0.7530 -0.7510 -0.5353
28259SOL     OW78637   4.283   5.350   6.863  0.1282  0.2969 -0.7109
28259SOL    HW178638   4.332   5.262   6.862  0.0879  0.2680 -0.0443
28259SOL    HW278639   4.230   5.358   6.779 -2.3932 -1.7621  0.6151
28260SOL     OW78640   0.790   8.371   0.101  0.2004  0.0800  0.2823
28260SOL    HW178641   0.712   8.361   0.162  0.0909 -1.4440 -0.0620
28260SOL    HW278642   0.865   8.314   0.135 -0.3962 -2.0443 -1.8103
28261SOL     OW78643   1.442   9.559   4.223 -0.0051 -0.3219 -0.1085
28261SOL    HW178644   1.507   9.530   4.294 -0.2105 -1.5937 -0.4328
28261SOL    HW278645   1.359   9.593   4.267  0.0493 -0.6709  0.2660
28262SOL     OW78646   5.433   0.255   6.044  1.0316  0.5455 -0.1569
28262SOL    HW178647   5.339   0.226   6.025  2.3174 -2.4917 -2.2528
28262SOL    HW278648   5.440   0.354   6.032 -1.5325  0.5832 -1.6671
28263SOL     OW78649   5.065   9.938   5.316  0.3356  0.4828 -0.7868
28263SOL    HW178650   5.114   9.851   5.317  1.1886  0.9696 -0.4731
28263SOL    HW278651   5.088   9.991   5.397  0.3136  1.2852 -1.2973
28264SOL     OW78652   4.601   5.970   0.937 -0.2401 -0.0697 -0.3210
28264SOL    HW178653   4.583   6.012   0.848 -0.9172 -0.0522 -0.1763
28264SOL    HW278654   4.675   6.019   0.983  0.2438 -0.1980 -0.9581
28265SOL     OW78655   2.376   8.638   6.297 -0.4866  0.4255  0.4694
28265SOL    HW178656   2.408   8.648   6.202 -0.2399 -2.7835  0.1454
28265SOL    HW278657   2.278   8.616   6.297 -0.6143  1.0048  0.9814
28266SOL     OW78658   4.523   6.556   2.686  0.1713  0.1648  0.5423
28266SOL    HW178659   4.434   6.588   2.717  1.2185  2.5081  1.2389
28266SOL    HW278660   4.548   6.472   2.734 -1.5420 -0.3989  0.4813
28267SOL     OW78661   4.744   1.090   3.886  0.3989  0.7170 -0.2443
28267SOL    HW178662   4.738   1.039   3.972  0.2358  0.1004 -0.6217
28267SOL    HW278663   4.654   1.094   3.843  0.6497  0.2551 -0.8267
28268SOL     OW78664   1.970   9.787   3.308  0.5918  0.3485  0.4550
28268SOL    HW178665   1.921   9.831   3.233 -1.8979 -2.2554  0.4779
28268SOL    HW278666   2.035   9.852   3.349 -2.0026  3.5338 -0.3261
28270SOL     OW78667   8.472   4.014   3.819  0.5954 -0.2616  0.3629
28270SOL    HW178668   8.440   4.094   3.770  0.0664 -1.0247 -0.5567
28270SOL    HW278669   8.458   3.932   3.763  2.2747 -0.8512  0.7805
28271SOL     OW78670   9.192   0.510   0.264  0.1397 -0.0243 -0.3511
28271SOL    HW178671   9.173   0.510   0.166  1.5035 -1.1993 -0.6333
28271SOL    HW278672   9.277   0.461   0.281  1.0246  2.0101  1.2245
28272SOL     OW78673   8.954   5.740   0.646 -0.1798  0.3439  0.4689
28272SOL    HW178674   9.047   5.708   0.667 -0.0493 -0.0979 -0.6884
28272SOL    HW278675   8.929   5.814   0.707  0.7567  0.1357  1.1137
28274SOL     OW78676   5.875   9.648   5.568  0.3363  0.1853  0.5161
28274SOL    HW178677   5.952   9.668   5.628 -0.3597  0.4524  1.3409
28274SOL    HW278678   5.888   9.692   5.480  0.9405  0.5541  0.7864
28275SOL     OW78679   3.643   2.541   3.595  0.1596  0.0926 -0.2008
28275SOL    HW178680   3.688   2.629   3.611  1.0636 -0.4906  0.5721
28275SOL    HW278681   3.584   2.547   3.515 -0.1812  1.5462  0.1439
28277SOL     OW78682   9.403   4.715   2.514 -0.2352  0.5833 -0.0092
28277SOL    HW178683   9.378   4.637   2.457 -1.0233  0.5506  0.3706
28277SOL    HW278684   9.437   4.683   2.603  0.9229  0.6352 -0.4225
28278SOL     OW78685   5.338   1.587   6.745 -0.3680  0.0169  0.1231
28278SOL    HW178686   5.354   1.589   6.844  0.7466  0.6238 -0.0627
28278SOL    HW278687   5.304   1.497   6.719  0.6262 -0.5905  0.8717
28279SOL     OW78688   3.529   6.212   3.696  0.0820 -0.5301 -0.0148
28279SOL    HW178689   3.542   6.115   3.720  2.5591  0.7260  4.0926
28279SOL    HW278690   3.473   6.256   3.765 -1.6216  0.9144 -2.2428
28280SOL     OW78691   8.214   2.856   5.546  0.5706  0.3361 -0.0679
28280SOL    HW178692   8.182   2.916   5.473 -0.6008  0.3780  0.4729
28280SOL    HW278693   8.143   2.846   5.615  2.7210  2.6835  2.5800
28281SOL     OW78694   1.161   7.153   4.811 -0.3019  0.0409 -0.4661
28281SOL    HW178695   1.217   7.178   4.732 -1.5132  0.4400 -1.2135
28281SOL    HW278696   1.183   7.214   4.888  3.1138 -2.3377  0.5215
28282SOL     OW78697   5.384   9.224   7.658  0.0433  0.0555  0.0105
28282SOL    HW178698   5.445   9.292   7.617  0.2951  0.9216  1.7677
28282SOL    HW278699   5.289   9.256   7.651  0.1000  0.2732  0.1863
28283SOL     OW78700   9.251   2.554   4.636  0.4474  0.6299 -0.4918
28283SOL    HW178701   9.302   2.469   4.626 -0.3809  0.2660 -1.6202
28283SOL    HW278702   9.224   2.565   4.732  0.6815 -0.3106 -0.3121
28284SOL     OW78703   0.382   7.842   4.040 -0.1549  0.0670  0.2776
28284SOL    HW178704   0.423   7.894   3.965  0.9076 -0.2047  0.6646
28284SOL    HW278705   0.341   7.759   4.003  0.4883 -0.1375  0.0146
28285SOL     OW78706   2.595   9.349   2.654  0.4968 -0.2969  0.1069
28285SOL    HW178707   2.527   9.302   2.709  1.1681 -1.2053  0.1888
28285SOL    HW278708   2.631   9.427   2.704  0.8693 -0.9253  0.8272
28286SOL     OW78709   8.063   4.955   2.612 -0.0035 -0.0360  0.8405
28286SOL    HW178710   8.160   4.952   2.636 -0.4774 -0.5803  2.8035
28286SOL    HW278711   8.018   4.871   2.642 -1.7512  1.6179  3.0454
28287SOL     OW78712   6.129   8.973   6.321  0.4912 -0.3497  0.0785
28287SOL    HW178713   6.144   8.874   6.311 -2.6868 -0.9939  1.2015
28287SOL    HW278714   6.070   8.990   6.400  0.7743  2.4577 -0.2702
28290SOL     OW78715   0.900   2.351   3.575 -0.5339 -0.4651 -0.1026
28290SOL    HW178716   0.956   2.277   3.612  1.4897  0.3481 -1.4773
28290SOL    HW278717   0.956   2.411   3.518 -2.3484  1.6096  0.2070
28292SOL     OW78718   4.914   9.490   1.625  0.5338  0.4170 -0.9118
28292SOL    HW178719   4.978   9.489   1.548  0.1728  1.2236 -1.2288
28292SOL    HW278720   4.887   9.584   1.644 -0.5339  0.0912 -0.7664
28295SOL     OW78721   8.124   7.067   2.715 -0.3150 -0.1088  0.3114
28295SOL    HW178722   8.104   6.969   2.707  1.1333 -0.4467  0.5995
28295SOL    HW278723   8.065   7.118   2.653 -1.9191 -1.0531  1.0218
28296SOL     OW78724   4.247   3.221   0.935  0.3737  0.1479 -0.3123
28296SOL    HW178725   4.174   3.234   1.002  0.0338 -0.6656 -0.5328
28296SOL    HW278726   4.220   3.263   0.848 -0.9814 -2.5099 -1.2022
28297SOL     OW78727   3.260   1.657   0.695 -0.2592 -0.2482  0.0828
28297SOL    HW178728   3.181   1.603   0.723 -0.3398 -0.3121 -0.2685
28297SOL    HW278729   3.324   1.599   0.645  0.9934 -0.6969  2.1639
28298SOL     OW78730   0.552   8.254   3.783 -0.0778  0.3048 -0.1271
28298SOL    HW178731   0.511   8.306   3.708 -1.4961  0.4974  0.7627
28298SOL    HW278732   0.626   8.306   3.824  0.3057  0.4539 -0.9999
28299SOL     OW78733   5.623   1.798   4.340 -0.2663  0.6968  0.2220
28299SOL    HW178734   5.667   1.880   4.378  0.7903 -0.0151  0.5590
28299SOL    HW278735   5.687   1.751   4.279 -1.3332  0.8470 -1.0363
28301SOL     OW78736   0.755   4.428   3.929 -0.1079 -0.0159  0.0104
28301SOL    HW178737   0.659   4.439   3.957 -0.5386 -1.0652 -1.0564
28301SOL    HW278738   0.794   4.518   3.909 -1.0986  0.3506 -0.3014
28302SOL     OW78739   8.907   9.242   6.356 -0.0329 -0.5016  0.2432
28302SOL    HW178740   8.884   9.332   6.318 -0.7224  0.1069  2.0376
28302SOL    HW278741   8.924   9.178   6.281  0.2576  1.0579 -1.0757
28303SOL     OW78742   4.865   4.943   7.099  0.2921  0.1516  0.5187
28303SOL    HW178743   4.806   4.883   7.154 -2.1306  3.1681  1.3683
28303SOL    HW278744   4.808   5.007   7.048  2.8272  2.2615  0.2542
28305SOL     OW78745   2.186   8.002   4.293 -0.0261  0.2933  0.1247
28305SOL    HW178746   2.247   7.930   4.325  0.6501  0.7082 -0.1982
28305SOL    HW278747   2.144   7.974   4.206 -1.8360 -0.8171  1.3259
28306SOL     OW78748   2.094   9.595   5.407 -0.2350 -0.4024 -0.6416
28306SOL    HW178749   2.025   9.636   5.467 -1.3787  1.7811 -3.3205
28306SOL    HW278750   2.110   9.500   5.434 -4.5105 -1.0533 -0.1008
28307SOL     OW78751   0.066   1.292   7.520 -0.6348 -0.1023 -0.2043
28307SOL    HW178752   0.097   1.199   7.537  2.9673  1.3206  1.5772
28307SOL    HW278753   0.105   1.324   7.433 -1.0522  0.1081 -0.3160
28309SOL     OW78754   3.048   9.908   0.048 -0.1321 -0.7406 -0.0103
28309SOL    HW178755   3.085   9.908  -0.045 -1.4632  2.9785 -0.6406
28309SOL    HW278756   2.969   9.847   0.053 -2.2156  1.5962 -2.3492
28310SOL     OW78757   7.449   6.470   1.806 -0.2097 -0.5003  0.3254
28310SOL    HW178758   7.530   6.473   1.864  0.5514  0.7785 -0.7677
28310SOL    HW278759   7.369   6.499   1.858 -0.0226 -2.0487  1.4935
28311SOL     OW78760   7.669   6.829   5.739  0.3505  0.0829  0.4972
28311SOL    HW178761   7.580   6.830   5.693  0.4185  0.6776  0.3704
28311SOL    HW278762   7.684   6.740   5.781  0.0341 -0.2760 -0.1408
28312SOL     OW78763   3.548   5.485   1.533 -0.4517 -0.2945 -0.0485
28312SOL    HW178764   3.547   5.468   1.435  1.5868  4.0999 -0.9553
28312SOL    HW278765   3.477   5.552   1.556  0.0012 -0.2357  1.2212
28314SOL     OW78766   2.429   5.233   6.117 -0.7590 -0.7577  0.1391
28314SOL    HW178767   2.405   5.138   6.137 -0.3133 -0.9821 -0.3904
28314SOL    HW278768   2.399   5.291   6.193 -0.8125 -1.3530  0.5793
28316SOL     OW78769   3.789   5.731   6.759 -0.1330 -0.0849 -0.1765
28316SOL    HW178770   3.817   5.636   6.750  0.8415  0.4108 -3.1147
28316SOL    HW278771   3.689   5.737   6.751 -0.1015 -0.7526 -1.1819
28317SOL     OW78772   3.647   3.906   3.898 -0.4701 -0.6013  0.0331
28317SOL    HW178773   3.547   3.914   3.895 -0.6632 -2.0590  2.0718
28317SOL    HW278774   3.678   3.901   3.993  1.5060 -0.8003 -0.5888
28318SOL     OW78775   5.157   8.822   4.438  0.1352 -1.0279  0.2702
28318SOL    HW178776   5.169   8.857   4.531 -0.8768  0.7380 -0.2417
28318SOL    HW278777   5.068   8.776   4.431 -0.8760  0.9833 -0.4405
28319SOL     OW78778   2.460   6.606   3.452  0.0028  0.0587  0.4728
28319SOL    HW178779   2.488   6.554   3.533  1.1843  2.0536  1.3806
28319SOL    HW278780   2.382   6.664   3.475 -0.4653 -0.3075 -0.1726
28321SOL     OW78781   2.803   3.859   5.804  0.6772  0.0691 -0.5392
28321SOL    HW178782   2.703   3.868   5.806  0.6808 -0.0105  1.2638
28321SOL    HW278783   2.844   3.941   5.842  1.2409 -0.5985  0.3014
28322SOL     OW78784   0.245   4.017   1.127  0.3737  0.1167  0.7114
28322SOL    HW178785   0.280   3.924   1.131 -0.8144 -0.4508 -1.2296
28322SOL    HW278786   0.158   4.023   1.175  0.1005  0.0440  0.2325
28323SOL     OW78787   0.528   3.596   7.169 -0.4283 -0.0259  0.6680
28323SOL    HW178788   0.477   3.518   7.134 -1.6064  1.5367 -1.2053
28323SOL    HW278789   0.465   3.657   7.218 -0.5988  2.2596 -2.2482
28324SOL     OW78790   0.176   2.169   0.549 -0.1687 -0.8557  0.3520
28324SOL    HW178791   0.158   2.187   0.645 -1.2847 -0.0749  0.0079
28324SOL    HW278792   0.247   2.231   0.516  1.5544 -2.3433  1.1042
28325SOL     OW78793   1.924   2.814   4.662  0.6702 -0.0298 -0.3226
28325SOL    HW178794   1.835   2.790   4.625  0.5196  2.1545 -1.4619
28325SOL    HW278795   1.994   2.755   4.621  0.2761  1.1427 -2.7861
28326SOL     OW78796   2.368   3.949   6.670  0.1601 -0.1349  0.0371
28326SOL    HW178797   2.395   4.033   6.716 -1.2444  0.3389  0.0024
28326SOL    HW278798   2.433   3.876   6.693  0.7449  0.6680  0.9561
28328SOL     OW78799   4.252   1.161   4.185 -0.4874 -0.0610 -0.4313
28328SOL    HW178800   4.195   1.117   4.254 -1.3863 -1.1453 -1.8455
28328SOL    HW278801   4.197   1.181   4.104  0.1716  2.6342 -0.2730
28329SOL     OW78802   6.470   0.749   6.958  1.0942 -0.1906 -0.0365
28329SOL    HW178803   6.470   0.701   6.871 -1.7555  1.0259 -0.7644
28329SOL    HW278804   6.502   0.843   6.945 -0.9141  0.5106 -0.1343
28330SOL     OW78805   0.156   4.098   6.105 -0.1144 -0.2006  0.3294
28330SOL    HW178806   0.083   4.141   6.158  0.0862  0.4844  0.0559
28330SOL    HW278807   0.126   4.007   6.076 -0.0886 -0.7327  1.9039
28331SOL     OW78808   7.958   4.113   1.276  0.1636  0.6874 -0.0534
28331SOL    HW178809   7.947   4.031   1.221  2.5884 -0.2563  0.7851
28331SOL    HW278810   7.876   4.129   1.330 -0.5558 -0.8346 -0.6728
28332SOL     OW78811   1.274   6.373   3.695 -0.0443  0.3304  0.1405
28332SOL    HW178812   1.349   6.341   3.754 -0.6334 -0.8089  0.2725
28332SOL    HW278813   1.187   6.340   3.730 -0.2862 -1.7130 -2.2356
28333SOL     OW78814   4.376   8.723   4.815 -0.0188  0.0058 -0.1079
28333SOL    HW178815   4.439   8.653   4.848 -1.2223 -0.9422  0.2202
28333SOL    HW278816   4.356   8.708   4.719  0.9029  0.8118 -0.4375
28334SOL     OW78817   6.630   9.442   4.301  0.1968 -0.5708 -0.2055
28334SOL    HW178818   6.728   9.456   4.311 -0.0957  0.0700  1.8427
28334SOL    HW278819   6.596   9.500   4.226  1.4714 -1.3317 -1.4059
28335SOL     OW78820   8.916   9.618   2.411 -0.1227  0.1600  0.0844
28335SOL    HW178821   8.863   9.676   2.349  0.6589  1.1284  0.3135
28335SOL    HW278822   8.892   9.640   2.506 -0.2556 -0.3108  0.1637
28336SOL     OW78823   1.764   1.402   4.906 -0.2913 -0.4744 -0.7263
28336SOL    HW178824   1.738   1.422   4.812  3.0503 -0.3749 -1.7155
28336SOL    HW278825   1.851   1.352   4.906 -0.3378 -0.6468  2.3021
28337SOL     OW78826   1.622   3.639   4.486  0.3276  0.7114  0.7601
28337SOL    HW178827   1.643   3.543   4.468  0.9722  0.6542  1.8062
28337SOL    HW278828   1.536   3.645   4.537 -0.1789  0.7485 -0.0763
28342SOL     OW78829   1.683   5.625   1.959  0.0082  0.1450 -0.2902
28342SOL    HW178830   1.598   5.676   1.968  1.2135  1.9416  1.4861
28342SOL    HW278831   1.760   5.683   1.986  1.6498 -1.9384 -0.3065
28343SOL     OW78832   4.999   4.041   0.827  0.0694  0.0344  0.1441
28343SOL    HW178833   4.974   4.074   0.736  0.8775 -0.5382 -0.2980
28343SOL    HW278834   5.097   4.057   0.842 -0.0324 -0.0016  0.8597
28344SOL     OW78835   6.860   9.861   3.956  0.6751  0.1944 -0.8115
28344SOL    HW178836   6.786   9.878   3.891 -0.5409  1.1716  0.7964
28344SOL    HW278837   6.916   9.785   3.923 -3.1008 -2.9444 -0.3690
28345SOL     OW78838   3.038   0.106   4.806  0.4254 -0.0829 -0.2036
28345SOL    HW178839   3.011   0.051   4.885  0.4691 -0.2485 -0.3039
28345SOL    HW278840   2.962   0.110   4.741  0.4156 -0.0086 -0.1873
28346SOL     OW78841   8.275   7.385   2.472 -0.6850  0.2126 -0.3970
28346SOL    HW178842   8.344   7.440   2.425 -0.2049  0.3891  0.4987
28346SOL    HW278843   8.284   7.289   2.446 -0.0228  0.2165 -0.1954
  10.00000  10.00000  10.08169
