Written by MDAnalysis
10700
    1CHTO  H203    1   3.916   6.330   0.529  1.8556  0.5244  2.2427
    1CHTO   O82    2   3.982   6.268   0.504  1.1122  0.5162  0.1903
    1CHTO  C123    3   4.084   6.245   0.594 -0.1958 -0.1277  0.4597
    1CHTO  H227    4   4.049   6.250   0.698 -1.2172  1.2629  0.0681
    1CHTO   O77    5   4.119   6.113   0.556  0.0737 -0.1338  0.1530
    1CHTO  C118    6   4.222   6.052   0.635  0.5341 -0.2798 -0.8106
    1CHTO  H222    7   4.195   6.064   0.741 -0.4538 -0.6269 -1.0240
    1CHTO  C125    8   4.229   5.900   0.605 -0.0889 -0.7387  0.0147
    1CHTO   O84    9   4.263   5.893   0.465 -0.4132 -0.2561 -0.0826
    1CHTO  H205   10   4.208   5.926   0.397  0.1043 -2.3782 -1.5759
    1CHTO  C114   11   4.359   6.127   0.610 -0.2426  0.0979 -0.3218
    1CHTO  H218   12   4.397   6.109   0.510 -0.5131  0.9202 -0.5767
    1CHTO  C116   13   4.344   6.276   0.628 -1.1130  0.3351  0.2292
    1CHTO  H220   14   4.346   6.295   0.737  0.5885 -1.9946  0.6667
    1CHTO   O79   15   4.457   6.343   0.571  0.2182  0.2077 -0.2896
    1CHTO  H201   16   4.526   6.366   0.630 -0.3041  1.4076 -0.1260
    1CHTO  C120   17   4.210   6.327   0.563 -0.2413  0.0694 -0.7484
    1CHTO  H224   18   4.236   6.330   0.455  0.6814 -1.0649 -0.5698
    1CHTO   N21   19   4.188   6.465   0.609 -0.1794  0.2925 -0.0891
    1CHTO  H211   20   4.282   6.514   0.631  0.1772 -1.1162  1.6522
    1CHTO  H212   21   4.150   6.521   0.525  1.6860  1.1541 -0.3894
    1CHTO   O75   22   4.446   6.069   0.714  0.5487  0.0080  0.5042
    1CHTO  C112   23   4.585   6.070   0.674  0.2606  0.2392 -0.2959
    1CHTO  H216   24   4.613   6.139   0.593  0.5754  0.4601  0.0033
    1CHTO   O73   25   4.621   5.932   0.645 -0.1915  0.3611 -0.3870
    1CHTO  C113   26   4.747   5.933   0.587  0.9259  0.1113  0.6014
    1CHTO  H217   27   4.752   6.009   0.507 -0.0713  1.1168  1.4871
    1CHTO  C124   28   4.774   5.801   0.511  0.5523 -0.4821 -0.0570
    1CHTO   O83   29   4.788   5.693   0.596 -0.3290 -0.0651 -1.1847
    1CHTO  H204   30   4.812   5.614   0.552  1.4645  0.8759 -1.9503
    1CHTO  C109   31   4.854   5.976   0.694 -0.4517 -0.4451 -0.5192
    1CHTO  H213   32   4.861   5.897   0.770  1.0695 -0.8769 -1.0995
    1CHTO  C110   33   4.822   6.117   0.755  0.3979  0.4009 -0.1308
    1CHTO  H214   34   4.835   6.191   0.677  1.8386 -1.0663 -1.3212
    1CHTO   O78   35   4.912   6.145   0.866  0.5116  0.1205 -0.2455
    1CHTO  H200   36   4.993   6.097   0.861 -0.1400 -0.9175 -1.1227
    1CHTO  C111   37   4.677   6.114   0.798 -0.0254 -0.2197  0.6440
    1CHTO  H215   38   4.664   6.044   0.882 -1.6871 -0.1125  0.4896
    1CHTO   N19   39   4.644   6.247   0.850  0.1778 -0.2360 -0.5032
    1CHTO  H207   40   4.612   6.308   0.767 -0.9448 -1.0964 -0.7129
    1CHTO  H208   41   4.568   6.242   0.926  0.5202 -1.5413 -0.2343
    1CHTO   O74   42   4.986   5.984   0.627  0.5348 -0.3490 -0.2954
    1CHTO  C115   43   5.092   5.892   0.702  0.0052 -0.0190  0.3468
    1CHTO  H219   44   5.070   5.879   0.808  0.6325 -1.1346  0.3458
    1CHTO   O76   45   5.089   5.735   0.644  0.2074  0.1009 -0.8073
    1CHTO  C122   46   5.151   5.709   0.523  0.1182 -0.8002  1.0950
    1CHTO  H226   47   5.081   5.730   0.442  0.1629 -0.1821  1.2166
    1CHTO  C126   48   5.175   5.558   0.499  0.0784  0.4649 -0.2492
    1CHTO   O85   49   5.245   5.491   0.601 -0.2966  0.3617 -0.6857
    1CHTO  H206   50   5.231   5.399   0.596 -1.9718  0.5105  0.7912
    1CHTO  C121   51   5.293   5.782   0.503 -0.1639  0.2330 -0.8141
    1CHTO  H225   52   5.372   5.709   0.474 -0.6972 -1.0921  0.9635
    1CHTO   O81   53   5.281   5.886   0.404  0.6303 -0.1840 -0.5525
    1CHTO  H202   54   5.222   5.866   0.334 -1.8795 -0.6873  1.6376
    1CHTO  C119   55   5.335   5.854   0.637  0.1894 -0.1806 -0.2155
    1CHTO  H223   56   5.342   5.781   0.717 -2.4882 -2.3940 -1.8804
    1CHTO  C117   57   5.232   5.964   0.685  0.9515  0.3619 -0.1002
    1CHTO  H221   58   5.218   6.047   0.617  0.7379 -0.8505 -1.5684
    1CHTO   N20   59   5.269   6.036   0.814  0.6089 -0.5351  0.8601
    1CHTO  H209   60   5.193   6.111   0.824  1.2722  0.1153  1.0548
    1CHTO  H210   61   5.364   6.081   0.789  0.3074  0.8717  2.2135
    1CHTO   O80   62   5.503   5.914   0.629 -0.2002 -0.2700  0.1334
    1CHTO  C103   63   5.624   5.811   0.643  0.4641 -0.2215 -0.9307
    1CHTO  H190   64   5.682   5.835   0.732  3.6594 -2.7579 -2.2785
    1CHTO  C101   65   5.600   5.651   0.634  0.2154  0.4776 -0.3407
    1CHTO  H188   66   5.558   5.619   0.538 -1.3482  0.8761  0.1987
    1CHTO   O68   67   5.510   5.604   0.731  0.1140 -0.5156 -0.1690
    1CHTO  H168   68   5.504   5.511   0.741 -1.0834 -0.3474  0.8033
    1CHTO   C99   69   5.742   5.573   0.640  0.0787 -0.2722 -0.0514
    1CHTO  H186   70   5.791   5.602   0.735  0.0528  0.8048 -0.3707
    1CHTO   N17   71   5.743   5.424   0.636  0.6558 -0.0006  0.8719
    1CHTO  H174   72   5.828   5.377   0.588  0.5017 -0.3478  0.9358
    1CHTO  H175   73   5.651   5.398   0.585  2.3491 -2.4092 -1.1034
    1CHTO   C97   74   5.835   5.637   0.532  0.4424  0.2581  0.3267
    1CHTO  H184   75   5.818   5.600   0.430  0.5392 -0.6905  0.6509
    1CHTO   O64   76   5.841   5.784   0.538 -0.8230 -0.3110 -0.4210
    1CHTO  C104   77   5.712   5.852   0.525 -0.6914  0.6228  0.3855
    1CHTO  H191   78   5.658   5.832   0.433 -0.9762 -0.4775  0.7800
    1CHTO  C108   79   5.748   6.001   0.527  0.4480  0.1582 -0.4789
    1CHTO   O71   80   5.835   6.030   0.643 -0.1693 -0.4893  0.6036
    1CHTO  H171   81   5.791   6.027   0.726 -0.9678 -0.0749  0.1961
    1CHTO   O62   82   5.975   5.597   0.560  0.2465  0.3846 -0.0528
    1CHTO   C91   83   6.080   5.590   0.459  0.4159 -0.0153 -0.1097
    1CHTO  H178   84   6.038   5.652   0.380 -0.9631  0.6186  1.1033
    1CHTO   C92   85   6.094   5.436   0.415 -0.0472  0.3693  0.1292
    1CHTO  H179   86   6.095   5.366   0.499  2.7839 -0.1968 -0.3415
    1CHTO   O66   87   5.971   5.404   0.344 -0.0181 -0.4456 -0.3298
    1CHTO  H166   88   5.986   5.325   0.296  1.4200 -0.0122 -0.6066
    1CHTO   C93   89   6.223   5.419   0.325 -0.8034  0.9467 -0.5891
    1CHTO  H180   90   6.196   5.470   0.231 -1.1278 -0.5579 -1.3290
    1CHTO   N16   91   6.264   5.281   0.297 -0.3317 -0.2721  0.1481
    1CHTO  H172   92   6.325   5.288   0.208 -1.3348 -0.3094 -0.5560
    1CHTO  H173   93   6.181   5.216   0.273 -2.1798  0.9961  2.8217
    1CHTO   C94   94   6.345   5.490   0.389 -0.0390 -0.0712 -0.5780
    1CHTO  H181   95   6.372   5.444   0.484 -3.5994 -1.6575 -0.2754
    1CHTO   O61   96   6.307   5.629   0.407 -0.2858  0.0981 -0.3631
    1CHTO   C95   97   6.205   5.658   0.502  0.2156  0.3850 -1.0314
    1CHTO  H182   98   6.226   5.623   0.603 -3.3094  2.8121  0.6684
    1CHTO  C106   99   6.193   5.810   0.529 -0.3604 -0.2468 -0.4551
    1CHTO   O69  100   6.118   5.837   0.646 -0.5629 -0.3428 -0.2607
    1CHTO  H169  101   6.027   5.829   0.626 -1.0123 -0.3423  1.6914
    1CHTO   O63  102   6.495   5.473   0.281  0.2110  0.5113  0.5308
    1CHTO   C96  103   6.634   5.554   0.331  0.3387  0.0656  0.0923
    1CHTO  H183  104   6.621   5.660   0.351  3.2872  0.2206  1.4768
    1CHTO   C98  105   6.752   5.560   0.226  0.2180  0.8975  0.0498
    1CHTO  H185  106   6.719   5.606   0.132 -1.8816 -0.3260  0.1576
    1CHTO   O67  107   6.850   5.648   0.276 -0.6837  0.5192 -0.4335
    1CHTO  H167  108   6.932   5.648   0.231  0.2872 -1.7446  1.1775
    1CHTO  C102  109   6.819   5.416   0.196  0.5380  0.3057 -0.5617
    1CHTO  H189  110   6.925   5.436   0.175  0.5662  2.6488  1.5689
    1CHTO   N18  111   6.762   5.348   0.077  0.5410  0.2581 -0.3976
    1CHTO  H176  112   6.655   5.367   0.069  0.7326  1.7938  0.4196
    1CHTO  H177  113   6.816   5.389  -0.006 -0.6031  0.6212 -0.9785
    1CHTO  C105  114   6.810   5.330   0.324  0.4266 -0.6365 -0.1746
    1CHTO  H192  115   6.717   5.272   0.329 -1.2156  2.0207  0.9601
    1CHTO   O65  116   6.794   5.396   0.448  0.5955  0.6191  0.8217
    1CHTO  C100  117   6.680   5.483   0.459  0.0172  0.1630 -0.5520
    1CHTO  H187  118   6.594   5.422   0.490  0.4040 -2.0919 -3.7548
    1CHTO  C107  119   6.723   5.581   0.568  0.3024  0.8418 -0.1575
    1CHTO   O70  120   6.619   5.674   0.598 -0.2483  0.2820 -0.0430
    1CHTO  H170  121   6.619   5.711   0.684 -0.8656 -2.2537  1.1102
    1CHTO   O57  122   6.950   5.233   0.315  0.2642 -0.1673 -0.1695
    1CHTO   C85  123   6.929   5.099   0.364 -0.7169  0.0711 -0.0449
    1CHTO  H157  124   6.845   5.057   0.305 -0.6508  2.5430 -1.9676
    1CHTO   C83  125   6.875   5.097   0.512  0.4757 -0.5673  0.1568
    1CHTO  H155  126   6.772   5.135   0.505  0.0666 -1.6173  0.4369
    1CHTO   O56  127   6.951   5.191   0.589 -0.5858  0.2718  0.7964
    1CHTO  H135  128   6.941   5.183   0.682  1.2227 -1.2189  0.8744
    1CHTO   C81  129   6.868   4.956   0.578 -0.2119 -0.6347  0.1172
    1CHTO  H153  130   6.805   4.894   0.514 -1.4023 -1.0815  1.6894
    1CHTO   N14  131   6.800   4.955   0.712 -0.1273 -0.2022  0.4475
    1CHTO  H141  132   6.865   4.944   0.796  1.8691 -0.5277 -1.0962
    1CHTO  H142  133   6.730   4.875   0.713 -1.7555  1.1732 -0.2300
    1CHTO   C79  134   7.013   4.888   0.577 -0.5114  0.1382  0.4513
    1CHTO  H151  135   6.999   4.789   0.620 -4.1678  0.5963  0.4745
    1CHTO   O52  136   7.047   4.878   0.436 -1.1012 -0.0576 -0.0037
    1CHTO   C86  137   7.057   5.006   0.362  0.0926  0.1263 -0.3800
    1CHTO  H158  138   7.142   5.062   0.406  1.0892  0.5658 -2.8025
    1CHTO   C90  139   7.087   4.988   0.212 -0.3947 -0.2150  0.1961
    1CHTO   O60  140   7.212   4.926   0.188  0.1499  0.1351  0.0247
    1CHTO  H138  141   7.276   4.989   0.216 -1.9620  2.3862 -0.0541
    1CHTO   O50  142   7.105   4.966   0.647  0.3434 -0.4336 -0.2392
    1CHTO   C73  143   7.231   4.979   0.719  0.5054  0.0424  0.0332
    1CHTO  H145  144   7.314   4.941   0.658  0.3561  1.8215 -1.2883
    1CHTO   C74  145   7.226   4.902   0.860 -0.1204  0.0396 -0.1735
    1CHTO  H146  146   7.218   4.796   0.830 -1.0690 -0.7294  2.6242
    1CHTO   O54  147   7.356   4.916   0.919 -0.5597  0.2484 -0.6359
    1CHTO  H133  148   7.374   4.835   0.964 -0.7598  0.3710 -0.3376
    1CHTO   C75  149   7.105   4.950   0.949  0.6865 -0.3319 -0.2122
    1CHTO  H147  150   7.016   4.932   0.887  0.4430  2.3430 -0.7096
    1CHTO   N13  151   7.096   4.879   1.072  0.1011 -0.1500  0.1899
    1CHTO  H139  152   7.070   4.775   1.056  1.5184 -1.1545  3.8322
    1CHTO  H140  153   7.197   4.883   1.109  0.9365  0.0160 -2.0384
    1CHTO   C76  154   7.119   5.109   0.969  0.4386 -0.7523  0.6955
    1CHTO  H148  155   7.203   5.129   1.035  0.4471  2.3771 -0.1651
    1CHTO   O49  156   7.142   5.174   0.833 -0.0688  0.0888  0.2292
    1CHTO   C77  157   7.255   5.125   0.758 -0.6768  0.1722  0.3121
    1CHTO  H149  158   7.347   5.135   0.815  0.0540  0.6851 -0.9280
    1CHTO   C88  159   7.289   5.208   0.635 -0.0484  0.2572  0.5148
    1CHTO   O58  160   7.337   5.353   0.676 -0.1318 -0.4476  0.1101
    1CHTO  H136  161   7.274   5.408   0.719  1.0624 -0.3199  1.7155
    1CHTO   O51  162   6.980   5.177   1.030 -0.0819 -0.3055  0.0376
    1CHTO   C78  163   6.976   5.334   1.012  0.2541  0.2305 -0.1155
    1CHTO  H150  164   6.993   5.359   0.905 -0.9483 -0.6371 -0.5122
    1CHTO   C80  165   7.086   5.403   1.100 -0.2869  0.5117  0.2233
    1CHTO  H152  166   7.079   5.369   1.206  2.3787 -1.6733 -0.2444
    1CHTO   O55  167   7.220   5.370   1.048 -0.0350 -0.1256  0.4380
    1CHTO  H134  168   7.233   5.398   0.960  0.2588 -2.1775 -0.2091
    1CHTO   C84  169   7.078   5.564   1.104 -0.0119  0.4881  0.6583
    1CHTO  H156  170   7.115   5.604   1.010 -2.6526 -0.1618 -0.7047
    1CHTO   N15  171   7.157   5.630   1.206  0.3013 -0.2284  0.0578
    1CHTO  H143  172   7.104   5.623   1.298 -0.1990 -2.5129 -0.3693
    1CHTO  H144  173   7.257   5.592   1.216  0.8471  1.5510  1.7435
    1CHTO   C87  174   6.924   5.607   1.106 -0.9524 -0.5839 -0.4166
    1CHTO  H159  175   6.884   5.586   1.205 -1.2788 -2.1845 -0.8773
    1CHTO   O53  176   6.829   5.526   1.004  0.5019  0.5083  0.2927
    1CHTO   C82  177   6.837   5.384   1.038 -0.6355 -0.3285  0.4232
    1CHTO  H154  178   6.803   5.376   1.142  2.3997  0.5907  1.5437
    1CHTO   C89  179   6.738   5.298   0.953  0.0390  0.5632 -0.1752
    1CHTO   O59  180   6.602   5.313   0.996  0.2834 -0.1598  0.3668
    1CHTO  H137  181   6.609   5.313   1.089 -0.8364 -0.9496  0.4654
    1CHTO   O45  182   6.916   5.777   1.055  0.4257  0.5774  0.1042
    1CHTO   C67  183   6.793   5.855   1.066  0.5124  0.1325 -0.3751
    1CHTO  H124  184   6.831   5.954   1.042  2.4460 -0.3180  0.7585
    1CHTO   C65  185   6.680   5.818   0.957 -0.4504 -0.7971  0.3979
    1CHTO  H122  186   6.693   5.712   0.934 -1.5329 -1.1901  1.5464
    1CHTO   O44  187   6.707   5.898   0.839 -0.5754  0.4247 -0.3974
    1CHTO  H102  188   6.652   5.874   0.768 -2.2546  0.5131  0.8353
    1CHTO   C63  189   6.536   5.835   1.007  0.5030 -0.0779  0.3431
    1CHTO  H120  190   6.505   5.744   1.059 -1.1640 -0.4681 -1.2633
    1CHTO   N11  191   6.437   5.820   0.891 -0.4670  0.2712  0.0642
    1CHTO  H108  192   6.342   5.807   0.938  0.5761 -2.6201  1.4942
    1CHTO  H109  193   6.459   5.737   0.827 -2.1866 -0.1519 -0.0065
    1CHTO   C61  194   6.523   5.945   1.112  0.4469 -0.4141 -0.0201
    1CHTO  H118  195   6.423   5.937   1.156 -0.6388  0.7279 -2.1726
    1CHTO   O40  196   6.624   5.949   1.211  0.1070  0.4939  0.2324
    1CHTO   C68  197   6.731   5.852   1.215  0.0362 -0.1259  0.7246
    1CHTO  H125  198   6.693   5.749   1.231  0.5235 -0.6967 -1.6066
    1CHTO   C72  199   6.837   5.879   1.326  0.1190  0.3078  0.7856
    1CHTO   O48  200   6.904   6.002   1.300  0.6662 -0.1576 -0.4144
    1CHTO  H105  201   6.842   6.067   1.328  1.7023  1.1710 -1.1599
    1CHTO   O38  202   6.519   6.074   1.051 -0.8073  0.1324  0.4197
    1CHTO   C55  203   6.477   6.190   1.126  0.5064 -0.0467  0.2836
    1CHTO  H112  204   6.447   6.163   1.228 -1.3202 -0.9931 -0.4948
    1CHTO   C56  205   6.349   6.250   1.045  0.6004 -0.5934 -1.0251
    1CHTO  H113  206   6.363   6.243   0.936 -1.4807 -1.8505 -1.2479
    1CHTO   O42  207   6.230   6.174   1.061  0.0185 -0.1038 -0.1305
    1CHTO  H100  208   6.156   6.217   1.024 -0.2902 -0.8647 -0.4084
    1CHTO   C57  209   6.312   6.395   1.077  0.3390  0.1164 -0.1594
    1CHTO  H114  210   6.268   6.383   1.176 -1.6253 -1.2867 -1.1698
    1CHTO   N10  211   6.217   6.458   0.984 -0.0855  0.0062  0.4876
    1CHTO  H106  212   6.115   6.439   1.015 -0.3548  0.5144 -0.1010
    1CHTO  H107  213   6.230   6.565   0.978 -0.8021  0.1296  1.0147
    1CHTO   C58  214   6.438   6.487   1.089  0.5683 -0.3415 -0.7020
    1CHTO  H115  215   6.484   6.496   0.989 -0.8503 -0.8337 -1.4198
    1CHTO   O37  216   6.534   6.431   1.186 -0.8106 -0.0539  0.1998
    1CHTO   C59  217   6.582   6.311   1.126 -0.0028 -0.1389 -0.3715
    1CHTO  H116  218   6.625   6.326   1.027 -0.7636 -0.6682 -0.7920
    1CHTO   C70  219   6.713   6.278   1.204  0.5486 -0.5772  0.0806
    1CHTO   O46  220   6.794   6.184   1.134  0.4515  0.7784 -0.1330
    1CHTO  H103  221   6.760   6.100   1.160  0.3607  1.3995  1.9037
    1CHTO   O39  222   6.396   6.644   1.127  0.1382 -0.2261 -0.1923
    1CHTO   C60  223   6.481   6.746   1.066  0.0631  0.1608 -0.1762
    1CHTO  H117  224   6.583   6.708   1.054  0.0558  0.2076 -0.3978
    1CHTO   C62  225   6.438   6.785   0.919  0.5198 -0.1308  0.1513
    1CHTO  H119  226   6.421   6.688   0.869 -1.7088 -0.0778  0.7567
    1CHTO   O43  227   6.304   6.847   0.917 -0.3426 -0.1137 -0.1762
    1CHTO  H101  228   6.308   6.940   0.915 -1.1633 -0.0237  1.2345
    1CHTO   C66  229   6.556   6.874   0.849 -0.1127 -0.5359 -0.2172
    1CHTO  H123  230   6.650   6.819   0.856 -0.6893 -1.3738  1.1791
    1CHTO   N12  231   6.532   6.903   0.703  0.4653  0.2950 -0.2757
    1CHTO  H110  232   6.614   6.875   0.638  0.1679  1.2747 -1.0994
    1CHTO  H111  233   6.500   7.005   0.688 -0.2777  0.2850  1.1504
    1CHTO   C69  234   6.566   7.002   0.941 -0.1902  0.1314  0.3707
    1CHTO  H126  235   6.469   7.055   0.936 -1.6990 -2.7007 -1.8072
    1CHTO   O41  236   6.604   6.967   1.071 -0.1044  0.0375  0.0476
    1CHTO   C64  237   6.488   6.881   1.145  0.7882 -0.2331  0.2169
    1CHTO  H121  238   6.393   6.934   1.125  0.9702  0.5312  1.3407
    1CHTO   C71  239   6.527   6.862   1.293 -0.1036 -0.3848 -0.1354
    1CHTO   O47  240   6.499   6.976   1.375  0.0078  0.0086  0.1494
    1CHTO  H104  241   6.493   6.951   1.465 -2.7272  1.4031  0.3921
    1CHTO   O34  242   6.686   7.099   0.891  0.4541  0.1266 -0.2621
    1CHTO   C49  243   6.835   7.156   0.931  0.8099 -0.4897 -0.6595
    1CHTO   H91  244   6.852   7.248   0.875 -0.8702  1.1257  1.4130
    1CHTO   C47  245   6.941   7.050   0.905  0.3546  0.2747  0.7014
    1CHTO   H89  246   6.973   7.069   0.800  1.2065  0.8694  1.0616
    1CHTO   O33  247   6.886   6.917   0.904 -0.1877 -0.5002  0.0609
    1CHTO   H70  248   6.876   6.873   0.986  1.7304 -0.1463  0.5069
    1CHTO   C45  249   7.073   7.057   0.997  0.4033 -0.1682 -0.5559
    1CHTO   H87  250   7.042   6.995   1.082  1.9855  1.2981  1.1350
    1CHTO    N8  251   7.197   6.996   0.941 -0.1435  0.1986  0.7312
    1CHTO   H75  252   7.272   7.072   0.921  1.3498 -0.9262  1.8934
    1CHTO   H76  253   7.182   6.931   0.856  1.5022  1.2454 -0.4122
    1CHTO   C43  254   7.091   7.203   1.062 -0.0295 -1.0393 -0.0432
    1CHTO   H85  255   7.179   7.207   1.126 -0.2591  3.2507  0.1150
    1CHTO   O29  256   6.969   7.242   1.133  0.3650 -0.8078 -0.0011
    1CHTO   C50  257   6.843   7.188   1.087  0.1914 -0.0816  0.5848
    1CHTO   H92  258   6.819   7.096   1.142 -0.8598  0.8665  1.7237
    1CHTO   C54  259   6.737   7.287   1.127  0.5865  0.2866 -0.1809
    1CHTO   O36  260   6.740   7.314   1.267  0.4908 -0.1214 -0.1249
    1CHTO   H72  261   6.677   7.266   1.318  0.8465 -0.8939 -0.4120
    1CHTO   O27  262   7.115   7.296   0.948  0.2251  0.2674  0.1491
    1CHTO   C37  263   7.165   7.400   0.871 -0.5511 -0.3129  0.6697
    1CHTO   H79  264   7.242   7.466   0.913 -0.6519  1.5658 -1.9332
    1CHTO   C38  265   7.242   7.349   0.745 -0.1399  0.4628 -0.5701
    1CHTO   H80  266   7.176   7.276   0.696 -1.6430  1.0916  0.4959
    1CHTO   O31  267   7.361   7.291   0.801  0.5450  0.2184  0.5850
    1CHTO   H68  268   7.442   7.329   0.773 -0.8785  2.9306 -0.0409
    1CHTO   C39  269   7.268   7.474   0.644  0.0523  0.3287 -0.2883
    1CHTO   H81  270   7.338   7.540   0.695 -0.7302 -0.4419  1.8475
    1CHTO    N7  271   7.343   7.439   0.524  0.4505  0.6832  0.7876
    1CHTO   H73  272   7.436   7.387   0.542  0.4311 -0.5945 -2.6062
    1CHTO   H74  273   7.272   7.378   0.471 -1.9237  2.8593  1.3690
    1CHTO   C40  274   7.147   7.562   0.615  1.0078 -0.0867  0.1303
    1CHTO   H82  275   7.071   7.520   0.549  2.0883  0.1477 -1.3050
    1CHTO   O26  276   7.094   7.603   0.744  0.0858  1.0034  0.8587
    1CHTO   C41  277   7.045   7.488   0.823 -0.1026  0.2436 -0.4862
    1CHTO   H83  278   6.986   7.416   0.766  1.0440 -1.5382  0.5205
    1CHTO   C52  279   6.962   7.547   0.938 -0.3714 -0.0333  0.2099
    1CHTO   O35  280   6.877   7.653   0.905 -0.1638 -0.1760 -1.0775
    1CHTO   H71  281   6.887   7.724   0.967 -4.1428  0.9189 -1.5479
    1CHTO   O28  282   7.176   7.692   0.562 -0.3084  0.2601  0.3473
    1CHTO   C42  283   7.124   7.768   0.454  0.0358 -0.6883  0.4970
    1CHTO   H84  284   7.029   7.725   0.422  1.2577 -2.4638 -0.8393
    1CHTO   C44  285   7.223   7.760   0.327 -0.3304  1.2901  0.3097
    1CHTO   H86  286   7.323   7.752   0.370 -2.3334  0.1629  5.1182
    1CHTO   O32  287   7.176   7.638   0.255 -0.0829  0.2701 -0.5784
    1CHTO   H69  288   7.135   7.579   0.315 -0.1611  0.2996 -0.6026
    1CHTO   C48  289   7.222   7.880   0.221  0.4428 -0.1152 -0.0449
    1CHTO   H90  290   7.245   7.835   0.125  2.5234  1.4178 -0.3144
    1CHTO    N9  291   7.334   7.982   0.253 -0.3537 -0.0581 -0.1744
    1CHTO   H77  292   7.424   7.922   0.252  1.5160  2.6772 -0.7281
    1CHTO   H78  293   7.331   8.069   0.189 -1.7712  0.1349  0.1483
    1CHTO   C51  294   7.076   7.947   0.215  0.5179  0.3562 -0.4232
    1CHTO   H93  295   7.087   8.025   0.140  0.4104 -0.9616 -1.8389
    1CHTO   O30  296   7.029   7.998   0.344 -0.3945 -0.5582 -0.1015
    1CHTO   C46  297   7.092   7.919   0.495 -0.0139 -0.3210 -0.4708
    1CHTO   H88  298   7.179   7.972   0.535  0.0958  0.8680 -2.2662
    1CHTO   C53  299   6.982   7.921   0.602 -0.3200 -0.2283  0.2729
    1CHTO   O72  300   6.936   8.056   0.605  0.4123  0.2725  0.1268
    1CHTO  H199  301   7.000   8.117   0.634 -0.2670  1.3773 -0.6424
    1CHTO   O22  302   6.977   7.853   0.172 -0.2065 -0.2047 -0.2562
    1CHTO   C31  303   6.882   7.885   0.062 -0.1202 -0.0577  0.4107
    1CHTO   H59  304   6.861   7.994   0.059  2.7909  0.5443  0.1595
    1CHTO   C29  305   6.945   7.844  -0.074 -0.8127 -0.6099  0.0232
    1CHTO   H57  306   6.984   7.742  -0.066  2.3587  0.6608  1.6384
    1CHTO   O21  307   7.055   7.934  -0.098  0.8423  0.1157 -0.0830
    1CHTO   H37  308   7.125   7.918  -0.038 -0.8230 -2.2829  1.3079
    1CHTO   C27  309   6.845   7.856  -0.196 -0.7601  0.4354 -0.2086
    1CHTO   H55  310   6.844   7.962  -0.225 -0.7202  0.1331 -1.3653
    1CHTO    N5  311   6.903   7.774  -0.305  0.1463  0.0020 -0.0738
    1CHTO   H43  312   6.921   7.827  -0.397  1.6692 -2.8657 -1.4883
    1CHTO   H44  313   6.856   7.677  -0.314  1.2370 -0.4922 -0.4323
    1CHTO   C25  314   6.700   7.819  -0.162  0.1843  0.3927 -0.5896
    1CHTO   H53  315   6.703   7.710  -0.150  1.4357  0.3627 -1.0312
    1CHTO   O17  316   6.662   7.866  -0.025 -0.5721  0.4643  0.0659
    1CHTO   C32  317   6.743   7.819   0.082 -0.2435  0.3184 -0.2530
    1CHTO   H60  318   6.756   7.711   0.078 -1.6477  0.0728  1.3115
    1CHTO   C36  319   6.678   7.873   0.211 -0.1499  0.7105 -0.2908
    1CHTO   O25  320   6.569   7.800   0.257  0.3560 -0.2354  0.5005
    1CHTO   H40  321   6.515   7.850   0.314 -1.7015 -0.1817 -1.4145
    1CHTO   O15  322   6.601   7.875  -0.266 -0.4822  0.1158  0.2620
    1CHTO   C19  323   6.501   7.804  -0.349 -0.4144 -0.3160 -0.3788
    1CHTO   H47  324   6.455   7.888  -0.403 -1.0918  0.5416  1.5044
    1CHTO   C20  325   6.575   7.709  -0.453  0.8670 -0.0152  0.1318
    1CHTO   H48  326   6.632   7.628  -0.406  1.7234  0.2863 -0.3711
    1CHTO   O19  327   6.658   7.793  -0.533 -0.5634 -0.1518  0.0293
    1CHTO   H35  328   6.722   7.834  -0.479 -0.1406 -0.9922  0.1769
    1CHTO   C21  329   6.463   7.627  -0.538  0.0046  0.4540 -0.8443
    1CHTO   H49  330   6.410   7.694  -0.606 -0.9963 -0.4799 -0.9826
    1CHTO    N4  331   6.526   7.517  -0.622  0.1953 -0.1587 -0.4609
    1CHTO   H41  332   6.605   7.547  -0.690  0.2456 -1.4254 -0.9963
    1CHTO   H42  333   6.459   7.453  -0.678  1.7402 -1.1136 -1.2448
    1CHTO   C22  334   6.358   7.569  -0.440  0.2977  0.0765  1.1662
    1CHTO   H50  335   6.408   7.506  -0.366 -1.0334  0.0782  2.0895
    1CHTO   O14  336   6.296   7.675  -0.360  0.3899 -0.0607 -0.6386
    1CHTO   C23  337   6.388   7.738  -0.270  0.4455  0.3066 -0.2944
    1CHTO   H51  338   6.426   7.655  -0.208  0.6634 -0.8071 -1.8819
    1CHTO   C34  339   6.321   7.839  -0.185 -0.3568  0.6484  0.2639
    1CHTO   O23  340   6.219   7.761  -0.113 -0.2251 -0.3990 -0.4484
    1CHTO   H38  341   6.156   7.824  -0.082  1.0587  0.9409 -0.4820
    1CHTO   O16  342   6.256   7.496  -0.508 -0.8487 -0.5245  0.4854
    1CHTO   C24  343   6.235   7.346  -0.464 -1.0805 -0.6640  0.0441
    1CHTO   H52  344   6.323   7.302  -0.417  0.5005  1.4668 -0.8780
    1CHTO   C26  345   6.186   7.261  -0.581  0.1799  0.5248  0.0889
    1CHTO   H54  346   6.099   7.310  -0.628 -0.5703 -1.0683 -0.2384
    1CHTO   O20  347   6.289   7.272  -0.680  0.2707  0.8254  0.0279
    1CHTO   H36  348   6.292   7.202  -0.743 -0.1865  1.2751 -0.4966
    1CHTO   C30  349   6.149   7.115  -0.542 -0.1979 -0.2115  0.1077
    1CHTO   H58  350   6.243   7.059  -0.528  0.2139  0.0226 -1.7086
    1CHTO    N6  351   6.085   7.047  -0.657  0.3539  0.0286  0.6125
    1CHTO   H45  352   6.007   7.111  -0.696  0.2994 -0.3558  0.0795
    1CHTO   H46  353   6.041   6.951  -0.634  1.1734 -0.7574 -1.0089
    1CHTO   C33  354   6.055   7.117  -0.417 -0.4052 -0.6390  0.1918
    1CHTO   H61  355   5.949   7.138  -0.439  0.4087  1.3170 -1.9659
    1CHTO   O18  356   6.095   7.216  -0.320  0.8640 -0.1507  0.4824
    1CHTO   C28  357   6.125   7.348  -0.358 -0.2927 -0.2073  0.4973
    1CHTO   H56  358   6.037   7.393  -0.404  0.8325  1.8873  0.2880
    1CHTO   C35  359   6.167   7.426  -0.229  0.0560 -0.1930  0.4524
    1CHTO   O24  360   6.265   7.361  -0.142  0.1688  0.2227 -0.0360
    1CHTO   H39  361   6.356   7.365  -0.162  0.8012  0.4096  2.6642
    1CHTO    O9  362   6.046   6.983  -0.364  0.2181  0.2944 -0.3999
    1CHTO   C13  363   6.030   6.945  -0.209 -0.1787  0.8048 -0.6402
    1CHTO   H26  364   5.966   7.017  -0.153  0.7111 -1.2831  3.1908
    1CHTO   C11  365   6.175   6.935  -0.143  0.1301 -0.4455 -0.4740
    1CHTO   H24  366   6.216   7.034  -0.122 -1.2971 -0.1429  0.9952
    1CHTO    O8  367   6.271   6.869  -0.235  0.2790 -0.3787 -0.0288
    1CHTO    H3  368   6.263   6.911  -0.318  0.0204 -2.0327 -0.8395
    1CHTO    C9  369   6.164   6.873  -0.001 -0.3454  0.2516  0.5864
    1CHTO   H22  370   6.086   6.932   0.049 -0.5708  0.5967 -0.1563
    1CHTO    N2  371   6.285   6.896   0.085  0.2352  0.2100 -0.6533
    1CHTO   H10  372   6.289   6.997   0.121  4.2104 -0.4756  1.1026
    1CHTO   H11  373   6.377   6.880   0.030  1.4182  0.0364  1.3105
    1CHTO    C7  374   6.119   6.723  -0.028  0.0109  0.6107  0.8878
    1CHTO   H20  375   6.041   6.710   0.050  0.8781  0.7083  1.7765
    1CHTO    O4  376   6.053   6.700  -0.155  0.2422 -0.4898  0.9327
    1CHTO   C14  377   5.965   6.805  -0.193 -0.0460 -0.4662 -0.3086
    1CHTO   H27  378   5.894   6.808  -0.108 -0.6297  1.0411 -0.8402
    1CHTO   C18  379   5.884   6.755  -0.317  0.5548  0.1315  0.5468
    1CHTO   O13  380   5.789   6.844  -0.365  0.5216  0.4703  0.0859
    1CHTO    H7  381   5.727   6.805  -0.424  0.3478  1.1521 -0.1924
    1CHTO    O2  382   6.232   6.621  -0.015  0.0806  0.4165 -0.2398
    1CHTO    C1  383   6.189   6.486  -0.031 -0.1481 -0.0169  0.2519
    1CHTO   H14  384   6.096   6.480  -0.091  0.2090 -1.6045 -0.1643
    1CHTO    C2  385   6.153   6.402   0.105 -0.0439 -0.4401  0.2236
    1CHTO   H15  386   6.243   6.408   0.168 -0.6352  0.8223  0.9935
    1CHTO    O6  387   6.040   6.472   0.165  0.1062 -0.0668 -0.0896
    1CHTO    H1  388   6.046   6.566   0.169 -2.4631  0.1091 -0.0769
    1CHTO    C3  389   6.114   6.254   0.068  0.3545 -0.5300 -0.3884
    1CHTO   H16  390   6.015   6.253   0.019 -1.3051  0.6696  2.7769
    1CHTO    N1  391   6.100   6.181   0.196 -0.9863  0.1214  0.0787
    1CHTO    H8  392   6.080   6.079   0.167  0.5186 -0.3073  0.5358
    1CHTO    H9  393   6.020   6.221   0.256 -3.1966 -0.3208 -2.4715
    1CHTO    C4  394   6.221   6.189  -0.031  1.0123 -0.8528 -0.8708
    1CHTO   H17  395   6.306   6.168   0.036  0.1130 -0.8304  0.2975
    1CHTO    O1  396   6.254   6.276  -0.140 -0.4010  0.9021 -0.8201
    1CHTO    C5  397   6.302   6.409  -0.108  0.7645 -0.9228  0.6873
    1CHTO   H18  398   6.384   6.405  -0.036 -0.1132 -1.4479  1.6635
    1CHTO   C16  399   6.341   6.481  -0.232 -0.3011 -0.7533  0.1485
    1CHTO   O11  400   6.242   6.484  -0.335 -0.0505 -0.1060 -0.1583
    1CHTO    H5  401   6.173   6.545  -0.316 -3.0339 -3.0576 -1.1306
    1CHTO    O3  402   6.167   6.064  -0.083 -0.0125  0.6581  0.3343
    1CHTO    C6  403   6.268   5.969  -0.140 -0.1798 -0.3009  0.1087
    1CHTO   H19  404   6.366   6.014  -0.156 -0.9840  1.3215 -0.3494
    1CHTO    C8  405   6.291   5.855  -0.033 -0.3925 -0.6908 -0.1034
    1CHTO   H21  406   6.190   5.823  -0.007 -0.5926 -1.0711 -1.3190
    1CHTO    O7  407   6.356   5.912   0.084  0.3139  0.2925  0.4765
    1CHTO    H2  408   6.432   5.961   0.057  0.8278 -0.2523  0.9116
    1CHTO   C12  409   6.378   5.742  -0.096 -0.6058 -0.0564  0.3097
    1CHTO   H25  410   6.474   5.785  -0.130 -0.3642 -0.7770  0.0705
    1CHTO    N3  411   6.419   5.638   0.000  0.4701 -0.4919  0.7516
    1CHTO   H12  412   6.379   5.646   0.100  0.4137 -1.1729  0.7901
    1CHTO   H13  413   6.411   5.538  -0.041  0.8299  0.2766 -1.2071
    1CHTO   C15  414   6.301   5.690  -0.226  0.1071 -1.0221 -0.1374
    1CHTO   H28  415   6.202   5.656  -0.195 -0.6357  1.2521  0.1317
    1CHTO   O10  416   6.371   5.562  -0.307  0.3900 -0.4540 -0.6345
    1CHTO    H4  417   6.426   5.521  -0.243  1.4164 -0.0044 -1.2216
    1CHTO    O5  418   6.301   5.798  -0.321  0.2513  0.9450  0.5179
    1CHTO   C10  419   6.226   5.918  -0.286  0.8708  0.3616 -1.3232
    1CHTO   H23  420   6.119   5.897  -0.288  0.7820  0.5928  0.2036
    1CHTO   C17  421   6.251   6.032  -0.380 -0.7543 -0.2039 -0.0803
    1CHTO   O12  422   6.152   6.135  -0.366 -0.5535  0.3040  0.5141
    1CHTO    H6  423   6.063   6.123  -0.390 -0.2187  1.5671 -1.4215
    2CHTO  H203  424   3.959   4.246   1.613 -0.3061  0.6570 -0.0877
    2CHTO   O82  425   3.900   4.311   1.646 -0.4907  0.4293  0.0368
    2CHTO  C123  426   3.908   4.427   1.561 -0.5684 -0.2978  0.1242
    2CHTO  H227  427   4.013   4.453   1.539 -1.4613  2.9812 -0.5196
    2CHTO   O77  428   3.838   4.383   1.444  0.4242 -0.0688 -0.4427
    2CHTO  C118  429   3.852   4.468   1.331 -0.2777  0.3619 -0.3528
    2CHTO  H222  430   3.961   4.480   1.316  0.2013 -0.8054  1.9044
    2CHTO  C125  431   3.782   4.392   1.210  0.1311  0.6921  0.2025
    2CHTO   O84  432   3.846   4.424   1.088  0.7006 -0.1514  0.1774
    2CHTO  H205  433   3.797   4.437   1.009  0.6579 -1.0176  0.0600
    2CHTO  C114  434   3.795   4.606   1.361 -0.0440 -0.1771  0.5361
    2CHTO  H218  435   3.686   4.600   1.363  0.0044 -1.6432 -0.3628
    2CHTO  C116  436   3.841   4.663   1.502 -0.4260 -0.3580 -0.6803
    2CHTO  H220  437   3.943   4.706   1.494  1.0806 -3.5871 -0.0311
    2CHTO   O79  438   3.768   4.778   1.528  0.3906  0.1245  0.4766
    2CHTO  H201  439   3.676   4.766   1.523  0.6217 -1.3938 -0.2595
    2CHTO  C120  440   3.833   4.557   1.615 -0.0794  0.0656  0.0855
    2CHTO  H224  441   3.726   4.540   1.640 -0.2767  3.7458  2.1308
    2CHTO   N21  442   3.893   4.610   1.741 -0.6124  0.2715  0.1846
    2CHTO  H211  443   3.823   4.670   1.798 -0.4089  0.0097  0.7131
    2CHTO  H212  444   3.929   4.521   1.791  0.4845  0.8564  0.4572
    2CHTO   O75  445   3.843   4.684   1.250 -0.0993 -0.3855  0.4069
    2CHTO  C112  446   3.777   4.813   1.209 -0.0085  0.8153 -0.5417
    2CHTO  H216  447   3.801   4.889   1.285 -0.2871 -0.0692  0.4430
    2CHTO   O73  448   3.637   4.790   1.201 -0.4284  0.0721  0.3228
    2CHTO  C113  449   3.564   4.907   1.195  0.8582  1.0517  0.6296
    2CHTO  H217  450   3.591   4.983   1.272  1.1639  0.4666  1.1024
    2CHTO  C124  451   3.422   4.861   1.221 -0.1537 -0.3272  0.4521
    2CHTO   O83  452   3.330   4.968   1.220  0.2371  0.1358 -0.1150
    2CHTO  H204  453   3.244   4.931   1.231  0.6619 -0.9306 -0.3262
    2CHTO  C109  454   3.576   4.969   1.057  0.1959 -0.6069  0.1348
    2CHTO  H213  455   3.527   4.905   0.982  0.8784 -0.9280 -0.0411
    2CHTO  C110  456   3.734   4.990   1.029  0.2702  0.2905 -0.3253
    2CHTO  H214  457   3.761   5.067   1.101  0.8694  1.2714 -1.5721
    2CHTO   O78  458   3.756   5.033   0.896  0.3302 -0.1182  0.1407
    2CHTO  H200  459   3.759   4.962   0.835 -0.2487 -0.9140  1.0364
    2CHTO  C111  460   3.821   4.863   1.063  0.5269 -0.3122 -0.4968
    2CHTO  H215  461   3.795   4.789   0.987 -2.1432  2.2454 -2.1658
    2CHTO   N19  462   3.969   4.893   1.053 -0.1021  0.0432  0.1438
    2CHTO  H207  463   4.001   4.935   0.959  1.1344 -1.3432 -0.0739
    2CHTO  H208  464   4.000   4.940   1.146  4.3300  0.0948 -1.2250
    2CHTO   O74  465   3.511   5.092   1.053  0.1185 -0.9567 -0.3783
    2CHTO  C115  466   3.421   5.106   0.910 -0.0645 -0.4349  0.6881
    2CHTO  H219  467   3.452   5.033   0.836 -0.2518  1.9211 -1.8055
    2CHTO   O76  468   3.271   5.073   0.940 -0.1410 -0.0045 -0.5555
    2CHTO  C122  469   3.206   5.166   1.026 -0.0191  0.4192 -0.4470
    2CHTO  H226  470   3.276   5.171   1.110 -0.1211 -1.1418 -0.2417
    2CHTO  C126  471   3.083   5.087   1.078 -0.8315  1.0605  0.4330
    2CHTO   O85  472   2.988   5.046   0.991 -0.2011  0.4057 -0.2697
    2CHTO  H206  473   2.933   5.121   0.980  0.6949  1.0086 -0.6667
    2CHTO  C121  474   3.187   5.297   0.953  0.0064  0.6889 -0.5979
    2CHTO  H225  475   3.084   5.318   0.919 -0.7783  1.3178  2.0099
    2CHTO   O81  476   3.207   5.404   1.046 -0.1988 -0.0331  0.9657
    2CHTO  H202  477   3.136   5.407   1.108 -2.1825 -2.0696 -1.1164
    2CHTO  C119  478   3.281   5.315   0.828  0.5311  0.1079 -0.2952
    2CHTO  H223  479   3.227   5.259   0.752  0.3731  1.5462 -1.2714
    2CHTO  C117  480   3.423   5.252   0.854  0.5904 -0.0544  1.0385
    2CHTO  H221  481   3.477   5.301   0.935  1.3023 -1.4618  1.4230
    2CHTO   N20  482   3.500   5.268   0.726  0.6025 -0.1902 -0.1662
    2CHTO  H209  483   3.605   5.244   0.738  0.4385 -0.9063 -0.1040
    2CHTO  H210  484   3.451   5.201   0.658  2.6107 -1.8025 -0.0874
    2CHTO   O80  485   3.274   5.465   0.766 -0.2873 -0.0048 -0.0002
    2CHTO  C103  486   3.138   5.515   0.707 -0.6904  0.2364 -0.1029
    2CHTO  H190  487   3.085   5.429   0.666 -1.1963  0.9181 -0.9113
    2CHTO  C101  488   3.049   5.607   0.801  0.3353  0.6164  0.1034
    2CHTO  H188  489   3.107   5.683   0.853 -1.0337 -0.4794  3.4093
    2CHTO   O68  490   2.964   5.521   0.911  0.0878 -0.3714  0.3785
    2CHTO  H168  491   3.016   5.489   0.983  1.9029  1.4922 -0.0661
    2CHTO   C99  492   2.938   5.684   0.708  0.0361  0.2270 -0.6549
    2CHTO  H186  493   2.862   5.611   0.676  0.5252 -0.8045  0.5234
    2CHTO   N17  494   2.863   5.794   0.787 -0.0289  0.7636  0.3562
    2CHTO  H174  495   2.775   5.750   0.832 -0.3894  1.2678  0.1424
    2CHTO  H175  496   2.931   5.840   0.857  0.1404  0.6626  0.2583
    2CHTO   C97  497   2.996   5.743   0.580  0.5404 -0.3672  0.1437
    2CHTO  H184  498   3.053   5.830   0.615  0.2526  0.0524 -0.4381
    2CHTO   O64  499   3.076   5.655   0.500 -0.0249  0.2997 -0.1305
    2CHTO  C104  500   3.184   5.604   0.581  0.3800 -0.2169  0.3107
    2CHTO  H191  501   3.234   5.694   0.619  1.9797 -0.8317 -0.3196
    2CHTO  C108  502   3.292   5.531   0.494 -0.1063  0.1734  0.5301
    2CHTO   O71  503   3.362   5.610   0.398 -0.3886  0.9785 -0.6761
    2CHTO  H171  504   3.453   5.607   0.419 -0.4286 -0.4762 -0.6134
    2CHTO   O62  505   2.897   5.780   0.482 -0.9801 -0.2832  0.4025
    2CHTO   C91  506   2.906   5.911   0.425  0.7037  0.1945  0.5540
    2CHTO  H178  507   2.927   5.975   0.510 -0.7057  1.3380  0.0628
    2CHTO   C92  508   2.768   5.958   0.360 -0.2464  0.0178  0.1476
    2CHTO  H179  509   2.680   5.931   0.419 -0.8430  0.3466 -0.5868
    2CHTO   O66  510   2.766   6.100   0.344  0.2646 -0.1360  0.7170
    2CHTO  H166  511   2.721   6.145   0.412  0.6196  1.3777 -0.0398
    2CHTO   C93  512   2.744   5.896   0.216 -0.9819 -0.4064  0.5310
    2CHTO  H180  513   2.661   5.953   0.172 -1.0236 -0.9855 -0.1520
    2CHTO   N16  514   2.690   5.757   0.224  0.6802 -0.3422 -0.3278
    2CHTO  H172  515   2.745   5.682   0.170 -1.8452 -0.6715 -2.5598
    2CHTO  H173  516   2.657   5.729   0.323  1.6117 -0.3261 -0.0049
    2CHTO   C94  517   2.877   5.914   0.122 -0.7719 -0.5171  0.1895
    2CHTO  H181  518   2.927   5.819   0.101  0.5392 -0.2051  1.8202
    2CHTO   O61  519   2.979   5.987   0.196  0.3713  0.3235 -0.4341
    2CHTO   C95  520   3.019   5.929   0.323 -0.2841  0.2813 -0.1222
    2CHTO  H182  521   3.067   5.833   0.305  0.9249  0.6973  0.7492
    2CHTO  C106  522   3.140   6.012   0.382 -0.6026  0.0034 -0.2325
    2CHTO   O69  523   3.249   6.006   0.285  0.0396 -0.4376 -0.1031
    2CHTO  H169  524   3.263   6.089   0.244 -0.3401  0.8514  2.2726
    2CHTO   O63  525   2.850   5.993  -0.014  0.0363  0.7226  0.0112
    2CHTO   C96  526   2.793   6.153   0.010 -0.4477  0.5761  0.0485
    2CHTO  H183  527   2.770   6.164   0.116  1.2419  1.5590  0.3317
    2CHTO   C98  528   2.670   6.186  -0.084 -0.0718 -0.4552 -0.3877
    2CHTO  H185  529   2.688   6.163  -0.190 -0.1034 -1.2940 -0.2171
    2CHTO   O67  530   2.552   6.115  -0.054  0.2093  0.2866  0.2245
    2CHTO  H167  531   2.536   6.118   0.038  1.1684 -0.0908  0.4103
    2CHTO  C102  532   2.654   6.352  -0.077  0.7405  0.0492  0.4052
    2CHTO  H189  533   2.647   6.380   0.029 -1.5045  1.3458 -0.0497
    2CHTO   N18  534   2.534   6.411  -0.139  0.4131 -0.0454  0.0386
    2CHTO  H176  535   2.483   6.478  -0.071  1.9148  1.7512 -0.5841
    2CHTO  H177  536   2.459   6.336  -0.162  1.3930 -0.7490 -0.8756
    2CHTO  C105  537   2.778   6.415  -0.134 -1.0156  0.5426 -0.1498
    2CHTO  H192  538   2.763   6.420  -0.242 -1.1465 -1.0025 -0.2051
    2CHTO   O65  539   2.901   6.345  -0.129 -0.0388  0.4619  0.3172
    2CHTO  C100  540   2.923   6.246  -0.024  0.1641  0.5326 -0.1565
    2CHTO  H187  541   3.003   6.181  -0.061 -0.7863 -1.5026  1.2683
    2CHTO  C107  542   2.984   6.313   0.103 -0.7432 -0.4878 -0.3858
    2CHTO   O70  543   2.887   6.382   0.184 -0.1935  0.1156 -0.4912
    2CHTO  H170  544   2.919   6.415   0.265 -0.8273 -0.8628  0.1680
    2CHTO   O57  545   2.784   6.564  -0.067  0.1583  0.1136 -0.4568
    2CHTO   C85  546   2.825   6.677  -0.141 -0.2063 -0.5108 -0.2311
    2CHTO  H157  547   2.761   6.674  -0.231 -1.9407  0.5261  0.9223
    2CHTO   C83  548   2.966   6.644  -0.195  0.1107  0.2884 -0.2525
    2CHTO  H155  549   2.966   6.559  -0.262 -1.9138  1.8365 -2.3026
    2CHTO   O56  550   3.061   6.611  -0.087 -0.3866  0.2356 -0.4373
    2CHTO  H135  551   3.136   6.666  -0.081 -0.4278  0.1427  1.2062
    2CHTO   C81  552   2.995   6.773  -0.278  0.7640  0.6245 -0.0092
    2CHTO  H153  553   2.915   6.788  -0.350  1.2664 -1.1606 -0.9545
    2CHTO   N14  554   3.119   6.762  -0.360  0.4471  0.0794  0.2589
    2CHTO  H141  555   3.155   6.662  -0.363  1.9319  0.6587 -2.0476
    2CHTO  H142  556   3.114   6.807  -0.457  0.4714 -2.8359 -1.1317
    2CHTO   C79  557   3.010   6.898  -0.185  0.1552  0.0214  0.4324
    2CHTO  H151  558   3.038   6.983  -0.248 -1.8989 -0.0655 -0.6561
    2CHTO   O52  559   2.882   6.934  -0.120  0.2623  0.2513  0.0695
    2CHTO   C86  560   2.817   6.819  -0.060  0.1312 -0.2763  0.1432
    2CHTO  H158  561   2.867   6.803   0.037  1.3627  2.2380 -0.0505
    2CHTO   C90  562   2.675   6.859  -0.025  0.2327  0.4122 -0.4140
    2CHTO   O60  563   2.596   6.758   0.045 -0.1669 -0.6258  0.0443
    2CHTO  H138  564   2.626   6.748   0.133 -3.3192 -1.0902  1.1224
    2CHTO   O50  565   3.110   6.891  -0.083 -0.8725  0.2938  0.2902
    2CHTO   C73  566   3.203   6.942   0.016  0.4845  0.1427 -0.4595
    2CHTO  H145  567   3.206   7.052   0.012  0.1584  0.1142 -1.5934
    2CHTO   C74  568   3.338   6.893  -0.033  0.0964  0.5768 -0.1684
    2CHTO  H146  569   3.358   6.919  -0.138 -0.8238  0.4281 -0.3823
    2CHTO   O54  570   3.437   6.978   0.033 -1.1247  0.7217  0.6311
    2CHTO  H133  571   3.516   6.986  -0.017 -0.9820 -0.4705  0.6377
    2CHTO   C75  572   3.355   6.734  -0.004 -0.3692 -0.3996 -0.1651
    2CHTO  H147  573   3.291   6.672  -0.069 -2.0038  2.1175 -1.0064
    2CHTO   N13  574   3.484   6.678  -0.045  0.2213  0.7007  0.3017
    2CHTO  H139  575   3.537   6.632   0.037  1.6607  0.8200 -0.5612
    2CHTO  H140  576   3.539   6.760  -0.088 -2.0953  1.3801 -1.4846
    2CHTO   C76  577   3.305   6.704   0.152 -0.1549  0.3063  0.7234
    2CHTO  H148  578   3.375   6.753   0.219 -1.3541  1.5624  1.0779
    2CHTO   O49  579   3.174   6.765   0.181  0.1370 -0.3618 -0.2022
    2CHTO   C77  580   3.177   6.904   0.165  0.0389 -0.2465  1.0231
    2CHTO  H149  581   3.261   6.937   0.225  0.8959  1.7151 -1.1613
    2CHTO   C88  582   3.048   6.961   0.221 -0.4131  0.2186  0.2773
    2CHTO   O58  583   3.071   6.978   0.378 -0.0842  0.4182  0.1175
    2CHTO  H136  584   3.159   7.010   0.387  0.7003 -1.3884 -0.8722
    2CHTO   O51  585   3.271   6.555   0.172  0.2581 -0.2652 -0.2280
    2CHTO   C78  586   3.341   6.502   0.308 -0.1004 -0.0326  0.5976
    2CHTO  H150  587   3.370   6.590   0.370 -4.5192  0.6828  1.8083
    2CHTO   C80  588   3.472   6.429   0.265  0.0875  0.0284  0.0335
    2CHTO  H152  589   3.441   6.364   0.180 -0.6596  2.4630 -1.5929
    2CHTO   O55  590   3.561   6.533   0.228  0.2811 -0.0853 -0.0876
    2CHTO  H134  591   3.600   6.570   0.305  2.7466 -0.4377 -1.0947
    2CHTO   C84  592   3.531   6.351   0.392  0.1850 -0.7241  0.6885
    2CHTO  H156  593   3.565   6.427   0.463 -0.7060  1.5426 -1.2796
    2CHTO   N15  594   3.664   6.277   0.358  0.1369 -0.1253  0.1641
    2CHTO  H143  595   3.633   6.192   0.300  0.2104  0.5020 -0.8019
    2CHTO  H144  596   3.725   6.254   0.443  0.0268  1.5456  0.7252
    2CHTO   C87  597   3.428   6.266   0.472  0.1716  0.2484 -0.5350
    2CHTO  H159  598   3.395   6.181   0.412 -0.4587  1.0035 -1.2854
    2CHTO   O53  599   3.313   6.362   0.501 -0.0483 -0.2387 -0.0029
    2CHTO   C82  600   3.247   6.408   0.380  0.3539  0.5454 -0.7987
    2CHTO  H154  601   3.227   6.321   0.318 -1.5895  0.0538  0.4735
    2CHTO   C89  602   3.108   6.475   0.410  0.3031 -0.8355  0.5348
    2CHTO   O59  603   3.010   6.389   0.470 -0.2632  0.4162 -0.2118
    2CHTO  H137  604   2.924   6.425   0.467 -0.4211 -0.0644 -1.7798
    2CHTO   O45  605   3.485   6.220   0.624  0.3598 -0.2032 -0.1596
    2CHTO   C67  606   3.399   6.242   0.741  0.4192 -0.5908  0.3345
    2CHTO  H124  607   3.341   6.333   0.730  0.6279 -0.7278 -2.0329
    2CHTO   C65  608   3.303   6.117   0.763 -0.2984  0.4575  0.0777
    2CHTO  H122  609   3.341   6.022   0.725  3.1184  0.8813  2.2159
    2CHTO   O44  610   3.189   6.143   0.679 -0.0050 -0.0074 -0.4568
    2CHTO  H102  611   3.142   6.063   0.666 -1.4787  0.7958 -0.1046
    2CHTO   C63  612   3.278   6.085   0.917  0.3521  0.0755  0.1270
    2CHTO  H120  613   3.355   6.014   0.946 -1.6314 -1.7658  1.1153
    2CHTO   N11  614   3.160   6.000   0.939  0.1883  0.2151 -0.4976
    2CHTO  H108  615   3.165   5.902   0.896  0.6532 -0.8543  1.9036
    2CHTO  H109  616   3.075   6.046   0.892  0.6797  1.3009 -0.3322
    2CHTO   C61  617   3.280   6.221   1.005 -0.2026 -0.3222  0.2017
    2CHTO  H118  618   3.274   6.182   1.107 -2.0784  0.1871  0.3100
    2CHTO   O40  619   3.410   6.287   0.992 -0.0937 -0.1554 -0.3209
    2CHTO   C68  620   3.486   6.255   0.878 -0.4718 -0.0774 -0.2046
    2CHTO  H125  621   3.534   6.155   0.886 -0.3772 -0.0393 -0.2805
    2CHTO   C72  622   3.596   6.359   0.856  0.4635 -0.3535 -0.5477
    2CHTO   O48  623   3.702   6.310   0.774  0.0729  0.0503 -0.9751
    2CHTO  H105  624   3.761   6.380   0.756 -2.7037  2.8457  0.1847
    2CHTO   O38  625   3.166   6.309   0.985 -0.0752 -0.0409  0.8169
    2CHTO   C55  626   3.139   6.419   1.078  0.3119 -0.0970 -0.7340
    2CHTO  H112  627   3.237   6.431   1.127  0.4205 -2.4841 -0.2676
    2CHTO   C56  628   3.024   6.393   1.189  0.6821  0.0364 -0.2648
    2CHTO  H113  629   2.932   6.348   1.149 -1.4667  1.6673  2.6250
    2CHTO   O42  630   3.073   6.298   1.286  0.2699  0.0727  0.9627
    2CHTO  H100  631   3.066   6.324   1.376 -0.1992 -0.3024  1.0349
    2CHTO   C57  632   2.981   6.532   1.258  0.3327 -0.6373 -0.2182
    2CHTO  H114  633   3.073   6.562   1.307 -0.8319  0.3439  1.4236
    2CHTO   N10  634   2.873   6.519   1.363  0.7884  0.5254 -0.0101
    2CHTO  H106  635   2.812   6.608   1.355 -0.7955 -0.6034 -0.8318
    2CHTO  H107  636   2.917   6.516   1.461 -0.1571  0.7002  0.4213
    2CHTO   C58  637   2.945   6.632   1.144  0.3581 -0.2558 -0.5694
    2CHTO  H115  638   2.864   6.591   1.080  0.3732 -0.6735 -0.3213
    2CHTO   O37  639   3.067   6.662   1.072  0.0386 -0.1366  0.0137
    2CHTO   C59  640   3.108   6.547   0.995 -0.2411 -0.1459  0.7195
    2CHTO  H116  641   3.022   6.522   0.934 -2.2045  2.7936  2.1732
    2CHTO   C70  642   3.242   6.580   0.926 -0.5198 -0.5038  0.8606
    2CHTO   O46  643   3.239   6.692   0.839 -0.0242 -0.0999 -0.2342
    2CHTO  H103  644   3.164   6.696   0.782 -2.0089  3.1207  2.4712
    2CHTO   O39  645   2.906   6.775   1.196 -0.5416  0.0286 -1.1705
    2CHTO   C60  646   2.797   6.854   1.135 -0.8680  0.1145  0.9667
    2CHTO  H117  647   2.761   6.798   1.049  0.9749 -0.0072  0.2578
    2CHTO   C62  648   2.678   6.876   1.235 -0.5769  0.4030 -0.0778
    2CHTO  H119  649   2.641   6.774   1.259  2.3899 -0.8556 -0.6418
    2CHTO   O43  650   2.725   6.940   1.354 -0.8007 -0.3559 -0.1057
    2CHTO  H101  651   2.782   7.010   1.325  0.3764 -1.2834 -0.0690
    2CHTO   C66  652   2.568   6.956   1.160 -0.1948 -0.0952 -0.2355
    2CHTO  H123  653   2.551   6.914   1.061 -1.1878 -1.0555  0.3440
    2CHTO   N12  654   2.441   6.965   1.240  0.0222  0.3408 -0.6895
    2CHTO  H110  655   2.468   7.032   1.320  1.8416 -1.1496  0.0020
    2CHTO  H111  656   2.416   6.870   1.285 -0.1297  0.4781 -0.4849
    2CHTO   C69  657   2.623   7.097   1.120  0.9864  0.4782 -0.0251
    2CHTO  H126  658   2.656   7.147   1.213 -2.0040 -1.4815  2.2167
    2CHTO   O41  659   2.755   7.081   1.029  0.6116  0.7129 -0.5102
    2CHTO   C64  660   2.859   6.990   1.085  0.5867 -0.4523 -0.3012
    2CHTO  H121  661   2.916   7.032   1.170 -0.9326 -1.4767  1.2595
    2CHTO   C71  662   2.961   6.971   0.967 -0.2713 -0.0875  0.0030
    2CHTO   O47  663   2.907   6.951   0.833  0.0595  0.3422  0.1188
    2CHTO  H104  664   2.949   6.986   0.757 -3.5408 -1.6691 -2.9275
    2CHTO   O34  665   2.519   7.178   1.040  0.6662  0.2080 -0.2218
    2CHTO   C49  666   2.490   7.326   1.053 -0.1072 -0.1403 -0.2800
    2CHTO   H91  667   2.436   7.341   1.147  1.1209 -0.4448  0.4777
    2CHTO   C47  668   2.396   7.369   0.935  0.5826  0.8319 -0.6394
    2CHTO   H89  669   2.370   7.476   0.948 -0.1014  0.6885 -0.7815
    2CHTO   O33  670   2.277   7.292   0.940  0.4331 -0.4668 -0.9031
    2CHTO   H70  671   2.235   7.308   1.022  0.7853 -3.6616 -0.0194
    2CHTO   C45  672   2.473   7.356   0.794 -0.2037 -0.0480 -0.7147
    2CHTO   H87  673   2.513   7.254   0.785 -1.4898 -0.6075 -0.2728
    2CHTO    N8  674   2.388   7.385   0.672  0.3781  0.4898  0.4651
    2CHTO   H75  675   2.376   7.300   0.606  0.2515  0.1916  0.8703
    2CHTO   H76  676   2.418   7.465   0.607 -1.1279  0.5373 -0.2044
    2CHTO   C43  677   2.596   7.460   0.798 -0.4492 -0.0505 -0.6629
    2CHTO   H85  678   2.657   7.445   0.709 -1.0395  1.8962 -1.4152
    2CHTO   O29  679   2.673   7.434   0.919  0.0804  0.3338  0.6257
    2CHTO   C50  680   2.614   7.416   1.049  0.5139 -0.6712 -0.3951
    2CHTO   H92  681   2.676   7.365   1.125 -0.0571  0.7892  1.0631
    2CHTO   C54  682   2.590   7.556   1.116 -0.0942  0.1449 -1.0242
    2CHTO   O36  683   2.707   7.628   1.161 -0.0071  0.2359 -0.3918
    2CHTO   H72  684   2.750   7.572   1.222  0.1638 -0.3494 -1.0471
    2CHTO   O27  685   2.559   7.600   0.806  0.4469 -0.2254 -0.2740
    2CHTO   C37  686   2.585   7.716   0.726  0.1134 -0.1885  0.2547
    2CHTO   H79  687   2.620   7.686   0.626  1.4773  4.0093 -0.6301
    2CHTO   C38  688   2.449   7.794   0.695 -0.1669  0.4187  0.4484
    2CHTO   H80  689   2.396   7.810   0.790 -0.0146 -4.0319  1.3786
    2CHTO   O31  690   2.368   7.707   0.612 -0.4354  0.0185 -0.5178
    2CHTO   H68  691   2.279   7.713   0.638 -0.4674  0.4035 -0.7122
    2CHTO   C39  692   2.471   7.930   0.620 -0.1873  0.2754  0.5581
    2CHTO   H81  693   2.515   7.907   0.523  0.2213 -2.5664  1.3775
    2CHTO    N7  694   2.344   8.013   0.606 -0.1409  0.1684 -0.3827
    2CHTO   H73  695   2.365   8.115   0.578 -1.0298  0.6266  0.5684
    2CHTO   H74  696   2.270   7.965   0.543  1.5949 -1.1362 -1.4860
    2CHTO   C40  697   2.577   8.010   0.708 -0.0904 -0.1132  0.2242
    2CHTO   H82  698   2.543   8.034   0.808  1.3982  2.0286  0.2642
    2CHTO   O26  699   2.704   7.937   0.711 -0.2839  0.1735  0.5509
    2CHTO   C41  700   2.685   7.820   0.791  0.4280 -0.9756 -0.1480
    2CHTO   H83  701   2.654   7.849   0.893  0.6579  1.3327 -0.7147
    2CHTO   C52  702   2.814   7.753   0.822  0.1483  0.2184  0.7008
    2CHTO   O35  703   2.883   7.682   0.714  0.1620  0.1372 -0.2561
    2CHTO   H71  704   2.931   7.747   0.666 -0.8765  0.6696 -0.5967
    2CHTO   O28  705   2.619   8.138   0.650  0.4436 -0.1940  0.1296
    2CHTO   C42  706   2.724   8.222   0.701  0.3124  0.1573 -0.2108
    2CHTO   H84  707   2.715   8.316   0.647 -0.0563 -0.4685 -1.2610
    2CHTO   C44  708   2.874   8.174   0.683  0.2236  0.4380 -0.4710
    2CHTO   H86  709   2.889   8.077   0.731 -1.2535  0.2762 -0.3195
    2CHTO   O32  710   2.898   8.173   0.538 -0.1776 -0.4896 -0.5601
    2CHTO   H69  711   2.831   8.122   0.496 -2.0643  2.4640 -1.2918
    2CHTO   C48  712   2.982   8.274   0.750  0.3181 -0.6340 -0.0405
    2CHTO   H90  713   2.974   8.363   0.688 -2.8307 -0.5964  0.3608
    2CHTO    N9  714   3.122   8.224   0.740 -0.9040 -0.1854 -0.3202
    2CHTO   H77  715   3.192   8.284   0.798 -1.7211  1.6794 -1.2177
    2CHTO   H78  716   3.158   8.214   0.639 -0.4467 -0.6383 -0.1202
    2CHTO   C51  717   2.946   8.306   0.905  0.4590 -0.2222 -0.2913
    2CHTO   H93  718   2.958   8.210   0.955  0.5020  0.9874  2.1104
    2CHTO   O30  719   2.810   8.353   0.906  0.3733  0.2305 -0.0649
    2CHTO   C46  720   2.708   8.263   0.853  1.1018 -0.0778  0.3958
    2CHTO   H88  721   2.718   8.174   0.915  0.8967  1.0388  2.0770
    2CHTO   C53  722   2.583   8.336   0.893  0.0151  0.2779  0.2722
    2CHTO   O72  723   2.557   8.318   1.032  0.3507 -0.1261  0.1792
    2CHTO  H199  724   2.537   8.229   1.056 -0.4022  0.5564  2.1890
    2CHTO   O22  725   3.036   8.401   0.969  0.0715  0.2478 -0.5333
    2CHTO   C31  726   3.031   8.416   1.116  0.3274  0.9484  0.3430
    2CHTO   H59  727   3.093   8.503   1.143  1.4084  0.0027  0.9684
    2CHTO   C29  728   2.890   8.431   1.179 -0.0810 -1.3205  0.0603
    2CHTO   H57  729   2.822   8.349   1.151 -3.4373  1.8568 -1.4873
    2CHTO   O21  730   2.837   8.551   1.116  0.2206 -0.3345  0.7542
    2CHTO   H37  731   2.803   8.613   1.176 -0.4720  0.9242 -0.8889
    2CHTO   C27  732   2.885   8.443   1.337  0.1064  0.1298  0.3299
    2CHTO   H55  733   2.950   8.526   1.369  1.4139  0.0090 -1.9308
    2CHTO    N5  734   2.748   8.458   1.394 -0.0545  0.3460  0.1769
    2CHTO   H43  735   2.677   8.482   1.315  0.2921  0.1494 -0.1927
    2CHTO   H44  736   2.717   8.364   1.437  1.7341 -1.0001 -1.4136
    2CHTO   C25  737   2.966   8.321   1.385 -0.7368  0.0350  0.9015
    2CHTO   H53  738   2.905   8.233   1.359 -0.0228 -0.5967  1.3580
    2CHTO   O17  739   3.097   8.321   1.324  0.2307 -0.7527  0.0827
    2CHTO   C32  740   3.099   8.294   1.183  0.0916 -0.5355 -0.3275
    2CHTO   H60  741   3.047   8.201   1.160  0.9300 -1.8962  3.0025
    2CHTO   C36  742   3.255   8.283   1.131 -0.3156  0.8272 -1.2855
    2CHTO   O25  743   3.323   8.181   1.201 -1.1525 -0.4377  0.0517
    2CHTO   H40  744   3.319   8.193   1.294 -1.5108 -2.2546  0.2925
    2CHTO   O15  745   3.007   8.323   1.541 -0.2195 -0.5018 -0.4768
    2CHTO   C19  746   3.041   8.231   1.653 -0.3360  0.0026  0.7676
    2CHTO   H47  747   2.975   8.143   1.648 -0.7865  0.3801 -0.0605
    2CHTO   C20  748   3.188   8.177   1.655 -0.9839  0.5252  0.0350
    2CHTO   H48  749   3.265   8.255   1.665  0.2935 -0.7425  0.2622
    2CHTO   O19  750   3.223   8.102   1.531 -0.0894 -0.1704 -0.1192
    2CHTO   H35  751   3.209   8.157   1.457 -1.9452  0.3708  0.5869
    2CHTO   C21  752   3.212   8.076   1.780 -0.2988 -0.0091  0.2769
    2CHTO   H49  753   3.141   7.993   1.776 -0.4555  0.2096 -2.0575
    2CHTO    N4  754   3.356   8.025   1.784  0.0286  0.0965 -0.0764
    2CHTO   H41  755   3.345   7.927   1.827 -0.7271  0.5566  0.7882
    2CHTO   H42  756   3.379   8.020   1.679 -1.0080 -0.6826 -0.2819
    2CHTO   C22  757   3.173   8.150   1.910  0.0526 -0.2191 -0.2447
    2CHTO   H50  758   3.244   8.227   1.937  0.7439 -0.7742 -0.4702
    2CHTO   O14  759   3.037   8.198   1.892  0.1761 -0.1525 -0.4957
    2CHTO   C23  760   3.011   8.296   1.792  0.5653 -0.0623 -0.2147
    2CHTO   H51  761   3.077   8.382   1.811 -0.4357  0.1195  2.5973
    2CHTO   C34  762   2.866   8.335   1.811 -0.3798  0.3524 -0.0495
    2CHTO   O23  763   2.769   8.234   1.810  0.2497 -0.4063  0.2546
    2CHTO   H38  764   2.769   8.179   1.887 -0.1046 -1.1815 -0.2938
    2CHTO   O16  765   3.156   8.056   2.025  0.7761 -0.7760 -0.5760
    2CHTO   C24  766   3.188   8.127   2.166  0.3986  0.2590  0.5565
    2CHTO   H52  767   3.185   8.235   2.158  0.4309  0.1889 -0.4425
    2CHTO   C26  768   3.325   8.083   2.222 -0.4562 -0.9463  0.2653
    2CHTO   H54  769   3.334   7.973   2.210  0.6824 -0.6905 -1.4747
    2CHTO   O20  770   3.419   8.145   2.134 -0.5871 -0.2129 -0.1561
    2CHTO   H36  771   3.441   8.091   2.060  1.3586 -0.4480  0.5685
    2CHTO   C30  772   3.359   8.131   2.364  0.3889  0.0486  0.4072
    2CHTO   H58  773   3.373   8.239   2.354  1.6684 -0.3582 -2.6784
    2CHTO    N6  774   3.483   8.077   2.422 -0.5271 -0.0900  0.3176
    2CHTO   H45  775   3.568   8.104   2.361 -0.0488  0.9882  1.4590
    2CHTO   H46  776   3.499   8.121   2.519  0.6889 -1.4375  0.7484
    2CHTO   C33  777   3.236   8.114   2.457  0.5293 -0.0252  0.2112
    2CHTO   H61  778   3.226   8.009   2.486 -0.2686  0.1347  0.5479
    2CHTO   O18  779   3.116   8.153   2.395 -1.1107 -0.1883 -0.3222
    2CHTO   C28  780   3.087   8.082   2.272  0.8611 -0.2855  0.5039
    2CHTO   H56  781   3.095   7.975   2.288 -2.1663 -0.3038  2.2948
    2CHTO   C35  782   2.944   8.106   2.225 -0.2024  0.3747  0.6607
    2CHTO   O24  783   2.846   8.033   2.306 -0.5238  0.7637  0.0303
    2CHTO   H39  784   2.892   7.976   2.365 -0.1307 -0.7315 -1.6758
    2CHTO    O9  785   3.256   8.186   2.581 -0.4090 -0.0677 -0.1330
    2CHTO   C13  786   3.175   8.164   2.698  0.0636 -0.2339 -0.0555
    2CHTO   H26  787   3.180   8.055   2.716 -1.0104 -0.4537 -1.0357
    2CHTO   C11  788   3.028   8.215   2.684  0.2643  0.1217  0.2394
    2CHTO   H24  789   2.974   8.158   2.607 -0.2014 -0.0875  0.7127
    2CHTO    O8  790   3.030   8.357   2.641 -0.0884 -0.0465  0.6252
    2CHTO    H3  791   3.092   8.365   2.572 -0.3901 -0.6537  0.2774
    2CHTO    C9  792   2.959   8.190   2.816 -0.3602 -0.2937  0.2908
    2CHTO   H22  793   2.970   8.085   2.847  0.4292 -0.3401 -0.1383
    2CHTO    N2  794   2.812   8.201   2.814  0.1867  0.7668  0.4204
    2CHTO   H10  795   2.769   8.150   2.899  0.9649 -1.4013 -0.4530
    2CHTO   H11  796   2.778   8.303   2.801  0.1479  0.5571 -1.1885
    2CHTO    C7  797   3.031   8.274   2.929  0.8684  0.2695 -0.4081
    2CHTO   H20  798   2.978   8.236   3.019 -0.7255 -0.4506 -1.6130
    2CHTO    O4  799   3.165   8.232   2.939  0.0349  0.4061  0.4705
    2CHTO   C14  800   3.253   8.223   2.826 -0.1905 -0.1678  0.1084
    2CHTO   H27  801   3.339   8.157   2.850  0.0070  0.5639  1.4930
    2CHTO   C18  802   3.311   8.364   2.812  0.1642 -0.2609  0.0244
    2CHTO   O13  803   3.444   8.345   2.766 -0.3438 -0.7326 -0.0313
    2CHTO    H7  804   3.505   8.416   2.756 -2.2087  0.6958 -1.5776
    2CHTO    O2  805   3.016   8.447   2.924  0.2069  0.4738 -0.1697
    2CHTO    C1  806   2.994   8.491   3.062  0.8247 -0.0010  0.1214
    2CHTO   H14  807   3.031   8.416   3.134 -0.8945  0.9718  2.0550
    2CHTO    C2  808   2.834   8.515   3.084  0.3333  0.6494  0.3682
    2CHTO   H15  809   2.800   8.589   3.010  2.2043  0.1807 -1.0016
    2CHTO    O6  810   2.763   8.393   3.056 -0.2139  0.6695  0.2453
    2CHTO    H1  811   2.813   8.316   3.073 -0.3249  0.4093 -0.6125
    2CHTO    C3  812   2.798   8.571   3.236 -0.4279  0.2808  0.6160
    2CHTO   H16  813   2.807   8.485   3.304  0.0614 -0.3430 -0.2297
    2CHTO    N1  814   2.663   8.633   3.245  0.5948  0.6374  0.2333
    2CHTO    H8  815   2.642   8.647   3.350 -0.2192  1.0185  0.0195
    2CHTO    H9  816   2.581   8.581   3.199  0.7028  2.9090 -2.6249
    2CHTO    C4  817   2.914   8.672   3.278  0.2817 -0.3194 -0.1316
    2CHTO   H17  818   2.884   8.775   3.257 -0.1884 -0.4035  0.1047
    2CHTO    O1  819   3.051   8.650   3.233 -0.1950  0.0689  0.5929
    2CHTO    C5  820   3.069   8.623   3.095  0.0897 -0.0989 -0.0267
    2CHTO   H18  821   3.029   8.699   3.028  1.6803 -0.2418 -1.1768
    2CHTO   C16  822   3.221   8.613   3.070  0.1943  0.0047 -0.3440
    2CHTO   O11  823   3.292   8.508   3.130  0.0355 -0.3965  0.0335
    2CHTO    H5  824   3.371   8.481   3.087 -0.2638 -0.4648 -0.4778
    2CHTO    O3  825   2.934   8.662   3.423 -0.2848 -0.4214 -0.0676
    2CHTO    C6  826   2.966   8.784   3.497 -1.4042 -0.2027 -0.5024
    2CHTO   H19  827   2.990   8.869   3.434 -0.1234 -0.1905 -0.0293
    2CHTO    C8  828   2.844   8.832   3.584  0.5501 -0.6124  0.2853
    2CHTO   H21  829   2.805   8.747   3.639 -0.0204  0.5350  1.6931
    2CHTO    O7  830   2.736   8.884   3.499 -0.2679 -0.2959  0.4317
    2CHTO    H2  831   2.716   8.828   3.427  0.6813  1.0273 -0.8759
    2CHTO   C12  832   2.879   8.958   3.674  0.4750  0.4127 -0.2228
    2CHTO   H25  833   2.895   9.047   3.611 -0.6704  1.1417  0.4999
    2CHTO    N3  834   2.771   8.981   3.781  0.1522 -0.3914  0.3494
    2CHTO   H12  835   2.773   8.893   3.843 -2.4246 -0.4571  0.4128
    2CHTO   H13  836   2.672   8.981   3.736 -0.1205  2.7040  0.8314
    2CHTO   C15  837   3.016   8.923   3.744 -0.4937  0.4145  0.3767
    2CHTO   H28  838   3.008   8.841   3.816 -1.8029  0.5330  0.3884
    2CHTO   O10  839   3.072   9.035   3.811  0.4522 -0.4505 -0.3266
    2CHTO    H4  840   3.115   9.002   3.888 -0.0780 -1.0043 -0.2568
    2CHTO    O5  841   3.124   8.887   3.651  0.6779  0.1939 -0.6618
    2CHTO   C10  842   3.089   8.763   3.587  0.4914 -0.2065 -0.3441
    2CHTO   H23  843   3.072   8.686   3.662 -0.8360  1.4888  1.1560
    2CHTO   C17  844   3.218   8.719   3.505 -0.3463 -0.6856  0.3143
    2CHTO   O12  845   3.305   8.645   3.581  0.7194 -0.0061 -0.4403
    2CHTO    H6  846   3.388   8.689   3.585  1.0383 -0.4028 -2.3980
    3CHTO  H203  847   7.860   2.383   2.099  0.9090  1.5055 -0.2992
    3CHTO   O82  848   7.924   2.361   2.164 -0.3727 -0.8516  0.2203
    3CHTO  C123  849   7.873   2.264   2.258 -0.1574 -0.1751 -0.9282
    3CHTO  H227  850   7.947   2.260   2.340  1.7301 -0.7580 -2.6252
    3CHTO   O77  851   7.749   2.314   2.299  0.5489 -0.0952 -0.2153
    3CHTO  C118  852   7.692   2.244   2.409  0.0559  0.9041 -0.0090
    3CHTO  H222  853   7.779   2.238   2.477  1.1948  0.0537 -1.5275
    3CHTO  C125  854   7.592   2.337   2.468 -0.3018 -0.6294  0.4705
    3CHTO   O84  855   7.475   2.343   2.377 -0.5635 -0.1338  0.1175
    3CHTO  H205  856   7.404   2.302   2.422 -0.8266  0.6580  0.4296
    3CHTO  C114  857   7.650   2.106   2.351  0.2217 -0.5035  0.2136
    3CHTO  H218  858   7.570   2.123   2.279 -0.2122  0.0584  0.8283
    3CHTO  C116  859   7.764   2.025   2.288  0.2343 -0.6317  0.4081
    3CHTO  H220  860   7.829   1.977   2.363  0.2827 -1.2298 -0.0112
    3CHTO   O79  861   7.706   1.916   2.213 -0.0088 -0.3144  0.4944
    3CHTO  H201  862   7.766   1.846   2.199  0.6860  0.4552 -0.4181
    3CHTO  C120  863   7.844   2.122   2.192 -0.6418 -0.1219  0.6742
    3CHTO  H224  864   7.791   2.139   2.096  2.6423 -1.7364 -1.4952
    3CHTO   N21  865   7.971   2.053   2.150  0.2644 -0.4931 -0.3054
    3CHTO  H211  866   8.050   2.095   2.211  1.2000 -0.8527 -1.2592
    3CHTO  H212  867   8.006   2.083   2.052 -1.5250  4.9353  0.5188
    3CHTO   O75  868   7.592   2.036   2.463 -0.1997 -0.2392  0.0525
    3CHTO  C112  869   7.489   1.924   2.447 -0.0377  0.2731 -1.1785
    3CHTO  H216  870   7.501   1.881   2.347 -1.0385  1.1318 -1.6695
    3CHTO   O73  871   7.365   1.982   2.465  0.1662 -0.3499 -0.3983
    3CHTO  C113  872   7.255   1.900   2.433  0.3990  0.2062  0.0221
    3CHTO  H217  873   7.271   1.863   2.330  2.9495  0.7008  0.1897
    3CHTO  C124  874   7.135   1.990   2.455  0.5277  0.7237  0.9506
    3CHTO   O83  875   7.098   2.019   2.590  0.2879  0.4530 -0.1331
    3CHTO  H204  876   7.062   1.941   2.628  3.5413 -2.0832 -2.0021
    3CHTO  C109  877   7.259   1.776   2.530  0.2200  0.1626  0.7649
    3CHTO  H213  878   7.225   1.811   2.628 -1.5713 -0.3119  0.3234
    3CHTO  C110  879   7.399   1.702   2.534 -0.3028 -0.2218  0.7336
    3CHTO  H214  880   7.415   1.648   2.441  2.4796 -0.8463  1.5204
    3CHTO   O78  881   7.391   1.605   2.638  0.1504 -0.0471 -0.1288
    3CHTO  H200  882   7.328   1.538   2.620  0.7586 -0.5482 -0.3877
    3CHTO  C111  883   7.511   1.808   2.554 -0.4176 -0.0023 -0.4628
    3CHTO  H215  884   7.501   1.846   2.657 -0.8737 -2.4036  0.4206
    3CHTO   N19  885   7.647   1.746   2.545 -0.2965 -0.0905 -0.7498
    3CHTO  H207  886   7.633   1.644   2.578 -1.5827 -0.3714 -2.0991
    3CHTO  H208  887   7.712   1.807   2.606  0.2808 -0.4894 -0.9603
    3CHTO   O74  888   7.154   1.684   2.482  0.3800  0.1555 -0.4376
    3CHTO  C115  889   7.046   1.603   2.586  0.1781 -0.4193 -0.7704
    3CHTO  H219  890   7.086   1.595   2.687 -0.5745  1.0132 -0.3350
    3CHTO   O76  891   6.911   1.689   2.594  0.7015 -0.1760 -0.2289
    3CHTO  C122  892   6.838   1.704   2.471 -0.0776 -0.1903  0.6892
    3CHTO  H226  893   6.893   1.779   2.414  0.0930  0.3521  1.5657
    3CHTO  C126  894   6.694   1.765   2.492  0.0749  0.2723 -0.3029
    3CHTO   O85  895   6.609   1.689   2.579 -0.6101 -0.1068  0.3259
    3CHTO  H206  896   6.523   1.699   2.544 -0.2246  0.2852 -0.5137
    3CHTO  C121  897   6.821   1.570   2.381 -0.2209  0.1134 -0.7728
    3CHTO  H225  898   6.714   1.552   2.358 -0.9355  1.2070  1.5529
    3CHTO   O81  899   6.915   1.580   2.270 -0.0049  0.0854 -0.0589
    3CHTO  H202  900   6.904   1.663   2.228 -0.7868 -0.3993 -0.8060
    3CHTO  C119  901   6.870   1.443   2.467 -0.0951  0.0907  0.0032
    3CHTO  H223  902   6.807   1.436   2.555 -0.6835  2.1103 -0.2191
    3CHTO  C117  903   7.013   1.460   2.522 -0.6149  0.1621 -0.9121
    3CHTO  H221  904   7.094   1.448   2.450  0.1200 -1.0503  0.0803
    3CHTO   N20  905   7.044   1.357   2.628 -0.5441 -0.0633 -0.9812
    3CHTO  H209  906   6.977   1.276   2.605 -0.7478 -0.4861  1.0185
    3CHTO  H210  907   7.144   1.317   2.616 -1.3843 -2.0818 -1.4330
    3CHTO   O80  908   6.845   1.285   2.391 -0.0264 -0.2757  0.0860
    3CHTO  C103  909   6.718   1.201   2.441 -0.0434  0.0061  0.0793
    3CHTO  H190  910   6.727   1.183   2.548  0.6488 -0.7881 -0.1096
    3CHTO  C101  911   6.583   1.259   2.412  0.4056  0.1982  0.4691
    3CHTO  H188  912   6.580   1.287   2.306  1.8936  3.0384  1.1341
    3CHTO   O68  913   6.574   1.379   2.500 -0.1862  0.3278  0.3837
    3CHTO  H168  914   6.515   1.444   2.468  0.5398  1.2225  0.8337
    3CHTO   C99  915   6.456   1.154   2.438  0.3465  0.6941 -0.2941
    3CHTO  H186  916   6.448   1.134   2.547  0.5614  1.4533 -0.1388
    3CHTO   N17  917   6.323   1.202   2.402  0.1820 -0.6835 -0.6589
    3CHTO  H174  918   6.306   1.283   2.472  0.8661  0.0569 -1.3406
    3CHTO  H175  919   6.270   1.109   2.410  3.4724 -2.6577 -0.8416
    3CHTO   C97  920   6.499   1.015   2.367  0.4709 -0.0542 -0.7354
    3CHTO  H184  921   6.501   1.020   2.257 -0.0463 -1.1837 -0.7928
    3CHTO   O64  922   6.632   0.978   2.419  0.1481  0.2773  0.0927
    3CHTO  C104  923   6.733   1.066   2.375 -0.2106  0.5920 -0.5935
    3CHTO  H191  924   6.717   1.076   2.268  1.2768  1.1409 -0.7662
    3CHTO  C108  925   6.866   0.992   2.401 -0.3741 -0.2778  0.1290
    3CHTO   O71  926   6.864   0.859   2.346 -0.1238 -0.1292  0.4095
    3CHTO  H171  927   6.939   0.817   2.384 -0.2161  0.4295  1.2284
    3CHTO   O62  928   6.414   0.912   2.414  0.0849  0.0778  0.5278
    3CHTO   C91  929   6.400   0.796   2.329 -0.3285 -0.0732  0.1166
    3CHTO  H178  930   6.472   0.800   2.248 -0.1954 -1.5828  0.1546
    3CHTO   C92  931   6.255   0.795   2.271  0.0848  0.2650 -0.2595
    3CHTO  H179  932   6.190   0.798   2.360  2.0574  1.0623  1.1856
    3CHTO   O66  933   6.236   0.915   2.185  0.1260  0.2686 -0.3208
    3CHTO  H166  934   6.191   0.983   2.231 -1.4340 -0.2730 -1.0134
    3CHTO   C93  935   6.224   0.671   2.182 -0.1536  0.3793  0.7297
    3CHTO  H180  936   6.262   0.685   2.080 -0.2886 -1.6805  0.3743
    3CHTO   N16  937   6.082   0.652   2.160  0.5050  0.6363  0.8250
    3CHTO  H172  938   6.039   0.743   2.121  0.6495  0.4420  0.1991
    3CHTO  H173  939   6.074   0.571   2.089 -2.4422 -0.4387  2.3067
    3CHTO   C94  940   6.296   0.541   2.241  0.1305  0.5547 -0.6494
    3CHTO  H181  941   6.234   0.486   2.310 -1.6232  0.5071 -2.2285
    3CHTO   O61  942   6.426   0.562   2.286  0.3431  0.7887  0.3254
    3CHTO   C95  943   6.435   0.654   2.394  0.0140 -0.3085 -0.6879
    3CHTO  H182  944   6.360   0.635   2.471 -1.8089  0.1694 -2.3105
    3CHTO  C106  945   6.583   0.642   2.451  0.2883 -0.4718 -0.1740
    3CHTO   O69  946   6.598   0.679   2.587  0.2874  0.0635  0.0828
    3CHTO  H169  947   6.622   0.607   2.642 -2.0375  0.3315  1.5163
    3CHTO   O63  948   6.319   0.440   2.108  0.6609  0.6484  0.8632
    3CHTO   C96  949   6.266   0.284   2.129  0.3247 -0.0523 -0.0830
    3CHTO  H183  950   6.311   0.233   2.044  2.9752  0.5093  0.9424
    3CHTO   C98  951   6.111   0.267   2.122  0.2363 -0.1102  0.4118
    3CHTO  H185  952   6.068   0.342   2.190 -0.0325 -0.8457  1.0592
    3CHTO   O67  953   6.074   0.313   1.989  0.1575 -0.5197 -0.9591
    3CHTO  H167  954   6.007   0.378   1.996 -1.1812 -1.8132 -1.4532
    3CHTO  C102  955   6.068   0.116   2.163  0.4797  0.1768  0.2330
    3CHTO  H189  956   6.114   0.054   2.084  0.5793  0.4770  0.0521
    3CHTO   N18  957   5.918   0.093   2.163  0.1574  0.3147  0.3342
    3CHTO  H176  958   5.894   0.025   2.243  1.3943  2.6981  2.8024
    3CHTO  H177  959   5.881   0.191   2.188 -1.0024  0.1346 -0.6443
    3CHTO  C105  960   6.144   0.072   2.299  0.0386 -0.8928  0.2537
    3CHTO  H192  961   6.103   0.137   2.376 -0.1811  0.6990 -1.1858
    3CHTO   O65  962   6.287   0.092   2.286 -0.0603 -0.0958 -0.5907
    3CHTO  C100  963   6.335   0.222   2.259 -0.7710  0.5572  0.1665
    3CHTO  H187  964   6.317   0.289   2.345 -0.0896  0.6948  0.2039
    3CHTO  C107  965   6.489   0.210   2.252  0.4231  0.7641 -0.0804
    3CHTO   O70  966   6.560   0.335   2.248 -0.1795 -0.6709  0.1030
    3CHTO  H170  967   6.540   0.388   2.322  0.6049 -1.9417  1.2533
    3CHTO   O57  968   6.111  -0.087   2.338 -0.0613  0.4600  0.2068
    3CHTO   C85  969   6.076  -0.140   2.463 -0.0893  0.1741  0.3326
    3CHTO  H157  970   6.166  -0.193   2.500  0.1515 -0.7665 -1.5561
    3CHTO   C83  971   5.971  -0.248   2.449  0.3056 -0.9490 -0.0059
    3CHTO  H155  972   6.025  -0.334   2.411  2.4671  0.3728 -0.0251
    3CHTO   O56  973   5.891  -0.199   2.339  0.3669 -0.0586  0.0957
    3CHTO  H135  974   5.837  -0.274   2.318 -0.3271  0.7739 -1.1448
    3CHTO   C81  975   5.889  -0.281   2.574  0.1350 -0.4973 -0.1920
    3CHTO  H153  976   5.956  -0.326   2.647  1.9495  0.0216 -1.5060
    3CHTO   N14  977   5.777  -0.376   2.560  0.3118  0.2249 -0.6063
    3CHTO  H141  978   5.785  -0.465   2.620 -0.0363 -1.4144 -2.9215
    3CHTO  H142  979   5.684  -0.328   2.577  0.4339  0.6557 -1.1420
    3CHTO   C79  980   5.826  -0.150   2.644 -0.5779 -0.2713  0.4962
    3CHTO  H151  981   5.790  -0.174   2.744 -2.9206 -0.5780 -0.3725
    3CHTO   O52  982   5.938  -0.060   2.674 -0.3366 -0.3582 -0.4923
    3CHTO   C86  983   6.028  -0.027   2.563  0.0067  0.1732  0.1261
    3CHTO  H158  984   5.966   0.043   2.503 -1.6024 -0.9032  0.4975
    3CHTO   C90  985   6.144   0.061   2.628 -0.6481 -0.1443  0.1490
    3CHTO   O60  986   6.223  -0.017   2.711 -0.2119  0.5161  0.4144
    3CHTO  H138  987   6.298   0.035   2.734  1.4011 -1.0347 -1.1672
    3CHTO   O50  988   5.722  -0.082   2.573  0.1486 -0.8243  0.0607
    3CHTO   C73  989   5.596  -0.055   2.630 -0.0918  0.2061  0.0092
    3CHTO  H145  990   5.571  -0.110   2.721 -2.3588  1.2524  0.0649
    3CHTO   C74  991   5.486  -0.084   2.517 -0.1486  0.9329  0.4978
    3CHTO  H146  992   5.493  -0.190   2.490 -1.6933  0.7370  0.8219
    3CHTO   O54  993   5.357  -0.054   2.590  0.3270  0.0184  0.4205
    3CHTO  H133  994   5.279  -0.102   2.569  0.9753 -1.2995  1.0083
    3CHTO   C75  995   5.508   0.010   2.398 -0.2854 -0.4306 -0.6245
    3CHTO  H147  996   5.607  -0.013   2.355 -0.1564  0.1393 -0.6284
    3CHTO   N13  997   5.408  -0.015   2.293  0.0185 -0.0394  0.2638
    3CHTO  H139  998   5.424   0.060   2.217  2.6758 -0.0256  0.7983
    3CHTO  H140  999   5.423  -0.111   2.246 -0.4658  0.0206 -0.0110
    3CHTO   C76 1000   5.503   0.166   2.453 -0.4110  0.1647 -0.1111
    3CHTO  H148 1001   5.405   0.181   2.497 -0.3592  1.0793 -0.3084
    3CHTO   O49 1002   5.603   0.192   2.556  0.1367  0.4317  0.1504
    3CHTO   C77 1003   5.591   0.104   2.669 -0.5916 -0.1445 -0.9981
    3CHTO  H149 1004   5.493   0.123   2.713  0.1654  0.0739  0.6323
    3CHTO   C88 1005   5.697   0.150   2.769  0.2502  0.3238 -0.1939
    3CHTO   O58 1006   5.687   0.075   2.900 -0.0129 -0.3112 -0.7704
    3CHTO  H136 1007   5.692  -0.016   2.879 -0.9699  0.1409 -3.1361
    3CHTO   O51 1008   5.533   0.252   2.320 -0.2608 -0.2203  0.2382
    3CHTO   C78 1009   5.561   0.417   2.359 -0.2673 -0.6414 -0.4909
    3CHTO  H150 1010   5.649   0.424   2.427 -0.6570 -2.1769  0.1932
    3CHTO   C80 1011   5.442   0.470   2.442  0.1079 -0.6899 -0.5332
    3CHTO  H152 1012   5.354   0.424   2.392 -1.0594  1.5707 -0.6121
    3CHTO   O55 1013   5.451   0.424   2.574 -0.2421  0.3416 -0.5633
    3CHTO  H134 1014   5.526   0.448   2.625  0.0513  0.4366 -1.0405
    3CHTO   C84 1015   5.419   0.628   2.448 -0.4679 -0.5111  1.1575
    3CHTO  H156 1016   5.493   0.657   2.522  0.8021 -0.8678  0.0361
    3CHTO   N15 1017   5.283   0.675   2.499  0.5023 -0.7358 -0.0957
    3CHTO  H143 1018   5.287   0.782   2.502 -0.1606 -0.7391  1.2557
    3CHTO  H144 1019   5.258   0.639   2.596 -1.8037 -2.6690 -1.3829
    3CHTO   C87 1020   5.451   0.695   2.315  0.1112 -0.1904  0.0916
    3CHTO  H159 1021   5.381   0.689   2.231  0.9920 -0.1487 -0.6610
    3CHTO   O53 1022   5.586   0.632   2.255 -0.0582 -0.0200  0.4747
    3CHTO   C82 1023   5.588   0.491   2.230  0.1486 -0.1497  0.1793
    3CHTO  H154 1024   5.513   0.461   2.157  0.0093 -1.0311  0.6756
    3CHTO   C89 1025   5.725   0.441   2.175  0.0104  0.2099  0.2007
    3CHTO   O59 1026   5.758   0.496   2.047 -0.6834  0.3773 -0.6120
    3CHTO  H137 1027   5.782   0.586   2.060 -1.0971  0.4128 -0.0855
    3CHTO   O45 1028   5.502   0.871   2.337  0.2528  0.0821  0.8461
    3CHTO   C67 1029   5.635   0.883   2.396  0.0150 -0.4159  0.5575
    3CHTO  H124 1030   5.673   0.785   2.426 -1.7027 -0.6664  1.9693
    3CHTO   C65 1031   5.731   0.942   2.295 -0.0397 -0.4867 -0.0881
    3CHTO  H122 1032   5.681   1.013   2.229  1.5422 -0.4543 -1.2933
    3CHTO   O44 1033   5.777   0.837   2.202 -0.2860  0.0425  0.4173
    3CHTO  H102 1034   5.715   0.813   2.136  0.4994  0.1286 -0.3772
    3CHTO   C63 1035   5.836   1.044   2.363  0.0818 -0.2508  0.2303
    3CHTO  H120 1036   5.784   1.139   2.371  1.0524  0.2205  1.0742
    3CHTO   N11 1037   5.947   1.081   2.282  0.0245 -0.0637  0.3367
    3CHTO  H108 1038   6.013   1.001   2.257 -0.1832  0.1216 -0.8087
    3CHTO  H109 1039   5.921   1.142   2.199 -2.5651  0.1556  1.2618
    3CHTO   C61 1040   5.876   0.997   2.508 -0.0596  0.0225 -0.7128
    3CHTO  H118 1041   5.943   1.068   2.559 -0.4713 -1.7605  2.4505
    3CHTO   O40 1042   5.758   0.980   2.591 -0.7227  0.2555 -0.3304
    3CHTO   C68 1043   5.626   0.966   2.527  0.6167 -0.4502 -0.1087
    3CHTO  H125 1044   5.590   1.067   2.497  1.1698 -0.3238 -0.3539
    3CHTO   C72 1045   5.527   0.916   2.633 -0.4497  0.1260 -0.0148
    3CHTO   O48 1046   5.563   0.802   2.716  0.8181 -0.4218 -0.3936
    3CHTO  H105 1047   5.593   0.829   2.800  0.4520  2.3182 -1.1213
    3CHTO   O38 1048   5.960   0.880   2.497 -0.3515 -0.6902 -0.6919
    3CHTO   C55 1049   5.991   0.808   2.621 -0.3571 -1.0299  0.6470
    3CHTO  H112 1050   5.899   0.794   2.679 -0.3869  0.6063  1.0175
    3CHTO   C56 1051   6.105   0.875   2.708  0.6688 -0.9030 -0.3722
    3CHTO  H113 1052   6.183   0.898   2.635  0.4649  0.4601 -0.1782
    3CHTO   O42 1053   6.062   1.001   2.765  0.2694 -0.0931  0.0074
    3CHTO  H100 1054   6.007   1.052   2.709 -1.3387 -1.3590  0.3879
    3CHTO   C57 1055   6.157   0.784   2.822 -0.1631 -0.0170 -0.4391
    3CHTO  H114 1056   6.081   0.767   2.899  0.4955  0.3814  0.3035
    3CHTO   N10 1057   6.275   0.853   2.883 -0.2822  0.5525  0.5271
    3CHTO  H106 1058   6.289   0.834   2.989  2.7321  1.1882  0.2879
    3CHTO  H107 1059   6.362   0.826   2.825  0.7852  0.9532  1.9156
    3CHTO   C58 1060   6.190   0.650   2.755  0.0862 -0.0328 -0.6647
    3CHTO  H115 1061   6.286   0.651   2.701  0.6938  2.4736  0.3731
    3CHTO   O37 1062   6.078   0.591   2.683  0.1975 -0.6896 -0.1245
    3CHTO   C59 1063   6.027   0.668   2.573  0.1928  0.3234 -0.1509
    3CHTO  H116 1064   6.107   0.674   2.499  0.5472  3.1933  0.4152
    3CHTO   C70 1065   5.912   0.588   2.509  0.1971 -0.0013 -0.6969
    3CHTO   O46 1066   5.954   0.461   2.459 -0.8495  0.0503  1.1612
    3CHTO  H103 1067   5.916   0.456   2.374  1.1124  2.3139  0.0921
    3CHTO   O39 1068   6.226   0.542   2.886  0.1463  0.0611  0.1132
    3CHTO   C60 1069   6.267   0.415   2.854 -0.2883 -0.0419  0.2090
    3CHTO  H117 1070   6.199   0.377   2.776 -0.5763 -0.5384  0.6956
    3CHTO   C62 1071   6.414   0.405   2.812 -0.5112 -0.5477 -0.5482
    3CHTO  H119 1072   6.423   0.466   2.720 -1.9016 -2.5683 -2.0619
    3CHTO   O43 1073   6.497   0.465   2.914 -0.0746  0.3739 -0.0920
    3CHTO  H101 1074   6.557   0.522   2.869  2.2472 -2.2815 -0.4814
    3CHTO   C66 1075   6.452   0.256   2.771 -0.2493 -0.2140 -0.6893
    3CHTO  H123 1076   6.371   0.214   2.710 -0.8747 -2.4534  1.6077
    3CHTO   N12 1077   6.585   0.251   2.705  0.0249  0.7971 -0.4399
    3CHTO  H110 1078   6.603   0.151   2.668 -1.5032  0.0412  0.8064
    3CHTO  H111 1079   6.667   0.290   2.764  0.6618 -0.2128 -0.6391
    3CHTO   C69 1080   6.453   0.175   2.902 -0.4443 -0.2421  0.0093
    3CHTO  H126 1081   6.532   0.204   2.974 -0.6526 -1.3602  0.6902
    3CHTO   O41 1082   6.303   0.179   2.963 -0.1184  0.4607  0.0715
    3CHTO   C64 1083   6.239   0.323   2.980 -0.2177 -0.3350  0.4804
    3CHTO  H121 1084   6.285   0.375   3.067 -0.5362  0.7538  0.0132
    3CHTO   C71 1085   6.091   0.309   3.016  0.1723  0.1391 -0.5783
    3CHTO   O47 1086   6.004   0.238   2.923  0.3098 -0.2258 -0.0542
    3CHTO  H104 1087   6.051   0.251   2.843  1.1077 -0.9612  0.2959
    3CHTO   O34 1088   6.488   0.019   2.866 -0.6456  0.7383 -0.4194
    3CHTO   C49 1089   6.496  -0.122   2.897  0.3013  0.9381  0.8221
    3CHTO   H91 1090   6.503  -0.170   2.799 -2.9868 -2.1847  2.0160
    3CHTO   C47 1091   6.358  -0.171   2.956 -0.0777 -0.6550 -0.2917
    3CHTO   H89 1092   6.298  -0.162   2.863  0.6200 -2.1438 -0.9105
    3CHTO   O33 1093   6.294  -0.083   3.059  0.0391 -0.2523  0.2435
    3CHTO   H70 1094   6.297   0.001   3.015 -0.2371 -0.4388 -0.1316
    3CHTO   C45 1095   6.359  -0.319   3.018  0.6490  0.7304  0.8371
    3CHTO   H87 1096   6.355  -0.309   3.127 -3.5520 -1.9128  1.0302
    3CHTO    N8 1097   6.242  -0.396   2.972  1.2075 -0.5818  0.3335
    3CHTO   H75 1098   6.246  -0.432   2.870 -0.3662 -0.7781  0.3255
    3CHTO   H76 1099   6.157  -0.329   2.983  1.0817 -0.8769  1.1252
    3CHTO   C43 1100   6.499  -0.391   3.000  1.1900  1.0218 -1.2053
    3CHTO   H85 1101   6.491  -0.473   3.071 -1.5297 -0.2011 -2.8221
    3CHTO   O29 1102   6.610  -0.302   3.024  0.1099  0.3952  0.4622
    3CHTO   C50 1103   6.603  -0.166   2.997  1.2745 -0.0219 -0.3325
    3CHTO   H92 1104   6.596  -0.110   3.091  0.8925  2.2644 -1.6684
    3CHTO   C54 1105   6.736  -0.109   2.943 -0.3207 -0.2640  0.2136
    3CHTO   O36 1106   6.836  -0.112   3.044 -0.4572 -0.1580 -0.9732
    3CHTO   H72 1107   6.889  -0.187   3.024  1.9805  1.9274 -2.7425
    3CHTO   O27 1108   6.537  -0.458   2.882  0.0426 -0.6278  0.6400
    3CHTO   C37 1109   6.565  -0.485   2.739 -0.8003 -0.0555 -0.7021
    3CHTO   H79 1110   6.594  -0.591   2.741  0.5544  0.3021  2.6165
    3CHTO   C38 1111   6.438  -0.447   2.650  0.2423 -0.2158  0.6846
    3CHTO   H80 1112   6.404  -0.347   2.680 -2.0108 -1.4419  2.3668
    3CHTO   O31 1113   6.340  -0.548   2.683 -1.0743 -0.3147  0.2931
    3CHTO   H68 1114   6.338  -0.615   2.618  0.5052 -0.3416  0.2390
    3CHTO   C39 1115   6.476  -0.449   2.494  0.7457 -0.7196 -0.2154
    3CHTO   H81 1116   6.513  -0.547   2.464  0.4916 -0.6331 -0.8176
    3CHTO    N7 1117   6.352  -0.421   2.409  0.4969  0.1906 -0.4402
    3CHTO   H73 1118   6.378  -0.407   2.305  1.1557  2.3276 -0.0223
    3CHTO   H74 1119   6.274  -0.354   2.442  1.4809  1.2516 -0.2147
    3CHTO   C40 1120   6.605  -0.353   2.480 -0.2690 -0.5968  0.3794
    3CHTO   H82 1121   6.601  -0.246   2.504 -0.5956 -0.5999  0.3351
    3CHTO   O26 1122   6.705  -0.419   2.549 -0.0699 -0.0003 -0.7075
    3CHTO   C41 1123   6.691  -0.413   2.695  0.6960  0.0912 -0.5269
    3CHTO   H83 1124   6.692  -0.305   2.717 -0.4174  0.6427 -2.9691
    3CHTO   C52 1125   6.809  -0.472   2.766 -0.0769  1.3655 -0.0756
    3CHTO   O35 1126   6.843  -0.613   2.706  0.0232 -0.3177  0.5483
    3CHTO   H71 1127   6.778  -0.671   2.740  0.7816  0.2955  3.1368
    3CHTO   O28 1128   6.651  -0.368   2.343 -0.2927  0.7691  0.7958
    3CHTO   C42 1129   6.744  -0.268   2.290 -0.1784  0.0824 -0.0898
    3CHTO   H84 1130   6.778  -0.304   2.192  0.0392 -0.7386  0.2835
    3CHTO   C44 1131   6.878  -0.250   2.369 -0.8974  0.6703 -0.1520
    3CHTO   H86 1132   6.853  -0.237   2.474 -0.4658  0.3510 -0.0108
    3CHTO   O32 1133   6.955  -0.370   2.359 -0.0065 -0.2131  0.3521
    3CHTO   H69 1134   6.994  -0.375   2.273 -1.1815  4.4026 -0.6105
    3CHTO   C48 1135   6.962  -0.125   2.313 -1.1383 -0.7926 -0.4559
    3CHTO   H90 1136   6.984  -0.159   2.212 -0.9382  0.1586 -0.7384
    3CHTO    N9 1137   7.100  -0.098   2.378 -0.2901 -0.0583  0.6860
    3CHTO   H77 1138   7.105  -0.042   2.470  0.9954  0.0940  0.5252
    3CHTO   H78 1139   7.163  -0.050   2.304  0.3287  1.5560  2.2361
    3CHTO   C51 1140   6.872   0.003   2.313 -0.9602 -0.5040 -0.2478
    3CHTO   H93 1141   6.831   0.038   2.408  1.2281  2.2809 -0.2508
    3CHTO   O30 1142   6.771  -0.024   2.215  0.2690  0.5628  0.1153
    3CHTO   C46 1143   6.673  -0.129   2.271  0.8032  0.1969 -0.0185
    3CHTO   H88 1144   6.633  -0.077   2.358  0.2366 -0.3221  0.0365
    3CHTO   C53 1145   6.559  -0.147   2.162 -0.2346  0.2689  0.2154
    3CHTO   O72 1146   6.433  -0.195   2.205  0.4796 -0.3587 -0.6281
    3CHTO  H199 1147   6.417  -0.164   2.292 -0.0560  0.3341 -0.9685
    3CHTO   O22 1148   6.946   0.107   2.247  0.8114  0.0256 -0.1162
    3CHTO   C31 1149   6.909   0.249   2.250  0.4784  0.6173  0.5989
    3CHTO   H59 1150   6.800   0.253   2.270  0.1200 -3.9214 -0.0281
    3CHTO   C29 1151   6.983   0.342   2.351 -0.3840  0.7134 -0.2255
    3CHTO   H57 1152   7.090   0.320   2.341 -0.3841  0.8894 -0.6307
    3CHTO   O21 1153   6.961   0.296   2.490 -0.0967  0.1492  0.4157
    3CHTO   H37 1154   6.869   0.289   2.506 -0.0806  1.5801  1.2052
    3CHTO   C27 1155   6.949   0.499   2.310 -0.2900  0.1522  0.0943
    3CHTO   H55 1156   6.846   0.525   2.338  0.1166  0.0032  1.8031
    3CHTO    N5 1157   7.031   0.580   2.404 -0.7125 -0.4131 -0.1803
    3CHTO   H43 1158   6.972   0.601   2.492  0.6063 -0.7759  0.8041
    3CHTO   H44 1159   7.119   0.537   2.450 -0.6494 -0.3826 -0.2716
    3CHTO   C25 1160   6.970   0.529   2.161  0.4100  0.0917  0.2331
    3CHTO   H53 1161   7.074   0.525   2.127  0.4071  1.9851 -0.0290
    3CHTO   O17 1162   6.886   0.442   2.086  0.0863  0.0263 -0.3571
    3CHTO   C32 1163   6.929   0.305   2.102 -0.0874  0.7122 -1.1606
    3CHTO   H60 1164   7.035   0.290   2.077 -0.5202 -2.1566 -1.4525
    3CHTO   C36 1165   6.851   0.216   2.007 -0.7263  0.2597 -0.7490
    3CHTO   O25 1166   6.906   0.092   1.961  0.6433 -0.0953 -0.4352
    3CHTO   H40 1167   6.923   0.039   2.036  1.9790 -0.2613 -0.8421
    3CHTO   O15 1168   6.929   0.690   2.130  0.3396  0.1038 -0.1456
    3CHTO   C19 1169   6.842   0.753   2.026  0.5543 -0.8228  0.2808
    3CHTO   H47 1170   6.852   0.678   1.947 -0.6886 -2.0390  1.2423
    3CHTO   C20 1171   6.692   0.769   2.052 -0.1103 -0.2592 -0.2818
    3CHTO   H48 1172   6.676   0.837   2.137 -1.6621 -1.6195  0.5457
    3CHTO   O19 1173   6.638   0.640   2.086  0.7102 -0.2184  0.5493
    3CHTO   H35 1174   6.630   0.582   2.013 -0.2977 -0.1830  0.6155
    3CHTO   C21 1175   6.613   0.820   1.925  0.9497  0.1297 -0.2257
    3CHTO   H49 1176   6.603   0.744   1.847 -0.0782 -0.3693  0.3856
    3CHTO    N4 1177   6.474   0.859   1.955  0.2980 -0.8578  0.4472
    3CHTO   H41 1178   6.451   0.963   1.939  3.1403 -0.5999 -2.4932
    3CHTO   H42 1179   6.458   0.831   2.059 -0.2486  0.7744  0.8109
    3CHTO   C22 1180   6.693   0.937   1.852  0.3609 -0.6137 -0.2357
    3CHTO   H50 1181   6.682   1.039   1.891  1.4318 -0.7179  0.3534
    3CHTO   O14 1182   6.831   0.903   1.844  0.5643 -0.0521  0.0683
    3CHTO   C23 1183   6.889   0.879   1.970  0.0067 -0.1212 -0.0075
    3CHTO   H51 1184   6.870   0.962   2.039 -0.1092 -1.8064  2.0322
    3CHTO   C34 1185   7.045   0.876   1.955 -0.2900 -0.0761  0.2872
    3CHTO   O23 1186   7.095   1.001   1.906  0.1424  0.0271 -0.1667
    3CHTO   H38 1187   7.120   1.054   1.979  0.4988  1.0480 -1.0204
    3CHTO   O16 1188   6.652   0.951   1.712  0.0169 -0.0721  0.1533
    3CHTO   C24 1189   6.673   1.092   1.647  0.2056  0.2505 -0.3787
    3CHTO   H52 1190   6.742   1.155   1.703  1.8178 -1.2753 -0.6188
    3CHTO   C26 1191   6.536   1.156   1.630  0.6132 -0.0388  0.6544
    3CHTO   H54 1192   6.474   1.079   1.579  1.0042  1.5474 -2.3338
    3CHTO   O20 1193   6.471   1.180   1.761  0.0775 -0.4441 -0.5465
    3CHTO   H36 1194   6.381   1.154   1.756  0.1942 -1.2948  1.1566
    3CHTO   C30 1195   6.532   1.282   1.538  0.6937  0.0527 -0.2040
    3CHTO   H58 1196   6.579   1.371   1.583 -0.2960  0.9150 -0.8537
    3CHTO    N6 1197   6.399   1.328   1.499  0.6607  0.7158  0.0881
    3CHTO   H45 1198   6.350   1.248   1.446  1.8652  0.0143  0.0109
    3CHTO   H46 1199   6.341   1.343   1.588  3.0712 -0.3681  1.8934
    3CHTO   C33 1200   6.615   1.254   1.413  0.1896 -0.3556 -0.3536
    3CHTO   H61 1201   6.558   1.176   1.361 -2.8588  0.9370  0.8982
    3CHTO   O18 1202   6.747   1.202   1.443  0.1504  0.0955 -0.1178
    3CHTO   C28 1203   6.739   1.071   1.509 -0.3062 -0.3895  0.6186
    3CHTO   H56 1204   6.679   0.998   1.454 -2.4340 -0.7960  3.3584
    3CHTO   C35 1205   6.876   1.020   1.538 -0.3653 -0.4381  0.4040
    3CHTO   O24 1206   6.945   0.967   1.427 -0.5153  0.3758 -0.1447
    3CHTO   H39 1207   7.039   0.965   1.432 -0.4645  0.7353 -0.9047
    3CHTO    O9 1208   6.623   1.360   1.321  0.2565 -0.5105  0.0123
    3CHTO   C13 1209   6.738   1.479   1.357  0.1725 -0.2173 -0.3621
    3CHTO   H26 1210   6.754   1.468   1.467  0.3019  1.5080 -0.1971
    3CHTO   C11 1211   6.658   1.615   1.322  0.4162  0.0850 -0.1576
    3CHTO   H24 1212   6.565   1.627   1.379  0.3112  0.4405 -0.3956
    3CHTO    O8 1213   6.613   1.624   1.187 -0.7118 -0.6841 -0.6893
    3CHTO    H3 1214   6.543   1.564   1.173 -1.3175 -0.5237  1.4118
    3CHTO    C9 1215   6.754   1.732   1.352  0.4281  0.2818 -0.0702
    3CHTO   H22 1216   6.774   1.724   1.460  0.7455 -0.6605 -0.1961
    3CHTO    N2 1217   6.699   1.863   1.340 -0.4309 -0.1166  0.4312
    3CHTO   H10 1218   6.751   1.919   1.264  1.0343 -0.3660  1.2233
    3CHTO   H11 1219   6.597   1.850   1.308  0.3534 -0.1100 -2.1606
    3CHTO    C7 1220   6.894   1.709   1.276 -0.5509  0.4686 -0.2272
    3CHTO   H20 1221   6.958   1.687   1.364 -1.6744 -0.7438  0.2946
    3CHTO    O4 1222   6.895   1.581   1.201 -0.5265  0.2055  0.5633
    3CHTO   C14 1223   6.869   1.466   1.283 -0.4576  0.5089  0.1690
    3CHTO   H27 1224   6.957   1.468   1.351  0.0021 -0.6949 -0.3671
    3CHTO   C18 1225   6.889   1.333   1.197  0.0486 -0.2695 -0.2960
    3CHTO   O13 1226   6.814   1.336   1.078  0.0418  0.0935 -0.3688
    3CHTO    H7 1227   6.837   1.264   1.021 -2.9197  1.1423 -3.0541
    3CHTO    O2 1228   6.935   1.827   1.182  0.5465  0.8837 -0.1509
    3CHTO    C1 1229   7.070   1.872   1.184 -0.6649 -0.1208  0.5082
    3CHTO   H14 1230   7.063   1.967   1.125  1.7175  0.1640  0.6325
    3CHTO    C2 1231   7.172   1.775   1.104  0.4923 -0.2254 -0.3030
    3CHTO   H15 1232   7.159   1.678   1.154  0.2286  0.1707  0.4100
    3CHTO    O6 1233   7.131   1.757   0.969  0.2764  0.5263  0.2576
    3CHTO    H1 1234   7.157   1.834   0.921  0.4996 -0.0051 -0.4770
    3CHTO    C3 1235   7.330   1.818   1.129  0.4373 -0.0366 -0.1116
    3CHTO   H16 1236   7.346   1.917   1.084  1.7481 -0.2071 -0.0481
    3CHTO    N1 1237   7.432   1.727   1.064 -0.6199  0.0912  0.1157
    3CHTO    H8 1238   7.528   1.769   1.091  0.1749 -2.8982  2.1889
    3CHTO    H9 1239   7.437   1.737   0.957 -0.7716 -3.9295 -0.3501
    3CHTO    C4 1240   7.346   1.845   1.282 -0.0395 -0.0993  0.2368
    3CHTO   H17 1241   7.340   1.750   1.334 -0.0625 -1.3951 -2.0892
    3CHTO    O1 1242   7.256   1.936   1.347  0.1252 -0.1902 -0.4666
    3CHTO    C5 1243   7.113   1.917   1.328 -0.7285  0.1359  0.1302
    3CHTO   H18 1244   7.084   1.842   1.402  0.6426 -0.6640 -0.1271
    3CHTO   C16 1245   7.054   2.052   1.363 -0.1811 -0.2324  0.1493
    3CHTO   O11 1246   6.989   2.054   1.489 -0.5657  0.0784  0.1949
    3CHTO    H5 1247   6.962   2.138   1.520  1.7246  0.4677  1.2647
    3CHTO    O3 1248   7.478   1.901   1.309 -0.3674  0.6938  0.0850
    3CHTO    C6 1249   7.529   1.877   1.444  0.3596  0.7653 -0.3253
    3CHTO   H19 1250   7.451   1.846   1.514  0.7984 -1.2231 -0.7061
    3CHTO    C8 1251   7.634   1.754   1.444 -0.0182 -0.4944 -0.6450
    3CHTO   H21 1252   7.707   1.787   1.371 -2.5570 -0.2189 -3.1626
    3CHTO    O7 1253   7.565   1.636   1.401  0.0576 -0.7160  0.4367
    3CHTO    H2 1254   7.628   1.568   1.413  1.5102  0.7384  1.3528
    3CHTO   C12 1255   7.700   1.716   1.580  0.1489 -0.2340  0.3202
    3CHTO   H25 1256   7.630   1.663   1.648 -1.7344  0.7222 -0.8068
    3CHTO    N3 1257   7.811   1.618   1.565 -0.6013  0.3704  0.2106
    3CHTO   H12 1258   7.764   1.536   1.513 -0.3713  1.3790 -1.6401
    3CHTO   H13 1259   7.895   1.660   1.511  0.8735 -2.3648  0.2927
    3CHTO   C15 1260   7.744   1.852   1.656  0.3752 -0.8431  0.1994
    3CHTO   H28 1261   7.830   1.899   1.609  0.3292  1.1460  2.0595
    3CHTO   O10 1262   7.766   1.836   1.826  0.7591 -0.0390 -0.0391
    3CHTO    H4 1263   7.798   1.913   1.869 -1.5510  1.3283 -0.6790
    3CHTO    O5 1264   7.637   1.946   1.647 -0.4070 -0.3606  0.3116
    3CHTO   C10 1265   7.602   1.991   1.514 -0.8314 -0.1488  0.5334
    3CHTO   H23 1266   7.694   2.025   1.466 -1.5236  1.3516  0.2306
    3CHTO   C17 1267   7.517   2.116   1.542  0.5293  0.0904  0.0952
    3CHTO   O12 1268   7.607   2.224   1.575  0.2839 -0.7970  0.1022
    3CHTO    H6 1269   7.649   2.256   1.497 -1.5710  0.9113 -0.2154
    4CHTO  H203 1270   5.276   7.008   2.821  0.3915 -0.0129 -0.4447
    4CHTO   O82 1271   5.348   7.062   2.847  0.2056 -0.2265  0.5429
    4CHTO  C123 1272   5.311   7.194   2.891 -0.2467  0.1174 -0.0168
    4CHTO  H227 1273   5.248   7.189   2.981  1.9726  0.2583  1.5656
    4CHTO   O77 1274   5.445   7.246   2.934  0.1256  0.4536 -0.2622
    4CHTO  C118 1275   5.450   7.382   2.979 -0.1957  0.7004  1.0875
    4CHTO  H222 1276   5.379   7.405   3.060 -1.4732  1.5572 -0.2515
    4CHTO  C125 1277   5.593   7.418   3.037  0.5848  0.2543 -0.4828
    4CHTO   O84 1278   5.597   7.388   3.182  0.2961 -0.7885 -0.1778
    4CHTO  H205 1279   5.670   7.428   3.226 -0.9427 -0.2905  1.4960
    4CHTO  C114 1280   5.408   7.468   2.852  0.7381 -0.4579 -0.1636
    4CHTO  H218 1281   5.482   7.456   2.772  0.5353 -0.5204 -0.3443
    4CHTO  C116 1282   5.259   7.433   2.806 -0.0857  0.1495  0.0398
    4CHTO  H220 1283   5.194   7.474   2.886  0.4116  0.4855  0.2744
    4CHTO   O79 1284   5.240   7.520   2.698 -0.1604  0.1622  0.4550
    4CHTO  H201 1285   5.200   7.602   2.718  0.3264  0.1906  1.3325
    4CHTO  C120 1286   5.249   7.281   2.778  0.1885  0.8217 -0.0752
    4CHTO  H224 1287   5.306   7.267   2.683  0.3436  1.2585 -0.0465
    4CHTO   N21 1288   5.112   7.230   2.749 -0.1727 -0.3377  0.1561
    4CHTO  H211 1289   5.112   7.132   2.703  0.5908 -0.0451 -0.4699
    4CHTO  H212 1290   5.047   7.238   2.835 -3.0753 -0.0252 -1.9882
    4CHTO   O75 1291   5.410   7.606   2.904 -0.5155 -0.1072  0.0477
    4CHTO  C112 1292   5.499   7.706   2.812 -0.3510 -0.3146 -0.1113
    4CHTO  H216 1293   5.487   7.676   2.706  0.8423 -0.5084 -0.1979
    4CHTO   O73 1294   5.641   7.688   2.855  0.0843  0.3678 -0.1016
    4CHTO  C113 1295   5.730   7.772   2.782 -0.1812  0.5853  0.1511
    4CHTO  H217 1296   5.730   7.762   2.672 -0.7816 -1.5302  0.3184
    4CHTO  C124 1297   5.879   7.737   2.814  0.2907  0.3122 -0.2345
    4CHTO   O83 1298   5.920   7.774   2.951 -0.4237  0.2489  0.1538
    4CHTO  H204 1299   5.954   7.861   2.939  1.2976 -0.4689 -0.2681
    4CHTO  C109 1300   5.703   7.920   2.807  0.1778 -0.3158 -0.1791
    4CHTO  H213 1301   5.726   7.940   2.913 -1.2617 -0.1786  0.1176
    4CHTO  C110 1302   5.554   7.957   2.778  0.8037  0.1410  0.4634
    4CHTO  H214 1303   5.539   7.948   2.671  1.2036  1.5411  0.2788
    4CHTO   O78 1304   5.515   8.088   2.811  0.2367  0.4547  0.2681
    4CHTO  H200 1305   5.581   8.141   2.770  2.4118 -0.3294  2.6673
    4CHTO  C111 1306   5.454   7.854   2.837 -0.2971 -0.3962  0.2792
    4CHTO  H215 1307   5.444   7.867   2.945  2.1283  0.1933  0.4445
    4CHTO   N19 1308   5.313   7.868   2.776  0.3326  0.5660 -0.3629
    4CHTO  H207 1309   5.325   7.864   2.669  0.1419 -1.3544 -0.3292
    4CHTO  H208 1310   5.283   7.964   2.813 -1.4700 -0.2665  0.3896
    4CHTO   O74 1311   5.794   8.006   2.730  0.6658  0.4509 -0.0379
    4CHTO  C115 1312   5.828   8.142   2.814 -0.1328 -0.1771  0.8787
    4CHTO  H219 1313   5.745   8.175   2.876  0.7598  1.4735  1.2065
    4CHTO   O76 1314   5.945   8.119   2.904  0.2655 -0.2437  0.5624
    4CHTO  C122 1315   6.069   8.114   2.842  0.3775  0.2966 -0.3676
    4CHTO  H226 1316   6.054   8.034   2.769  0.7846 -0.2134  0.1009
    4CHTO  C126 1317   6.185   8.065   2.938 -0.1455  0.1057 -0.3637
    4CHTO   O85 1318   6.195   7.919   2.935  0.1993 -0.2601  0.1938
    4CHTO  H206 1319   6.105   7.893   2.933  0.3439 -0.7937  0.5766
    4CHTO  C121 1320   6.103   8.246   2.760 -0.1897  0.3853 -0.6501
    4CHTO  H225 1321   6.171   8.302   2.827 -1.6838  2.4006 -0.7599
    4CHTO   O81 1322   6.163   8.210   2.630  0.0056 -0.2897  0.3532
    4CHTO  H202 1323   6.141   8.260   2.554 -0.2797 -1.6170 -0.4374
    4CHTO  C119 1324   5.981   8.339   2.731 -0.1402 -0.1145  0.6291
    4CHTO  H223 1325   5.953   8.396   2.820  1.3157  1.1948  0.2878
    4CHTO  C117 1326   5.855   8.255   2.699 -0.2881  0.2872  0.1984
    4CHTO  H221 1327   5.859   8.195   2.609 -0.6682  1.2325 -0.4505
    4CHTO   N20 1328   5.745   8.347   2.679  0.2079  0.0114 -0.8056
    4CHTO  H209 1329   5.668   8.294   2.625 -0.4200  0.5853 -0.4759
    4CHTO  H210 1330   5.708   8.377   2.775 -0.3275 -2.1342 -0.3165
    4CHTO   O80 1331   6.015   8.471   2.620  0.0900 -0.0938 -0.0787
    4CHTO  C103 1332   6.128   8.572   2.651 -0.2172  0.1445  0.5425
    4CHTO  H190 1333   6.129   8.604   2.755 -1.0895 -2.0923  1.2692
    4CHTO  C101 1334   6.275   8.528   2.608  0.2334  0.0120  0.8069
    4CHTO  H188 1335   6.269   8.461   2.522 -2.7879 -2.6872  3.0317
    4CHTO   O68 1336   6.335   8.429   2.720 -0.1884  0.0880 -0.2067
    4CHTO  H168 1337   6.406   8.379   2.683  0.0313 -0.8640  1.4520
    4CHTO   C99 1338   6.372   8.651   2.578  0.6108  0.9012  0.0638
    4CHTO  H186 1339   6.392   8.704   2.674  2.9037  2.5576 -1.2593
    4CHTO   N17 1340   6.510   8.618   2.526 -0.6546  0.6565 -0.1152
    4CHTO  H174 1341   6.546   8.691   2.455  0.0411  1.5613  1.1271
    4CHTO  H175 1342   6.581   8.610   2.607  0.2216 -1.9637 -1.1004
    4CHTO   C97 1343   6.300   8.754   2.485  0.6227  0.5067 -0.2207
    4CHTO  H184 1344   6.281   8.719   2.383 -0.1820  0.3959 -0.0405
    4CHTO   O64 1345   6.184   8.793   2.552  0.5041 -0.3609 -0.4724
    4CHTO  C104 1346   6.078   8.695   2.556 -0.2876  0.1933 -0.0867
    4CHTO  H191 1347   6.049   8.664   2.456  1.4449  0.8976 -0.8233
    4CHTO  C108 1348   5.953   8.764   2.609  0.4488 -0.5125  0.2522
    4CHTO   O71 1349   5.915   8.870   2.521 -0.4408 -0.3430  0.1682
    4CHTO  H171 1350   5.886   8.830   2.441  1.2157 -1.0680 -0.0740
    4CHTO   O62 1351   6.366   8.885   2.489 -0.3962 -0.2008  0.0516
    4CHTO   C91 1352   6.404   8.921   2.352 -0.2429  0.8030  0.1880
    4CHTO  H178 1353   6.453   8.838   2.303  0.5540  0.7778  1.0147
    4CHTO   C92 1354   6.512   9.032   2.369 -0.7181 -0.2326 -0.3479
    4CHTO  H179 1355   6.469   9.111   2.432 -2.9818  0.6430 -2.8723
    4CHTO   O66 1356   6.631   8.999   2.438  0.4311  0.4776  0.3660
    4CHTO  H166 1357   6.623   9.012   2.530 -1.2737  0.9021  0.1801
    4CHTO   C93 1358   6.563   9.104   2.229  0.4940  0.3642 -0.2260
    4CHTO  H180 1359   6.659   9.053   2.213 -0.8103 -2.5076  0.6646
    4CHTO   N16 1360   6.593   9.249   2.239  0.3344  0.1880  0.7852
    4CHTO  H172 1361   6.670   9.294   2.178 -1.0064  0.8327 -0.4394
    4CHTO  H173 1362   6.611   9.275   2.342 -1.9458 -0.2085  1.3006
    4CHTO   C94 1363   6.465   9.065   2.109  0.3762 -0.0249 -0.0721
    4CHTO  H181 1364   6.461   9.143   2.033  0.1329  1.8964  1.8676
    4CHTO   O61 1365   6.328   9.067   2.152 -0.2200  0.4763 -0.0847
    4CHTO   C95 1366   6.283   8.974   2.256 -0.1126 -0.3703  0.1894
    4CHTO  H182 1367   6.202   9.023   2.310 -0.5225  0.2553 -0.9894
    4CHTO  C106 1368   6.192   8.858   2.182 -0.0360  0.0189  0.5770
    4CHTO   O69 1369   6.261   8.754   2.116 -0.2710  0.3236  0.2719
    4CHTO  H169 1370   6.283   8.695   2.185  0.2566  3.2115  2.6650
    4CHTO   O63 1371   6.496   8.925   2.061 -0.4171  0.0897  0.3757
    4CHTO   C96 1372   6.597   8.888   1.965  0.5168 -0.2570 -0.5661
    4CHTO  H183 1373   6.691   8.934   1.996  0.8417 -2.1894  1.4782
    4CHTO   C98 1374   6.555   8.924   1.816 -0.1062 -0.2796 -1.0092
    4CHTO  H185 1375   6.449   8.898   1.810 -0.2844  0.6535 -2.0326
    4CHTO   O67 1376   6.558   9.072   1.808 -0.0383  0.1341  0.3346
    4CHTO  H167 1377   6.644   9.101   1.831 -0.3049 -0.1712  1.7766
    4CHTO  C102 1378   6.654   8.856   1.713  0.2778 -0.0160 -0.3625
    4CHTO  H189 1379   6.752   8.904   1.723  0.6423 -1.1701  2.0274
    4CHTO   N18 1380   6.608   8.879   1.576 -0.3428  0.7463  0.6743
    4CHTO  H176 1381   6.681   8.942   1.527  0.3499 -0.3461  0.2858
    4CHTO  H177 1382   6.508   8.918   1.569 -1.6226 -2.3238  1.2588
    4CHTO  C105 1383   6.668   8.707   1.746 -0.0635  0.6294 -0.2994
    4CHTO  H192 1384   6.571   8.658   1.733  0.6469 -0.2761 -2.4518
    4CHTO   O65 1385   6.711   8.683   1.881  0.2306  0.6085  0.5699
    4CHTO  C100 1386   6.616   8.731   1.974 -0.4434  0.3180  0.7338
    4CHTO  H187 1387   6.518   8.687   1.948 -0.4908  0.6924  0.2729
    4CHTO  C107 1388   6.661   8.691   2.115 -0.0710  0.1283 -0.9055
    4CHTO   O70 1389   6.701   8.555   2.138 -0.2013  0.2718 -0.3092
    4CHTO  H170 1390   6.763   8.539   2.207 -1.4058 -1.8612  0.3353
    4CHTO   O57 1391   6.784   8.619   1.640  0.0419  0.2674 -0.3170
    4CHTO   C85 1392   6.756   8.490   1.577  0.0044  0.2423 -0.3842
    4CHTO  H157 1393   6.647   8.490   1.598  0.0635 -0.7618 -0.0414
    4CHTO   C83 1394   6.812   8.371   1.662  0.0271  1.0652 -0.2847
    4CHTO  H155 1395   6.765   8.381   1.760  1.1593  2.0120  0.1690
    4CHTO   O56 1396   6.951   8.371   1.690  0.1054 -0.7441  0.1367
    4CHTO  H135 1397   6.997   8.361   1.609 -0.8263  3.1298 -1.0027
    4CHTO   C81 1398   6.762   8.237   1.595 -0.7543 -0.2130 -0.1248
    4CHTO  H153 1399   6.655   8.248   1.575 -0.5239  1.7948 -0.4061
    4CHTO   N14 1400   6.761   8.116   1.684 -0.2667  0.5552 -0.5247
    4CHTO  H141 1401   6.851   8.058   1.693  0.2202  1.5689  1.5508
    4CHTO  H142 1402   6.677   8.053   1.664 -0.0377  0.6589 -1.8200
    4CHTO   C79 1403   6.830   8.224   1.452 -0.3178 -0.0696  0.6339
    4CHTO  H151 1404   6.781   8.141   1.402  0.4147  0.3000 -0.7366
    4CHTO   O52 1405   6.825   8.349   1.366 -0.2156  0.1862 -0.0018
    4CHTO   C86 1406   6.783   8.480   1.428 -0.2671  0.2054  0.1468
    4CHTO  H158 1407   6.868   8.549   1.409  1.1868 -1.0983  1.8002
    4CHTO   C90 1408   6.664   8.539   1.341 -0.1664  0.4757 -0.3147
    4CHTO   O60 1409   6.551   8.448   1.336  0.2079  1.1791  0.0884
    4CHTO  H138 1410   6.524   8.434   1.247  3.0230  1.0787 -0.8216
    4CHTO   O50 1411   6.964   8.196   1.481 -0.4061  0.0199  0.2752
    4CHTO   C73 1412   7.098   8.176   1.429  0.2608  0.2076  0.5765
    4CHTO  H145 1413   7.158   8.267   1.441 -0.7234  1.0590 -0.9071
    4CHTO   C74 1414   7.094   8.154   1.277 -0.8610 -0.0287 -0.8256
    4CHTO  H146 1415   7.037   8.239   1.235 -1.0992  0.7789  1.0633
    4CHTO   O54 1416   7.227   8.159   1.230  0.0620 -0.5554 -0.5510
    4CHTO  H133 1417   7.270   8.075   1.228  0.2932 -0.4535  0.1616
    4CHTO   C75 1418   7.028   8.016   1.242 -0.5349 -0.3069 -0.2140
    4CHTO  H147 1419   6.926   8.015   1.283 -0.4680  0.0820 -0.0378
    4CHTO   N13 1420   7.029   7.986   1.095 -0.2636  0.2562  0.2644
    4CHTO  H139 1421   6.957   7.909   1.070  1.0567 -0.2315 -2.2126
    4CHTO  H140 1422   7.019   8.075   1.034  0.0982 -0.7663 -1.3061
    4CHTO   C76 1423   7.102   7.898   1.322 -0.4164 -0.2768  0.1175
    4CHTO  H148 1424   7.204   7.882   1.287 -0.5176 -0.9470  0.1324
    4CHTO   O49 1425   7.102   7.937   1.464  0.6479 -0.2068 -0.1592
    4CHTO   C77 1426   7.174   8.057   1.499  0.0121  0.0405  0.1550
    4CHTO  H149 1427   7.280   8.058   1.474 -0.1834  0.5051 -0.6922
    4CHTO   C88 1428   7.163   8.081   1.649 -0.1035  0.4866 -0.0857
    4CHTO   O58 1429   7.209   7.981   1.721 -0.2463  0.5292  0.5400
    4CHTO  H136 1430   7.237   8.021   1.801  2.5561 -1.8235  0.8063
    4CHTO   O51 1431   7.010   7.762   1.322  0.3542 -0.4942 -0.5953
    4CHTO   C78 1432   7.083   7.651   1.408  0.0025  0.3165 -0.0685
    4CHTO  H150 1433   7.130   7.701   1.495  3.7134 -0.9838 -1.2525
    4CHTO   C80 1434   7.192   7.577   1.328  0.0838 -0.0551 -0.4911
    4CHTO  H152 1435   7.150   7.547   1.229 -0.0196  0.6087 -0.6536
    4CHTO   O55 1436   7.308   7.662   1.295  0.1631 -0.0192  0.2324
    4CHTO  H134 1437   7.280   7.735   1.243  0.3535 -0.5706 -0.6582
    4CHTO   C84 1438   7.248   7.443   1.397  0.1616  0.8822  0.4003
    4CHTO  H156 1439   7.289   7.462   1.496  2.1767  1.1589 -0.4590
    4CHTO   N15 1440   7.352   7.365   1.321 -0.7633 -0.0115  0.0549
    4CHTO  H143 1441   7.373   7.268   1.360  0.1692 -0.2378 -0.9885
    4CHTO  H144 1442   7.445   7.419   1.322  0.5943 -2.2779  0.4989
    4CHTO   C87 1443   7.118   7.367   1.426 -0.5587  0.8400  0.2234
    4CHTO  H159 1444   7.065   7.326   1.340  0.1310 -0.1468  0.2588
    4CHTO   O53 1445   7.035   7.440   1.519 -0.1366  0.2469 -0.5377
    4CHTO   C82 1446   6.975   7.555   1.454  0.6592  0.3657 -0.5267
    4CHTO  H154 1447   6.922   7.524   1.364 -1.8612  0.9551  0.7048
    4CHTO   C89 1448   6.860   7.619   1.550  0.0427 -0.5940  0.2651
    4CHTO   O59 1449   6.907   7.689   1.663 -0.2970  0.2846  0.4809
    4CHTO  H137 1450   6.837   7.748   1.682 -2.4787 -1.6912 -1.1715
    4CHTO   O45 1451   7.169   7.227   1.522 -0.1825 -0.0185 -0.4905
    4CHTO   C67 1452   7.142   7.100   1.464  0.1979 -0.4000 -0.4572
    4CHTO  H124 1453   7.160   7.102   1.356  1.5593 -0.1296 -0.2340
    4CHTO   C65 1454   7.229   6.985   1.527 -0.7682  0.0244  0.0273
    4CHTO  H122 1455   7.327   7.033   1.522 -1.1685  1.0106  1.3150
    4CHTO   O44 1456   7.241   6.860   1.455 -0.4897  0.1865 -0.1232
    4CHTO  H102 1457   7.259   6.789   1.514  1.2511  0.0813 -0.7434
    4CHTO   C63 1458   7.182   6.981   1.679 -0.7243  0.8009  0.2636
    4CHTO  H120 1459   7.200   7.081   1.718  1.2183  0.3848  0.5254
    4CHTO   N11 1460   7.266   6.895   1.770  0.3335  0.0159 -0.2843
    4CHTO  H108 1461   7.229   6.795   1.777  0.2791  0.1299  1.3165
    4CHTO  H109 1462   7.267   6.928   1.872  0.0704  1.4682 -0.7365
    4CHTO   C61 1463   7.032   6.945   1.687 -0.0381  0.8312 -0.3229
    4CHTO  H118 1464   7.003   6.953   1.793  0.6086 -3.5836  0.2948
    4CHTO   O40 1465   6.947   7.037   1.615  0.3704  0.1832 -0.1822
    4CHTO   C68 1466   6.995   7.063   1.478  0.3484 -0.2484 -0.5059
    4CHTO  H125 1467   6.944   7.156   1.445  0.8445  0.6177  1.1112
    4CHTO   C72 1468   6.957   6.957   1.373 -0.0087 -0.3001 -0.4935
    4CHTO   O48 1469   6.817   6.922   1.394  0.1642 -1.0252  0.3324
    4CHTO  H105 1470   6.772   6.983   1.339  1.9884  1.1537  1.2319
    4CHTO   O38 1471   6.997   6.805   1.657  0.0172  0.2607  0.4543
    4CHTO   C55 1472   6.925   6.740   1.766 -0.3837  0.1448 -0.7022
    4CHTO  H112 1473   6.917   6.796   1.861 -1.1373 -1.6765  0.3266
    4CHTO   C56 1474   6.999   6.607   1.784 -0.1735  0.1474  0.1899
    4CHTO  H113 1475   7.006   6.554   1.688 -0.6275 -0.2938  0.3957
    4CHTO   O42 1476   7.137   6.631   1.823  0.3703 -0.2789  0.0236
    4CHTO  H100 1477   7.174   6.682   1.753  0.9746  0.6620  1.0175
    4CHTO   C57 1478   6.933   6.513   1.892  0.1951 -0.4661 -0.1808
    4CHTO  H114 1479   6.952   6.557   1.989 -2.2622 -0.4126  0.3052
    4CHTO   N10 1480   6.997   6.378   1.886  0.2145  0.4499 -0.5296
    4CHTO  H106 1481   7.022   6.349   1.785  0.4755 -4.3814  0.7862
    4CHTO  H107 1482   7.090   6.394   1.939 -0.6731  0.3897  1.0966
    4CHTO   C58 1483   6.777   6.502   1.875  0.0877  1.1899 -0.2958
    4CHTO  H115 1484   6.751   6.436   1.790 -0.7947  1.1429 -0.0033
    4CHTO   O37 1485   6.718   6.628   1.837  0.2157  0.1266  0.4989
    4CHTO   C59 1486   6.782   6.700   1.729  0.4935  0.4938 -0.4164
    4CHTO  H116 1487   6.784   6.641   1.638  1.2571  0.6038 -0.4756
    4CHTO   C70 1488   6.697   6.820   1.707  0.0814  0.0803  0.7558
    4CHTO   O46 1489   6.580   6.782   1.637  0.2451  0.1677  0.3367
    4CHTO  H103 1490   6.552   6.851   1.580  0.6607  0.1159  0.0635
    4CHTO   O39 1491   6.704   6.453   2.013  0.2504  0.6444  0.0854
    4CHTO   C60 1492   6.563   6.420   1.980 -0.8713 -0.3520 -0.4472
    4CHTO  H117 1493   6.540   6.455   1.879 -0.0642  1.6245  0.0233
    4CHTO   C62 1494   6.539   6.268   1.985 -0.0688  0.1754  0.2355
    4CHTO  H119 1495   6.600   6.240   1.897  0.2718 -1.1406  0.8675
    4CHTO   O43 1496   6.585   6.216   2.112 -0.6206 -0.6358 -0.4552
    4CHTO  H101 1497   6.517   6.234   2.173 -0.5504 -0.7552 -0.3432
    4CHTO   C66 1498   6.388   6.244   1.950 -0.2590  0.3316 -0.2439
    4CHTO  H123 1499   6.371   6.291   1.853  1.0323  2.9449  0.7465
    4CHTO   N12 1500   6.352   6.104   1.936  0.0289 -0.3493  0.2807
    4CHTO  H110 1501   6.247   6.095   1.913  0.1222 -1.4419  0.2616
    4CHTO  H111 1502   6.415   6.042   1.874 -1.5405 -1.6642 -0.0435
    4CHTO   C69 1503   6.298   6.319   2.051 -0.5948 -0.5531  0.1929
    4CHTO  H126 1504   6.320   6.283   2.154  1.9145 -0.0493 -0.1466
    4CHTO   O41 1505   6.341   6.472   2.032  0.0327  0.0610  0.2470
    4CHTO   C64 1506   6.464   6.499   2.074 -0.4792 -0.0344  0.3588
    4CHTO  H121 1507   6.468   6.469   2.181 -0.3070 -0.2497  0.2925
    4CHTO   C71 1508   6.497   6.650   2.068 -0.2784 -0.1755 -0.7842
    4CHTO   O47 1509   6.409   6.746   2.129  0.5514 -0.1750 -0.1634
    4CHTO  H104 1510   6.426   6.830   2.091  1.0802 -0.3573 -0.3341
    4CHTO   O34 1511   6.150   6.311   2.018 -0.4060  0.2375  0.2328
    4CHTO   C49 1512   6.015   6.347   2.024  0.2057  0.3192  0.4044
    4CHTO   H91 1513   5.992   6.374   2.127 -0.3920  0.0690  0.3361
    4CHTO   C47 1514   5.926   6.226   1.981  0.2951  0.1251  0.4393
    4CHTO   H89 1515   5.828   6.261   2.019 -1.0698 -1.2773 -1.6706
    4CHTO   O33 1516   5.965   6.108   2.059  0.3279  0.0374  0.3578
    4CHTO   H70 1517   5.912   6.034   2.036 -1.8417  1.7352 -0.2770
    4CHTO   C45 1518   5.955   6.202   1.822  0.5609  0.2178  0.2598
    4CHTO   H87 1519   6.031   6.123   1.819 -0.2695 -0.5628 -0.2971
    4CHTO    N8 1520   5.826   6.154   1.757 -0.5347  0.0393  0.1427
    4CHTO   H75 1521   5.792   6.071   1.816 -2.1314  1.9038  1.9128
    4CHTO   H76 1522   5.841   6.116   1.656 -1.1187  1.4789 -0.4958
    4CHTO   C43 1523   6.033   6.323   1.761 -0.1791 -0.8177 -0.4204
    4CHTO   H85 1524   6.132   6.310   1.804 -0.0619  1.6358  0.1190
    4CHTO   O29 1525   5.984   6.448   1.801 -0.0329 -0.1344 -0.1266
    4CHTO   C50 1526   5.987   6.475   1.939  0.1531 -0.0322  0.9678
    4CHTO   H92 1527   6.064   6.551   1.963  0.3505  0.1497 -0.2112
    4CHTO   C54 1528   5.857   6.545   1.986 -0.4261 -0.0955  0.0123
    4CHTO   O36 1529   5.821   6.640   1.884 -0.5996 -0.2888  0.2569
    4CHTO   H72 1530   5.729   6.659   1.890 -0.4019  0.8924 -0.2636
    4CHTO   O27 1531   6.057   6.319   1.620 -0.0010  0.8001 -0.3231
    4CHTO   C37 1532   6.167   6.284   1.526  0.6138 -0.9453 -0.5223
    4CHTO   H79 1533   6.123   6.274   1.426  0.0609  0.6498 -0.4553
    4CHTO   C38 1534   6.266   6.405   1.540  0.2179  0.7962 -0.1443
    4CHTO   H80 1535   6.291   6.413   1.646  1.8369  0.1113 -0.4694
    4CHTO   O31 1536   6.199   6.519   1.494 -0.2027 -0.4277  0.2754
    4CHTO   H68 1537   6.135   6.546   1.558 -1.0695 -1.2994 -0.2004
    4CHTO   C39 1538   6.405   6.369   1.476  0.0251 -0.4709 -0.3321
    4CHTO   H81 1539   6.400   6.355   1.368 -0.4678  2.4194 -0.7228
    4CHTO    N7 1540   6.509   6.478   1.493 -0.4184  0.7091  0.1407
    4CHTO   H73 1541   6.515   6.541   1.405  2.0241 -2.2736 -1.9380
    4CHTO   H74 1542   6.609   6.439   1.505 -1.8200 -2.9801  0.5717
    4CHTO   C40 1543   6.453   6.233   1.534  0.0305 -0.1147 -0.4840
    4CHTO   H82 1544   6.453   6.239   1.643 -0.9046 -2.8651 -0.2910
    4CHTO   O26 1545   6.362   6.134   1.494  0.0691  0.2228 -0.3406
    4CHTO   C41 1546   6.234   6.149   1.564  0.0488  0.1224 -0.1682
    4CHTO   H83 1547   6.243   6.154   1.674 -1.3951  2.0915 -0.1346
    4CHTO   C52 1548   6.141   6.032   1.523 -0.4107  0.6409 -0.3956
    4CHTO   O35 1549   6.214   5.910   1.537  0.4665  0.1242 -0.0008
    4CHTO   H71 1550   6.156   5.838   1.520  1.1495 -0.4960  0.2071
    4CHTO   O28 1551   6.569   6.183   1.473  0.2242  0.1542 -0.2981
    4CHTO   C42 1552   6.647   6.079   1.555  0.2477  0.0968 -0.1399
    4CHTO   H84 1553   6.709   6.034   1.477  0.1376  2.2869 -1.5358
    4CHTO   C44 1554   6.558   5.961   1.611  0.2121 -0.5138  0.5684
    4CHTO   H86 1555   6.475   6.005   1.666 -1.2765 -1.1723 -1.1012
    4CHTO   O32 1556   6.503   5.890   1.499 -0.0107 -0.3471 -0.8067
    4CHTO   H69 1557   6.440   5.827   1.531 -0.4169 -0.2768 -1.4557
    4CHTO   C48 1558   6.630   5.857   1.710  0.9348 -0.1266  0.0877
    4CHTO   H90 1559   6.697   5.800   1.647  0.8749 -0.0307 -0.0623
    4CHTO    N9 1560   6.534   5.763   1.768  0.0173 -0.3166 -0.5189
    4CHTO   H77 1561   6.505   5.687   1.696  1.7846  0.4628 -2.0886
    4CHTO   H78 1562   6.570   5.712   1.857  0.1448 -1.1867 -1.0571
    4CHTO   C51 1563   6.713   5.945   1.815 -0.0982 -0.1924 -0.2665
    4CHTO   H93 1564   6.640   6.009   1.864  1.3775  0.3718  1.2272
    4CHTO   O30 1565   6.806   6.026   1.737  0.0997 -0.1347 -0.6941
    4CHTO   C46 1566   6.741   6.133   1.663  0.6164 -0.3954 -0.2098
    4CHTO   H88 1567   6.686   6.193   1.736  0.8665 -0.6307  0.1724
    4CHTO   C53 1568   6.855   6.214   1.592 -0.1795  0.0323 -0.0699
    4CHTO   O72 1569   6.800   6.344   1.565  0.3024  0.2401 -0.3119
    4CHTO  H199 1570   6.825   6.406   1.631  0.3012 -0.3142  0.2149
    4CHTO   O22 1571   6.799   5.874   1.907 -0.3362  0.7505  0.6293
    4CHTO   C31 1572   6.819   5.932   2.037 -0.0125 -0.0707 -0.4615
    4CHTO   H59 1573   6.798   6.040   2.029 -0.1054 -0.2548 -2.9249
    4CHTO   C29 1574   6.717   5.882   2.142 -0.4093 -0.5271 -0.0905
    4CHTO   H57 1575   6.727   5.773   2.151  0.0981 -0.3242  2.1196
    4CHTO   O21 1576   6.586   5.901   2.095 -0.6574  0.3946  0.0626
    4CHTO   H37 1577   6.532   5.854   2.154  0.1486 -0.9324 -0.2382
    4CHTO   C27 1578   6.731   5.955   2.284 -0.2322  0.4492  0.3483
    4CHTO   H55 1579   6.710   6.062   2.267  1.1636  0.5930 -0.5794
    4CHTO    N5 1580   6.625   5.908   2.378  0.9764  0.5599 -0.1740
    4CHTO   H43 1581   6.641   5.805   2.408 -1.6825  0.1701 -0.0273
    4CHTO   H44 1582   6.623   5.958   2.474  0.7897 -1.0832  0.7028
    4CHTO   C25 1583   6.879   5.948   2.334  0.1434 -0.3294  0.5413
    4CHTO   H53 1584   6.893   5.849   2.379 -0.6304  0.2552  2.0970
    4CHTO   O17 1585   6.972   5.974   2.222  0.3653 -0.2399 -0.4385
    4CHTO   C32 1586   6.964   5.915   2.093 -1.2531 -0.8787  0.6196
    4CHTO   H60 1587   6.988   5.810   2.107  0.4468 -0.3560  1.8197
    4CHTO   C36 1588   7.065   5.988   1.993  0.6972  0.3658  0.5348
    4CHTO   O25 1589   7.197   5.939   1.988  0.7031 -0.1829 -0.2308
    4CHTO   H40 1590   7.256   6.010   2.005  0.1565 -0.2128  1.9769
    4CHTO   O15 1591   6.906   6.049   2.451  0.4703  0.0832 -0.2525
    4CHTO   C19 1592   6.883   6.191   2.489 -0.9715 -0.5552 -0.2202
    4CHTO   H47 1593   6.960   6.206   2.566 -2.0497  2.2099  0.4076
    4CHTO   C20 1594   6.897   6.302   2.373  0.3648  0.8877  0.1666
    4CHTO   H48 1595   6.810   6.298   2.306  1.7189 -1.7967 -1.5596
    4CHTO   O19 1596   7.021   6.276   2.298  0.1234  0.0926 -0.0807
    4CHTO   H35 1597   7.095   6.283   2.355 -0.8009  0.6307  1.0717
    4CHTO   C21 1598   6.903   6.445   2.441  0.0579  0.7745 -0.4362
    4CHTO   H49 1599   6.989   6.444   2.508 -0.0997  1.6034 -0.2193
    4CHTO    N4 1600   6.930   6.550   2.342 -0.5109  0.0653 -0.8711
    4CHTO   H41 1601   6.841   6.610   2.334 -1.5026 -1.2612 -0.0237
    4CHTO   H42 1602   7.008   6.616   2.375 -1.2974  0.1549  0.8900
    4CHTO   C22 1603   6.786   6.461   2.536 -0.0930  0.0052  0.0405
    4CHTO   H50 1604   6.697   6.485   2.477 -0.1303 -1.4652 -0.5079
    4CHTO   O14 1605   6.760   6.352   2.621 -1.0197 -0.5294  0.3116
    4CHTO   C23 1606   6.743   6.222   2.556  0.0319  0.2568 -0.2871
    4CHTO   H51 1607   6.664   6.233   2.481  0.1460  1.2443 -0.2609
    4CHTO   C34 1608   6.703   6.108   2.648 -0.3115 -0.0460  0.0931
    4CHTO   O23 1609   6.599   6.120   2.743  0.1843  0.3256  0.0407
    4CHTO   H38 1610   6.619   6.168   2.821 -0.2600 -0.1812  0.4703
    4CHTO   O16 1611   6.812   6.564   2.631  0.8805  0.1891  0.0964
    4CHTO   C24 1612   6.676   6.629   2.685 -0.0663  0.0545  0.4399
    4CHTO   H52 1613   6.588   6.598   2.628 -0.0611 -0.3423  0.6475
    4CHTO   C26 1614   6.699   6.786   2.660 -0.3344 -0.2341  0.2548
    4CHTO   H54 1615   6.764   6.792   2.570 -1.4883 -0.3812 -0.6023
    4CHTO   O20 1616   6.577   6.858   2.640 -0.6000 -0.2177  0.3660
    4CHTO   H36 1617   6.594   6.950   2.630 -0.9724 -0.1406  0.4477
    4CHTO   C30 1618   6.772   6.863   2.776 -0.0977  0.6811  0.8869
    4CHTO   H58 1619   6.692   6.924   2.821  0.4406  1.2919  1.0217
    4CHTO    N6 1620   6.872   6.963   2.729 -0.1504  0.8130  0.4077
    4CHTO   H45 1621   6.932   7.016   2.802  1.9947 -2.9108  1.4612
    4CHTO   H46 1622   6.826   7.033   2.660  0.0542  1.3478  0.8093
    4CHTO   C33 1623   6.818   6.770   2.888 -0.7466  0.5851 -0.7136
    4CHTO   H61 1624   6.896   6.703   2.850 -1.2238 -1.5307  1.9136
    4CHTO   O18 1625   6.704   6.691   2.923 -0.1857 -0.3568  0.0840
    4CHTO   C28 1626   6.650   6.590   2.834 -0.1870 -0.2661 -0.1026
    4CHTO   H56 1627   6.692   6.491   2.846  0.7526  0.1354 -0.0512
    4CHTO   C35 1628   6.498   6.592   2.865 -0.1033  0.2744  0.2492
    4CHTO   O24 1629   6.463   6.535   2.987  0.1903  0.9421 -0.4265
    4CHTO   H39 1630   6.464   6.441   2.985 -0.0319  0.9574 -2.2702
    4CHTO    O9 1631   6.874   6.833   3.001  0.2225 -0.1421 -0.5070
    4CHTO   C13 1632   7.031   6.755   3.056 -0.0963 -0.4556  1.1388
    4CHTO   H26 1633   7.102   6.766   2.971 -0.1826  0.5275  1.1957
    4CHTO   C11 1634   6.995   6.598   3.083 -0.4383  0.2773  0.1925
    4CHTO   H24 1635   6.995   6.545   2.987 -0.2265 -1.0619  0.9309
    4CHTO    O8 1636   6.863   6.587   3.146 -0.1515 -0.2468  0.0637
    4CHTO    H3 1637   6.800   6.640   3.101 -1.4200  1.2205  3.4570
    4CHTO    C9 1638   7.109   6.542   3.164  0.0658  0.0388  0.2394
    4CHTO   H22 1639   7.202   6.562   3.109 -1.5407  0.2508 -2.5145
    4CHTO    N2 1640   7.100   6.390   3.172  0.0628  0.1898  0.0701
    4CHTO   H10 1641   7.010   6.354   3.124 -0.5215  0.1450  1.1769
    4CHTO   H11 1642   7.191   6.347   3.134  2.5241  2.4798  3.1040
    4CHTO    C7 1643   7.122   6.620   3.302 -0.5365  0.4613 -0.1352
    4CHTO   H20 1644   7.232   6.612   3.313 -0.5872  0.9028  0.6882
    4CHTO    O4 1645   7.083   6.760   3.296 -0.1730  0.6801 -0.3423
    4CHTO   C14 1646   7.096   6.829   3.175  0.6495  0.4784 -0.0164
    4CHTO   H27 1647   7.204   6.840   3.154  0.5329  1.7750  0.0763
    4CHTO   C18 1648   7.034   6.973   3.181 -0.3136 -0.0611 -0.7373
    4CHTO   O13 1649   7.127   7.071   3.125 -0.5513  0.4576 -0.1079
    4CHTO    H7 1650   7.207   7.054   3.170  0.2076  0.1244 -1.5548
    4CHTO    O2 1651   7.052   6.553   3.430 -0.1933 -0.1782 -0.7537
    4CHTO    C1 1652   7.134   6.524   3.544 -0.7348 -0.4287 -0.3186
    4CHTO   H14 1653   7.203   6.610   3.558 -2.8241  1.3279 -0.4521
    4CHTO    C2 1654   7.223   6.398   3.523 -0.7904 -0.6641 -0.2597
    4CHTO   H15 1655   7.156   6.321   3.482 -1.1679  0.5798 -2.0584
    4CHTO    O6 1656   7.325   6.423   3.422 -0.8280 -0.1629  0.2767
    4CHTO    H1 1657   7.300   6.454   3.337  1.1532 -0.8188 -0.5681
    4CHTO    C3 1658   7.289   6.350   3.664  0.2017  0.0675 -0.2566
    4CHTO   H16 1659   7.366   6.424   3.690 -2.1656  2.6638 -0.4411
    4CHTO    N1 1660   7.359   6.216   3.642  0.0201 -0.0531 -0.0814
    4CHTO    H8 1661   7.327   6.165   3.552 -0.1317 -0.8046  0.3917
    4CHTO    H9 1662   7.364   6.152   3.728  2.0914 -0.1510 -0.2674
    4CHTO    C4 1663   7.193   6.351   3.788  0.7713  0.6682 -0.5848
    4CHTO   H17 1664   7.124   6.268   3.770  0.3151  1.2856 -1.7332
    4CHTO    O1 1665   7.126   6.481   3.796 -0.1629  0.5209  0.0740
    4CHTO    C5 1666   7.049   6.511   3.680 -0.4622  0.2052 -0.0540
    4CHTO   H18 1667   6.984   6.428   3.650 -3.2185  1.7170  1.5668
    4CHTO   C16 1668   6.957   6.628   3.723  0.1135 -0.2625 -0.6725
    4CHTO   O11 1669   6.867   6.588   3.827 -0.1317  0.0590  1.0612
    4CHTO    H5 1670   6.904   6.611   3.910  0.3786 -2.2134  1.5028
    4CHTO    O3 1671   7.271   6.331   3.908  0.0548  0.1778 -0.1811
    4CHTO    C6 1672   7.207   6.269   4.024  0.1355  0.2054  0.1392
    4CHTO   H19 1673   7.098   6.276   4.013  0.0856 -0.0217  0.4898
    4CHTO    C8 1674   7.254   6.120   4.045  0.1419 -0.2915  0.0879
    4CHTO   H21 1675   7.362   6.117   4.032  0.1432 -2.5765  0.4602
    4CHTO    O7 1676   7.202   6.046   3.930 -0.3245 -0.5373 -0.4474
    4CHTO    H2 1677   7.272   6.006   3.883 -0.3970 -1.6376  0.3641
    4CHTO   C12 1678   7.193   6.052   4.174  0.6846 -0.6487 -0.1153
    4CHTO   H25 1679   7.085   6.065   4.152  1.0883  1.9822 -0.7257
    4CHTO    N3 1680   7.240   5.909   4.191  0.6074  0.1323 -0.5685
    4CHTO   H12 1681   7.210   5.877   4.289  0.5715  2.5169  0.2261
    4CHTO   H13 1682   7.192   5.846   4.117  3.9273 -1.5906 -1.3693
    4CHTO   C15 1683   7.222   6.142   4.305 -1.1496  0.2657  0.8063
    4CHTO   H28 1684   7.329   6.134   4.326 -0.9947 -0.9004 -0.3156
    4CHTO   O10 1685   7.130   6.105   4.410 -0.5503 -0.2254  0.4326
    4CHTO    H4 1686   7.135   6.166   4.481  1.1125  1.6273 -1.2024
    4CHTO    O5 1687   7.184   6.283   4.277 -0.0409 -0.0567  0.3878
    4CHTO   C10 1688   7.248   6.339   4.162 -0.0642 -0.7750 -0.6773
    4CHTO   H23 1689   7.354   6.319   4.174 -0.3658 -1.7829  0.3760
    4CHTO   C17 1690   7.215   6.493   4.161 -0.1794  0.1340  0.4326
    4CHTO   O12 1691   7.078   6.525   4.133 -0.2534  0.1504  0.1982
    4CHTO    H6 1692   7.026   6.498   4.207 -0.7797  0.1111 -0.1862
    5CHTO  H203 1693   7.639   2.845  -0.153 -1.0400 -0.8123 -1.8704
    5CHTO   O82 1694   7.633   2.932  -0.189 -0.6285  0.2558  0.5286
    5CHTO  C123 1695   7.574   3.019  -0.091  0.1929  0.3119 -0.5255
    5CHTO  H227 1696   7.652   3.074  -0.037 -0.6330 -0.0512  1.0828
    5CHTO   O77 1697   7.497   3.104  -0.180  0.2228 -0.1407  0.3435
    5CHTO  C118 1698   7.431   3.210  -0.108  0.9059 -0.8946  0.2061
    5CHTO  H222 1699   7.500   3.275  -0.053  0.4882  2.4439 -2.9981
    5CHTO  C125 1700   7.367   3.299  -0.221 -0.0158 -0.0976 -0.6740
    5CHTO   O84 1701   7.469   3.367  -0.291  0.7711  0.0670 -0.5834
    5CHTO  H205 1702   7.536   3.312  -0.326 -1.5631 -2.2034 -1.6042
    5CHTO  C114 1703   7.327   3.161  -0.007  0.5061  0.0301  0.4421
    5CHTO  H218 1704   7.249   3.108  -0.062  2.1814 -2.2836  0.2713
    5CHTO  C116 1705   7.397   3.057   0.092 -0.5731  0.0103  0.4960
    5CHTO  H220 1706   7.456   3.107   0.171 -2.8610  3.3566  0.2063
    5CHTO   O79 1707   7.290   2.988   0.170 -0.3512 -0.2717  0.1263
    5CHTO  H201 1708   7.268   3.023   0.255  0.8845  2.4339 -0.6243
    5CHTO  C120 1709   7.478   2.947   0.010 -0.2714  0.4266  0.4109
    5CHTO  H224 1710   7.402   2.891  -0.048 -1.1415  0.1754  1.7787
    5CHTO   N21 1711   7.553   2.849   0.099 -0.5174 -0.3602 -0.4550
    5CHTO  H211 1712   7.497   2.839   0.191  0.2948  1.1409  0.2320
    5CHTO  H212 1713   7.655   2.881   0.116 -0.2710 -0.4906 -1.6475
    5CHTO   O75 1714   7.274   3.279   0.064 -0.1789 -0.4194  0.2468
    5CHTO  C112 1715   7.137   3.337   0.035  0.2669  0.0125 -0.0893
    5CHTO  H216 1716   7.097   3.293  -0.057 -2.2985 -0.9907  1.4556
    5CHTO   O73 1717   7.154   3.477   0.024  0.3996  0.1582 -0.5786
    5CHTO  C113 1718   7.027   3.524  -0.028  0.0883 -0.0944  0.4140
    5CHTO  H217 1719   6.993   3.464  -0.115  0.3056 -0.9291  0.9019
    5CHTO  C124 1720   7.038   3.664  -0.082  0.2929  0.1411  0.0778
    5CHTO   O83 1721   6.928   3.705  -0.149  0.6872 -1.0666  0.1469
    5CHTO  H204 1722   6.869   3.746  -0.089  1.4650 -0.5150  0.5384
    5CHTO  C109 1723   6.928   3.520   0.095  0.9614 -0.1896 -0.0075
    5CHTO  H213 1724   6.970   3.579   0.177 -1.8547 -1.0814  2.1798
    5CHTO  C110 1725   6.908   3.376   0.136  0.1031 -0.0947 -0.1405
    5CHTO  H214 1726   6.842   3.327   0.064 -0.6811  0.3394  0.2750
    5CHTO   O78 1727   6.837   3.381   0.262 -0.5930 -0.5768 -0.3147
    5CHTO  H200 1728   6.756   3.334   0.263  0.3448 -2.2463  0.3336
    5CHTO  C111 1729   7.043   3.305   0.157 -0.3302  0.5474 -0.3564
    5CHTO  H215 1730   7.094   3.344   0.246  1.0601 -2.5939  0.2863
    5CHTO   N19 1731   7.025   3.158   0.177 -0.0684  0.1447  0.1564
    5CHTO  H207 1732   7.008   3.105   0.084 -0.0133 -0.0730  0.2703
    5CHTO  H208 1733   7.095   3.107   0.240 -1.3963 -3.1577 -0.9001
    5CHTO   O74 1734   6.802   3.583   0.060 -0.7104 -0.5800  0.3177
    5CHTO  C115 1735   6.730   3.660   0.154 -0.1948  0.0880  0.0873
    5CHTO  H219 1736   6.783   3.673   0.249  0.8811 -0.5467 -0.4275
    5CHTO   O76 1737   6.716   3.813   0.102 -0.0968  0.0207 -0.0164
    5CHTO  C122 1738   6.638   3.813  -0.017 -0.4460  0.6068 -0.4593
    5CHTO  H226 1739   6.702   3.770  -0.094  0.5165 -0.0673  0.6968
    5CHTO  C126 1740   6.615   3.960  -0.056 -0.6178 -0.2132  0.3005
    5CHTO   O85 1741   6.729   4.019  -0.122  0.1098  0.4522  0.3137
    5CHTO  H206 1742   6.700   4.105  -0.145 -0.2536 -0.1324 -1.5758
    5CHTO  C121 1743   6.494   3.738   0.003 -0.3481  0.4480 -0.7350
    5CHTO  H225 1744   6.421   3.816  -0.025  0.1254  1.3497  0.4825
    5CHTO   O81 1745   6.490   3.626  -0.088  0.3034 -0.0835 -0.2792
    5CHTO  H202 1746   6.429   3.648  -0.155  0.9817 -1.7746 -1.4912
    5CHTO  C119 1747   6.470   3.689   0.149  0.6615 -0.1140  0.4803
    5CHTO  H223 1748   6.482   3.775   0.215  0.9798  0.9867 -0.9934
    5CHTO  C117 1749   6.581   3.585   0.187  0.0400 -0.6404  0.1646
    5CHTO  H221 1750   6.576   3.494   0.128 -1.2131 -1.5016  1.5696
    5CHTO   N20 1751   6.572   3.542   0.333  0.3436  0.4549 -0.1912
    5CHTO  H209 1752   6.658   3.485   0.363 -0.0077  0.5941  1.1112
    5CHTO  H210 1753   6.480   3.486   0.342  0.5916  0.3124  1.6340
    5CHTO   O80 1754   6.312   3.657   0.176 -1.0644 -0.3715  0.1612
    5CHTO  C103 1755   6.230   3.535   0.091  0.0610  0.3023 -0.1634
    5CHTO  H190 1756   6.252   3.547  -0.015 -0.6349 -1.1674 -0.4891
    5CHTO  C101 1757   6.270   3.384   0.130 -0.1981  0.4515  0.3601
    5CHTO  H188 1758   6.274   3.382   0.239  0.8778 -1.1562  0.2998
    5CHTO   O68 1759   6.412   3.342   0.059 -0.3669 -0.5529  0.6487
    5CHTO  H168 1760   6.462   3.336   0.138 -0.9776 -0.1623  1.0727
    5CHTO   C99 1761   6.153   3.281   0.083  0.1880  0.0594 -0.3518
    5CHTO  H186 1762   6.162   3.278  -0.028 -0.5976 -0.6078 -0.3991
    5CHTO   N17 1763   6.180   3.146   0.131 -0.8610 -1.0932  0.0843
    5CHTO  H174 1764   6.111   3.119   0.209  0.2517 -1.5857  0.9178
    5CHTO  H175 1765   6.186   3.080   0.046 -0.5259 -0.4217 -0.4169
    5CHTO   C97 1766   6.017   3.330   0.117  0.3512  0.1280 -0.3937
    5CHTO  H184 1767   6.011   3.321   0.226 -0.6738 -1.2053 -0.5480
    5CHTO   O64 1768   5.988   3.465   0.062  0.0686  0.7413 -0.1704
    5CHTO  C104 1769   6.071   3.557   0.118  0.3367  0.3828  0.1737
    5CHTO  H191 1770   6.046   3.557   0.224 -0.3949 -0.9257  0.0150
    5CHTO  C108 1771   6.032   3.696   0.062 -0.2256 -0.2781 -0.3262
    5CHTO   O71 1772   5.892   3.726   0.078  0.2535  0.1304 -0.6271
    5CHTO  H171 1773   5.874   3.795   0.017 -1.9222  1.0308  0.9442
    5CHTO   O62 1774   5.917   3.252   0.043  0.7779 -0.3779  0.5484
    5CHTO   C91 1775   5.780   3.256   0.092  0.0109 -0.1806 -0.6300
    5CHTO  H178 1776   5.786   3.345   0.155  3.2259  0.3158 -1.5293
    5CHTO   C92 1777   5.750   3.132   0.179  0.6887  0.2549  0.8126
    5CHTO  H179 1778   5.834   3.106   0.245  0.1577 -0.1473  1.3325
    5CHTO   O66 1779   5.632   3.168   0.254 -0.4440  0.1515 -0.1585
    5CHTO  H166 1780   5.615   3.091   0.305 -0.0814 -0.8855 -1.5475
    5CHTO   C93 1781   5.707   3.004   0.098  0.1232  0.1561 -0.0260
    5CHTO  H180 1782   5.650   2.940   0.167 -0.1654 -0.6127 -0.9632
    5CHTO   N16 1783   5.827   2.927   0.062 -0.1038  0.0866 -0.4237
    5CHTO  H172 1784   5.896   2.980  -0.002 -0.4751  0.3474 -0.6125
    5CHTO  H173 1785   5.803   2.831   0.018  2.6362 -1.3517  1.1075
    5CHTO   C94 1786   5.618   3.037  -0.024 -0.4954  0.5648 -0.2627
    5CHTO  H181 1787   5.674   3.027  -0.117  0.9070  2.8850  0.2857
    5CHTO   O61 1788   5.563   3.172  -0.019 -0.2817 -0.1906 -0.2480
    5CHTO   C95 1789   5.664   3.277  -0.019  0.1114  0.4341 -0.0327
    5CHTO  H182 1790   5.710   3.278  -0.118 -0.2362  0.7161 -0.1887
    5CHTO  C106 1791   5.603   3.417   0.016 -0.3636 -0.4773  0.0458
    5CHTO   O69 1792   5.535   3.463  -0.097  0.6493  0.2336  0.3633
    5CHTO  H169 1793   5.453   3.421  -0.113 -0.3625  2.4971 -0.6793
    5CHTO   O63 1794   5.497   2.937  -0.015 -0.1229 -0.4128  0.4366
    5CHTO   C96 1795   5.422   2.903  -0.133  0.0352  0.3369 -1.0388
    5CHTO  H183 1796   5.483   2.923  -0.221 -1.6653  1.3552 -2.0222
    5CHTO   C98 1797   5.297   2.997  -0.135  0.9934  0.4876 -0.4953
    5CHTO  H185 1798   5.249   3.002  -0.036  1.1283  0.8016 -0.4443
    5CHTO   O67 1799   5.340   3.128  -0.167  0.1319  0.0658  0.4336
    5CHTO  H167 1800   5.387   3.161  -0.093  1.6835  0.0853 -0.5463
    5CHTO  C102 1801   5.186   2.950  -0.250 -0.6088  0.2520 -0.0042
    5CHTO  H189 1802   5.225   2.977  -0.349 -2.3915 -0.6732 -0.9992
    5CHTO   N18 1803   5.059   3.028  -0.229  0.1333  0.3687 -0.2951
    5CHTO  H176 1804   4.979   2.992  -0.292 -1.6357  3.3367  0.1624
    5CHTO  H177 1805   5.066   3.136  -0.232  1.9607  0.2828  0.3042
    5CHTO  C105 1806   5.168   2.796  -0.265 -0.3584  0.5020 -0.0349
    5CHTO  H192 1807   5.082   2.773  -0.203 -0.6269 -0.4258 -0.7441
    5CHTO   O65 1808   5.283   2.723  -0.223  0.2055  0.6762 -0.1599
    5CHTO  C100 1809   5.358   2.756  -0.109 -0.7290 -0.6004 -0.6822
    5CHTO  H187 1810   5.288   2.763  -0.025 -0.1089  2.4129 -0.3797
    5CHTO  C107 1811   5.459   2.637  -0.089 -0.3656 -0.3642  0.0935
    5CHTO   O70 1812   5.548   2.639   0.022  0.0556  0.1897 -0.1523
    5CHTO  H170 1813   5.611   2.572   0.003  0.7128  0.9065 -0.5405
    5CHTO   O57 1814   5.129   2.766  -0.439  0.3282  0.7525 -0.0938
    5CHTO   C85 1815   5.085   2.639  -0.487  0.0507 -0.2550 -0.4380
    5CHTO  H157 1816   4.982   2.629  -0.447  0.8885 -1.3156  1.5253
    5CHTO   C83 1817   5.159   2.518  -0.419 -0.6463 -0.2495  0.4274
    5CHTO  H155 1818   5.128   2.514  -0.315  1.2255 -0.1608  0.9986
    5CHTO   O56 1819   5.299   2.533  -0.414 -0.0243  0.4746  0.4690
    5CHTO  H135 1820   5.332   2.603  -0.361  1.3215  1.7045 -1.8632
    5CHTO   C81 1821   5.104   2.392  -0.490  0.0687 -0.1159 -0.9053
    5CHTO  H153 1822   4.995   2.385  -0.479  0.2692  0.5020  2.0776
    5CHTO   N14 1823   5.154   2.268  -0.424  0.2119  0.1125  0.0975
    5CHTO  H141 1824   5.139   2.278  -0.319 -0.2693 -1.6125  0.2143
    5CHTO  H142 1825   5.258   2.256  -0.448  0.5139  0.1948  1.3589
    5CHTO   C79 1826   5.139   2.392  -0.646  0.4263 -0.2562 -0.1125
    5CHTO  H151 1827   5.121   2.291  -0.681  2.5200 -0.4769 -0.6655
    5CHTO   O52 1828   5.067   2.500  -0.714  0.3017  0.0298 -0.3603
    5CHTO   C86 1829   5.090   2.632  -0.652  0.2821  0.1898 -0.7026
    5CHTO  H158 1830   5.188   2.664  -0.694  1.1055 -0.1140  0.9628
    5CHTO   C90 1831   4.982   2.728  -0.713 -0.7353  0.2346  0.0762
    5CHTO   O60 1832   4.849   2.669  -0.695  0.4941 -0.2495  0.0156
    5CHTO  H138 1833   4.795   2.684  -0.770  0.9061 -1.5209 -0.5482
    5CHTO   O50 1834   5.277   2.421  -0.671 -0.0175  0.2469  0.3476
    5CHTO   C73 1835   5.350   2.367  -0.782  0.9644 -0.0798 -1.0112
    5CHTO  H145 1836   5.283   2.356  -0.869 -0.5434 -1.7339  0.3235
    5CHTO   C74 1837   5.417   2.228  -0.753 -0.6416  0.4924 -0.1853
    5CHTO  H146 1838   5.335   2.163  -0.721 -0.2241 -0.5693 -1.2605
    5CHTO   O54 1839   5.477   2.182  -0.880  0.5233  0.3320  0.9654
    5CHTO  H133 1840   5.440   2.098  -0.899 -0.4879  0.9233  0.2961
    5CHTO   C75 1841   5.529   2.248  -0.646  0.6260  0.7147  0.0341
    5CHTO  H147 1842   5.489   2.282  -0.549  1.7612 -0.6529  1.0028
    5CHTO   N13 1843   5.587   2.118  -0.607  0.0904 -0.1109 -0.3230
    5CHTO  H139 1844   5.501   2.055  -0.587  0.1195 -0.3617 -0.9631
    5CHTO  H140 1845   5.639   2.130  -0.513  0.3692 -0.5629 -0.4183
    5CHTO   C76 1846   5.633   2.362  -0.675 -0.0115  0.8549  0.0639
    5CHTO  H148 1847   5.694   2.341  -0.763 -0.6004  1.6541 -0.5368
    5CHTO   O49 1848   5.550   2.483  -0.703  0.1668 -0.4960 -0.3572
    5CHTO   C77 1849   5.463   2.472  -0.819 -0.4070  0.5571  0.2455
    5CHTO  H149 1850   5.512   2.438  -0.910  2.3982  0.5649  1.6836
    5CHTO   C88 1851   5.400   2.607  -0.848 -0.1110  0.0789  0.0032
    5CHTO   O58 1852   5.505   2.702  -0.925  0.2084  0.3481  0.0490
    5CHTO  H136 1853   5.509   2.783  -0.878 -1.0625  1.7397 -2.1331
    5CHTO   O51 1854   5.714   2.395  -0.533 -0.2491 -0.0526  0.4890
    5CHTO   C78 1855   5.824   2.488  -0.550 -0.2121 -0.2866 -0.1136
    5CHTO  H150 1856   5.812   2.565  -0.629  0.9386  0.1354  0.1203
    5CHTO   C80 1857   5.949   2.405  -0.590  0.5960 -0.9653  0.2551
    5CHTO  H152 1858   5.955   2.319  -0.520 -2.1160 -0.5630  1.0628
    5CHTO   O55 1859   5.926   2.355  -0.719 -0.4448  0.1408 -0.1892
    5CHTO  H134 1860   5.994   2.296  -0.746 -0.1066  1.1228 -1.5378
    5CHTO   C84 1861   6.085   2.485  -0.582 -0.2023 -1.4369  0.2179
    5CHTO  H156 1862   6.093   2.548  -0.671 -0.9261 -1.4401  0.1448
    5CHTO   N15 1863   6.206   2.394  -0.580  0.0563 -0.0780  0.2809
    5CHTO  H143 1864   6.177   2.298  -0.541  2.5727 -0.7495  0.6325
    5CHTO  H144 1865   6.266   2.380  -0.668  0.0669  0.8863  0.1355
    5CHTO   C87 1866   6.084   2.576  -0.451 -0.0581  0.8526  0.9457
    5CHTO  H159 1867   6.101   2.513  -0.363  1.0762  0.1042  0.1978
    5CHTO   O53 1868   5.965   2.649  -0.436  0.6098 -0.4164 -0.1262
    5CHTO   C82 1869   5.847   2.566  -0.421 -0.7987 -0.2026 -0.3170
    5CHTO  H154 1870   5.853   2.502  -0.333  2.6759  2.5830  1.5728
    5CHTO   C89 1871   5.726   2.656  -0.402  0.3573  0.5218  0.3822
    5CHTO   O59 1872   5.746   2.750  -0.295  0.4997 -0.6599 -0.2940
    5CHTO  H137 1873   5.763   2.840  -0.317  0.5813 -0.5418  0.2385
    5CHTO   O45 1874   6.208   2.691  -0.458  0.2643  0.3448  0.0748
    5CHTO   C67 1875   6.298   2.694  -0.350  0.5972  0.1828  0.1991
    5CHTO  H124 1876   6.252   2.643  -0.266  0.5347  0.1453  0.1420
    5CHTO   C65 1877   6.427   2.606  -0.384 -0.1489 -0.3419  0.2470
    5CHTO  H122 1878   6.450   2.602  -0.491  2.1006  1.1670  0.6259
    5CHTO   O44 1879   6.407   2.475  -0.331 -0.4716  0.4531 -0.1439
    5CHTO  H102 1880   6.485   2.424  -0.323 -1.3104 -0.7468  0.5256
    5CHTO   C63 1881   6.554   2.684  -0.327  0.3500  0.4906  0.1379
    5CHTO  H120 1882   6.571   2.771  -0.391  1.4410  0.0756 -0.1532
    5CHTO   N11 1883   6.684   2.611  -0.343  0.0811 -0.1681 -0.0766
    5CHTO  H108 1884   6.759   2.687  -0.352  1.0432 -1.1246 -0.2652
    5CHTO  H109 1885   6.708   2.546  -0.261 -1.5290  0.6127  1.0405
    5CHTO   C61 1886   6.524   2.747  -0.188 -0.9984  0.3553  0.1898
    5CHTO  H118 1887   6.621   2.789  -0.155 -0.9408 -0.0068  0.4870
    5CHTO   O40 1888   6.427   2.851  -0.193  0.4393  0.3133 -0.2507
    5CHTO   C68 1889   6.326   2.845  -0.301  0.5024 -0.1606  0.1217
    5CHTO  H125 1890   6.360   2.903  -0.389 -2.9472  1.7446 -0.0578
    5CHTO   C72 1891   6.197   2.922  -0.244  0.0226  0.4256  0.1944
    5CHTO   O48 1892   6.202   3.064  -0.257  0.1527  0.5542 -0.0196
    5CHTO  H105 1893   6.185   3.082  -0.348  0.1640  3.7710  0.5631
    5CHTO   O38 1894   6.496   2.649  -0.085 -0.7054 -0.1209  0.0828
    5CHTO   C55 1895   6.492   2.706   0.046 -0.6706 -0.3658  0.3629
    5CHTO  H112 1896   6.473   2.813   0.034 -1.1046 -0.5438 -0.6320
    5CHTO   C56 1897   6.626   2.679   0.121  0.2951  0.1111  0.8214
    5CHTO  H113 1898   6.651   2.572   0.126  1.2854  0.1298 -2.3904
    5CHTO   O42 1899   6.734   2.727   0.046 -0.3935  0.2464 -0.2336
    5CHTO  H100 1900   6.816   2.696   0.081 -0.2123 -1.8403 -2.4009
    5CHTO   C57 1901   6.616   2.752   0.259 -0.3789 -0.4437  0.9377
    5CHTO  H114 1902   6.610   2.861   0.254  1.3528 -0.3656  0.1741
    5CHTO   N10 1903   6.737   2.731   0.348 -0.0217 -0.1985  0.3368
    5CHTO  H106 1904   6.798   2.643   0.334  0.6308  0.0438  1.6183
    5CHTO  H107 1905   6.803   2.815   0.360 -0.0742  0.1271 -1.5005
    5CHTO   C58 1906   6.493   2.695   0.331 -0.3108 -0.5561 -0.4418
    5CHTO  H115 1907   6.523   2.591   0.357  1.5304  0.2861  0.9755
    5CHTO   O37 1908   6.372   2.697   0.257 -0.2242 -0.0851  0.1148
    5CHTO   C59 1909   6.370   2.645   0.120 -0.9625  0.0056 -0.8154
    5CHTO  H116 1910   6.383   2.536   0.123 -3.5422 -0.3588 -1.6141
    5CHTO   C70 1911   6.234   2.669   0.043  0.4553  0.0854 -0.0145
    5CHTO   O46 1912   6.174   2.791   0.073 -0.5005  0.3254 -0.5952
    5CHTO  H103 1913   6.085   2.801   0.043 -0.5010  0.4253 -0.5619
    5CHTO   O39 1914   6.461   2.787   0.469 -0.4072 -0.0897  0.4878
    5CHTO   C60 1915   6.361   2.881   0.469 -0.1461 -0.4770 -0.3826
    5CHTO  H117 1916   6.344   2.912   0.367  1.9328  1.0626 -0.2823
    5CHTO   C62 1917   6.232   2.815   0.520 -0.3273  0.5141  0.6949
    5CHTO  H119 1918   6.232   2.717   0.469  1.2609  1.3076 -0.8865
    5CHTO   O43 1919   6.233   2.791   0.663 -0.3251 -1.0811 -0.9318
    5CHTO  H101 1920   6.145   2.763   0.677 -0.7722  0.6444 -0.1912
    5CHTO   C66 1921   6.110   2.915   0.477  0.2101 -0.0998  0.9846
    5CHTO  H123 1922   6.126   2.946   0.374  0.9428 -0.2133  1.0659
    5CHTO   N12 1923   5.972   2.851   0.476 -0.2900  0.7882 -0.1574
    5CHTO  H110 1924   5.946   2.816   0.575  0.5584 -1.6941 -0.7713
    5CHTO  H111 1925   5.978   2.761   0.417 -0.8704 -1.8658  3.6179
    5CHTO   C69 1926   6.127   3.049   0.555 -0.4666  0.5745  0.3412
    5CHTO  H126 1927   6.108   3.032   0.663 -2.8939 -0.0225 -0.1359
    5CHTO   O41 1928   6.281   3.118   0.535  0.0239  0.2800  0.1573
    5CHTO   C64 1929   6.401   3.015   0.549  0.1463  0.7831 -0.5992
    5CHTO  H121 1930   6.414   2.991   0.656 -2.0135 -0.1349 -0.5221
    5CHTO   C71 1931   6.529   3.079   0.494 -0.3719  0.4213  0.7562
    5CHTO   O47 1932   6.649   3.044   0.571 -0.4407  0.5218 -0.0797
    5CHTO  H104 1933   6.678   2.959   0.545  1.8765  1.5857 -1.1124
    5CHTO   O34 1934   6.009   3.146   0.513  0.1977  0.0601 -0.3222
    5CHTO   C49 1935   5.951   3.276   0.572 -0.0071  0.2145  0.5133
    5CHTO   H91 1936   6.040   3.340   0.571  1.0627 -1.1974 -2.8622
    5CHTO   C47 1937   5.902   3.244   0.714  0.1334 -0.1151 -0.1299
    5CHTO   H89 1938   5.860   3.341   0.750 -1.0465 -1.0136  0.9792
    5CHTO   O33 1939   6.012   3.201   0.802 -0.5062  0.6843  0.0342
    5CHTO   H70 1940   5.983   3.141   0.868  3.8296 -2.0596 -0.3693
    5CHTO   C45 1941   5.778   3.145   0.697 -0.0221 -0.0663 -0.2532
    5CHTO   H87 1942   5.814   3.058   0.640  1.7210 -0.8300  1.9728
    5CHTO    N8 1943   5.727   3.098   0.821  0.8557 -0.9051 -0.5949
    5CHTO   H75 1944   5.731   2.990   0.818 -1.1900 -1.0439  0.6986
    5CHTO   H76 1945   5.631   3.134   0.853  1.3787 -1.0496  1.1821
    5CHTO   C43 1946   5.665   3.223   0.616 -0.1015 -0.1217  0.4903
    5CHTO   H85 1947   5.593   3.142   0.608  0.1455 -0.3263  0.3523
    5CHTO   O29 1948   5.712   3.263   0.490  0.1373  0.2378  0.3502
    5CHTO   C50 1949   5.830   3.342   0.490 -0.2784  0.2500  0.3850
    5CHTO   H92 1950   5.859   3.337   0.384  0.3038 -0.1303  0.5613
    5CHTO   C54 1951   5.812   3.498   0.519 -0.5943  0.3067  0.3479
    5CHTO   O36 1952   5.930   3.569   0.546 -0.0839  0.3398 -0.5829
    5CHTO   H72 1953   5.964   3.556   0.632 -0.3570  2.9621 -0.0220
    5CHTO   O27 1954   5.593   3.325   0.683  0.0101 -0.5918 -0.1947
    5CHTO   C37 1955   5.465   3.370   0.723 -0.0589 -0.1917  0.5427
    5CHTO   H79 1956   5.383   3.300   0.704 -0.5663 -0.1509  2.4994
    5CHTO   C38 1957   5.460   3.391   0.873  0.2295  0.1266  0.1175
    5CHTO   H80 1958   5.529   3.470   0.906  1.9063 -0.7243 -1.2551
    5CHTO   O31 1959   5.500   3.268   0.931 -0.2335 -0.3570 -0.0720
    5CHTO   H68 1960   5.584   3.286   0.969  0.5969 -1.6561 -1.2508
    5CHTO   C39 1961   5.311   3.423   0.915  0.5358 -0.5871 -0.5625
    5CHTO   H81 1962   5.242   3.342   0.889 -0.4322 -0.3289  1.1188
    5CHTO    N7 1963   5.305   3.463   1.061 -0.0030 -0.1960  0.1238
    5CHTO   H73 1964   5.218   3.517   1.094 -0.3712 -0.7512  0.0802
    5CHTO   H74 1965   5.336   3.383   1.127 -1.1844  0.2467  1.2278
    5CHTO   C40 1966   5.257   3.555   0.834 -0.3233 -0.9392  0.2765
    5CHTO   H82 1967   5.275   3.653   0.878 -0.2567  0.5124 -2.8095
    5CHTO   O26 1968   5.304   3.551   0.696 -0.6017  0.6314  0.8531
    5CHTO   C41 1969   5.436   3.506   0.653 -0.3229 -0.2398  0.0133
    5CHTO   H83 1970   5.520   3.574   0.673  0.5273 -0.7208 -1.8350
    5CHTO   C52 1971   5.438   3.491   0.502 -0.9008  0.4306 -0.4438
    5CHTO   O35 1972   5.419   3.602   0.436 -0.4002  0.0855 -0.1241
    5CHTO   H71 1973   5.465   3.602   0.355 -0.3441  2.2910 -0.1477
    5CHTO   O28 1974   5.115   3.556   0.827 -0.6801 -0.5704  0.3286
    5CHTO   C42 1975   5.014   3.455   0.793  0.1616 -0.6543  0.2252
    5CHTO   H84 1976   4.932   3.519   0.758  0.9645 -0.3542 -1.1284
    5CHTO   C44 1977   4.952   3.387   0.918 -0.1911  0.9159  0.5696
    5CHTO   H86 1978   5.034   3.353   0.981  0.8701  1.8762 -0.2768
    5CHTO   O32 1979   4.880   3.485   0.997 -0.2305 -0.5142  0.2460
    5CHTO   H69 1980   4.906   3.472   1.086 -2.9827 -2.0010  0.8655
    5CHTO   C48 1981   4.867   3.261   0.882 -0.0643  0.5941 -0.1487
    5CHTO   H90 1982   4.792   3.276   0.803  0.1505  0.3030 -0.4097
    5CHTO    N9 1983   4.820   3.192   1.008 -0.1799 -0.5080 -0.6868
    5CHTO   H77 1984   4.891   3.187   1.089 -0.0179 -1.5761 -0.8855
    5CHTO   H78 1985   4.725   3.230   1.043 -0.1022 -2.6182  2.0007
    5CHTO   C51 1986   4.967   3.174   0.794 -0.3074  0.2364 -0.8382
    5CHTO   H93 1987   5.063   3.166   0.845 -0.6390  1.3787 -0.0121
    5CHTO   O30 1988   4.976   3.239   0.668  0.0658  0.3827 -0.2350
    5CHTO   C46 1989   5.056   3.359   0.673  0.4659  0.2477 -0.1557
    5CHTO   H88 1990   5.158   3.322   0.685  1.3378  1.8668 -2.0535
    5CHTO   C53 1991   5.049   3.438   0.538  0.7747 -0.1764 -0.0211
    5CHTO   O72 1992   4.921   3.480   0.498  0.2675 -0.2105 -0.2923
    5CHTO  H199 1993   4.933   3.543   0.429  1.6449  0.9209  0.9524
    5CHTO   O22 1994   4.914   3.050   0.754  0.0741 -0.1282 -0.3715
    5CHTO   C31 1995   4.998   2.943   0.716  0.1728  0.4132 -0.6477
    5CHTO   H59 1996   4.931   2.874   0.660  0.6554  1.5979 -2.7780
    5CHTO   C29 1997   5.121   2.972   0.621  0.1146 -0.2431  0.2446
    5CHTO   H57 1998   5.167   3.059   0.670  0.6641 -1.6878  2.3268
    5CHTO   O21 1999   5.085   3.022   0.484  0.1017  0.0923  0.4392
    5CHTO   H37 2000   5.031   3.098   0.499 -0.7593 -0.5341  0.5510
    5CHTO   C27 2001   5.224   2.862   0.607  0.6525 -0.3045 -0.2336
    5CHTO   H55 2002   5.189   2.784   0.537  0.6219  0.6883 -1.3378
    5CHTO    N5 2003   5.349   2.908   0.549 -0.4677 -0.3183  0.4083
    5CHTO   H43 2004   5.400   2.987   0.601 -0.0934  0.5151 -1.1906
    5CHTO   H44 2005   5.412   2.827   0.513 -2.1841 -1.4547 -0.1006
    5CHTO   C25 2006   5.245   2.794   0.750 -0.1112 -0.2875  0.1315
    5CHTO   H53 2007   5.280   2.873   0.817 -1.8195 -0.0262  0.7077
    5CHTO   O17 2008   5.117   2.755   0.814  0.0799 -0.8709 -0.1371
    5CHTO   C32 2009   5.047   2.875   0.849 -0.8110  0.4275 -0.4630
    5CHTO   H60 2010   5.100   2.949   0.909 -2.3020  0.4738  0.8165
    5CHTO   C36 2011   4.930   2.823   0.945 -0.8562  0.0811  0.2899
    5CHTO   O25 2012   4.974   2.757   1.061 -0.8493 -0.0678 -0.6119
    5CHTO   H40 2013   5.050   2.801   1.093 -1.8697  2.1398 -1.1003
    5CHTO   O15 2014   5.335   2.669   0.757 -0.3777  0.1264 -0.1570
    5CHTO   C19 2015   5.456   2.677   0.841  0.4210 -0.5855 -0.0642
    5CHTO   H47 2016   5.489   2.781   0.826  3.2943 -1.3942  0.2392
    5CHTO   C20 2017   5.425   2.663   0.999 -0.4625  0.5458  0.5035
    5CHTO   H48 2018   5.376   2.567   1.022  2.1580 -1.2786 -1.2265
    5CHTO   O19 2019   5.339   2.768   1.040 -0.5459 -0.2254 -0.3035
    5CHTO   H35 2020   5.263   2.728   1.076  0.3289 -0.4995  1.2941
    5CHTO   C21 2021   5.558   2.660   1.086 -0.3382  1.1682 -0.1158
    5CHTO   H49 2022   5.590   2.763   1.102 -0.5202  1.2268 -0.1278
    5CHTO    N4 2023   5.544   2.608   1.225  0.6340  0.0931 -0.0076
    5CHTO   H41 2024   5.632   2.635   1.281 -0.0359  0.3162  0.9410
    5CHTO   H42 2025   5.526   2.501   1.227  2.1579 -0.2234 -1.5953
    5CHTO   C22 2026   5.683   2.594   1.009  0.0928  0.2117 -1.5868
    5CHTO   H50 2027   5.658   2.488   1.014  2.1851 -0.4365 -4.0652
    5CHTO   O14 2028   5.688   2.625   0.868  0.1777  0.1971  0.3498
    5CHTO   C23 2029   5.572   2.590   0.797  0.2633 -0.2959 -0.1289
    5CHTO   H51 2030   5.553   2.483   0.813 -1.2345  0.1007  0.8081
    5CHTO   C34 2031   5.606   2.597   0.645  0.2414 -0.3708 -0.1425
    5CHTO   O23 2032   5.673   2.718   0.601  0.4286  0.3820 -0.1667
    5CHTO   H38 2033   5.644   2.792   0.650  1.8774  0.1277  1.1018
    5CHTO   O16 2034   5.810   2.633   1.067  0.0390  0.0549 -0.3373
    5CHTO   C24 2035   5.940   2.557   0.990 -0.6453  0.1706  0.7599
    5CHTO   H52 2036   5.910   2.520   0.892  0.5542  0.0039  0.4503
    5CHTO   C26 2037   6.003   2.458   1.085  0.2997 -0.1570  0.1448
    5CHTO   H54 2038   6.020   2.510   1.181  0.0223 -1.3429  0.8505
    5CHTO   O20 2039   5.908   2.349   1.105 -0.3827 -0.2741  0.1685
    5CHTO   H36 2040   5.951   2.266   1.098 -2.3051 -1.2065 -1.2959
    5CHTO   C30 2041   6.140   2.407   1.021 -0.6600 -0.2596 -0.2323
    5CHTO   H58 2042   6.123   2.350   0.929 -0.8455 -1.8099  0.7495
    5CHTO    N6 2043   6.208   2.309   1.115  0.3795 -0.7348 -0.0026
    5CHTO   H45 2044   6.212   2.207   1.081  0.0777 -1.6385  2.5843
    5CHTO   H46 2045   6.162   2.312   1.213  2.2923 -1.9305  0.9472
    5CHTO   C33 2046   6.229   2.536   1.000  0.4634  0.2035  0.7432
    5CHTO   H61 2047   6.241   2.590   1.095 -0.2288 -1.5930  1.8835
    5CHTO   O18 2048   6.164   2.628   0.908 -0.1914 -0.2175 -0.0672
    5CHTO   C28 2049   6.039   2.671   0.964  0.2211  0.0936  0.2380
    5CHTO   H56 2050   6.060   2.721   1.058  0.2754 -1.8666  1.2859
    5CHTO   C35 2051   5.993   2.785   0.871 -0.1495 -0.2475  0.4764
    5CHTO   O24 2052   6.071   2.910   0.868  0.3319 -0.1562  0.3223
    5CHTO   H39 2053   6.159   2.891   0.844  0.5606  1.2544  0.0087
    5CHTO    O9 2054   6.363   2.502   0.957  0.7756 -0.2222 -0.0300
    5CHTO   C13 2055   6.398   2.471   0.806  0.6986  0.2568 -0.3161
    5CHTO   H26 2056   6.308   2.477   0.742  1.3813  2.0300 -1.1170
    5CHTO   C11 2057   6.458   2.326   0.793 -0.8369  0.6672  0.5533
    5CHTO   H24 2058   6.380   2.253   0.817  0.6793 -1.2141 -0.0846
    5CHTO    O8 2059   6.558   2.298   0.894  0.1768 -0.1741  0.2057
    5CHTO    H3 2060   6.527   2.245   0.965  1.2624  0.5094  1.2031
    5CHTO    C9 2061   6.503   2.313   0.646 -0.3443 -0.5667  0.3405
    5CHTO   H22 2062   6.418   2.344   0.585  0.6106  0.4236 -0.5175
    5CHTO    N2 2063   6.529   2.169   0.608  0.4537  0.4789  0.5373
    5CHTO   H10 2064   6.447   2.107   0.641  0.4262 -0.0615 -0.5456
    5CHTO   H11 2065   6.547   2.167   0.502  0.9760  2.0819  0.5675
    5CHTO    C7 2066   6.626   2.412   0.614  0.3334 -0.6878  0.3603
    5CHTO   H20 2067   6.609   2.441   0.508 -2.3428 -3.5684 -0.1017
    5CHTO    O4 2068   6.621   2.533   0.700  0.5669 -0.5420 -0.5281
    5CHTO   C14 2069   6.491   2.577   0.734 -0.7906 -0.6312 -0.3577
    5CHTO   H27 2070   6.445   2.609   0.638  1.2548  1.3242 -0.7242
    5CHTO   C18 2071   6.513   2.709   0.814 -0.2600  0.1670  0.0152
    5CHTO   O13 2072   6.576   2.799   0.727  0.3385 -0.0295 -0.5672
    5CHTO    H7 2073   6.531   2.881   0.730  4.6444  2.4654  2.5826
    5CHTO    O2 2074   6.787   2.341   0.612 -0.3122  0.4208  0.4698
    5CHTO    C1 2075   6.871   2.394   0.510  0.5432  0.9733  0.2268
    5CHTO   H14 2076   6.846   2.498   0.483  3.2759  1.8746  1.0064
    5CHTO    C2 2077   6.854   2.293   0.386 -0.0927  0.1413 -0.2328
    5CHTO   H15 2078   6.873   2.190   0.419  1.0081  0.7523  1.1146
    5CHTO    O6 2079   6.715   2.311   0.338 -0.2133 -0.2766 -0.0133
    5CHTO    H1 2080   6.722   2.343   0.250  1.3042  2.4197  1.0024
    5CHTO    C3 2081   6.963   2.338   0.273  0.3629  0.5048  0.4587
    5CHTO   H16 2082   6.949   2.444   0.246 -2.4475 -0.3139 -1.5038
    5CHTO    N1 2083   6.949   2.263   0.146 -0.2666 -0.0159 -0.2268
    5CHTO    H8 2084   7.026   2.193   0.119  0.4506  0.9432 -0.7014
    5CHTO    H9 2085   6.854   2.211   0.152 -0.6311  0.7877  1.4148
    5CHTO    C4 2086   7.107   2.333   0.334  0.3855  1.0225 -0.1064
    5CHTO   H17 2087   7.131   2.231   0.363  4.3580  1.6677 -0.8125
    5CHTO    O1 2088   7.114   2.418   0.449  0.1065  0.2016 -0.0951
    5CHTO    C5 2089   7.025   2.395   0.558  0.9427 -0.0063  0.0239
    5CHTO   H18 2090   7.040   2.300   0.609  1.0726 -0.6421 -1.1647
    5CHTO   C16 2091   7.053   2.512   0.659 -0.4380  0.6697  0.1448
    5CHTO   O11 2092   7.171   2.495   0.731  0.3689 -0.5973  0.3815
    5CHTO    H5 2093   7.172   2.558   0.800 -1.4470 -1.0691  0.8878
    5CHTO    O3 2094   7.198   2.390   0.238 -0.1187 -0.2161 -0.6207
    5CHTO    C6 2095   7.342   2.358   0.268  0.2575  0.4335 -0.8853
    5CHTO   H19 2096   7.361   2.311   0.365  1.3432  0.8406 -0.8912
    5CHTO    C8 2097   7.397   2.261   0.158 -0.0411  0.4374  0.3876
    5CHTO   H21 2098   7.380   2.311   0.063  1.5349  1.7861  0.7979
    5CHTO    O7 2099   7.315   2.142   0.164 -0.1862  0.3332  0.4215
    5CHTO    H2 2100   7.252   2.129   0.095 -1.1811 -2.0542  1.7199
    5CHTO   C12 2101   7.547   2.229   0.200 -0.5118  0.0443 -0.4370
    5CHTO   H25 2102   7.541   2.184   0.301 -0.0100  1.8363  0.4052
    5CHTO    N3 2103   7.617   2.132   0.109 -0.5200  0.0312 -0.1627
    5CHTO   H12 2104   7.556   2.111   0.022 -1.2523  0.3578  0.2627
    5CHTO   H13 2105   7.660   2.044   0.155 -1.5178 -0.3157  0.1187
    5CHTO   C15 2106   7.636   2.361   0.216  0.0813 -0.2940 -0.2598
    5CHTO   H28 2107   7.655   2.402   0.116  2.4089 -0.2148  0.1723
    5CHTO   O10 2108   7.758   2.343   0.295  0.2417  0.3539  0.0786
    5CHTO    H4 2109   7.801   2.427   0.299  0.2387  0.2835  1.9241
    5CHTO    O5 2110   7.557   2.453   0.297 -0.3961 -0.3226  0.2053
    5CHTO   C10 2111   7.424   2.493   0.265 -0.8931  0.0832  0.6303
    5CHTO   H23 2112   7.402   2.540   0.170 -1.9875 -1.7222 -0.0197
    5CHTO   C17 2113   7.397   2.590   0.369 -0.1463 -0.0735 -0.5147
    5CHTO   O12 2114   7.260   2.646   0.367  0.1797  0.5856  0.0826
    5CHTO    H6 2115   7.199   2.600   0.422  0.6086 -0.5831 -0.4080
    6CHTO  H203 2116   4.646   4.376   0.432  0.2642  1.2457 -0.4321
    6CHTO   O82 2117   4.720   4.361   0.488  0.2115  0.3688 -0.5919
    6CHTO  C123 2118   4.804   4.473   0.519 -0.1327  0.0108  0.6288
    6CHTO  H227 2119   4.846   4.512   0.425  0.0046  2.3434  1.6442
    6CHTO   O77 2120   4.705   4.564   0.587 -0.3677  0.0544 -0.8987
    6CHTO  C118 2121   4.755   4.693   0.613  0.1024 -0.3897 -0.2746
    6CHTO  H222 2122   4.792   4.741   0.521 -0.6181 -0.4099 -0.5779
    6CHTO  C125 2123   4.627   4.774   0.662  0.1953  0.5767 -0.0669
    6CHTO   O84 2124   4.546   4.801   0.545  0.1471 -0.1992  0.7773
    6CHTO  H205 2125   4.536   4.894   0.539 -0.7131 -0.3347 -0.1020
    6CHTO  C114 2126   4.865   4.685   0.718  0.0359 -0.0381 -0.5345
    6CHTO  H218 2127   4.827   4.640   0.810  1.6114 -2.5837 -1.1015
    6CHTO  C116 2128   4.979   4.593   0.669  0.7214 -0.6159 -0.5616
    6CHTO  H220 2129   5.024   4.635   0.577  2.8359  1.3240  1.3172
    6CHTO   O79 2130   5.087   4.585   0.764 -0.6441  0.2223  0.0635
    6CHTO  H201 2131   5.089   4.500   0.803  2.0014  1.4186  2.7494
    6CHTO  C120 2132   4.920   4.451   0.627 -0.2515 -0.0251 -0.8313
    6CHTO  H224 2133   4.884   4.392   0.714  1.0852  0.8598  0.3371
    6CHTO   N21 2134   5.026   4.366   0.572  0.0438 -0.0838  0.5957
    6CHTO  H211 2135   5.083   4.316   0.649  1.1801 -0.2845 -0.3622
    6CHTO  H212 2136   5.094   4.424   0.511 -0.0447 -0.5440  0.0585
    6CHTO   O75 2137   4.902   4.824   0.740 -0.2091 -0.1670  0.2591
    6CHTO  C112 2138   4.945   4.855   0.890 -0.2463  0.1138 -0.3238
    6CHTO  H216 2139   4.963   4.762   0.946 -0.8910 -0.0073 -0.3114
    6CHTO   O73 2140   4.834   4.921   0.943 -0.0038  0.1705 -0.0794
    6CHTO  C113 2141   4.845   4.953   1.080 -0.1458  0.0376 -0.1116
    6CHTO  H217 2142   4.858   4.859   1.138 -2.0474  0.3146  0.7749
    6CHTO  C124 2143   4.717   5.018   1.126  0.2454  0.1180  0.2571
    6CHTO   O83 2144   4.700   5.146   1.061  0.6606  0.1543 -0.1486
    6CHTO  H204 2145   4.657   5.144   0.978 -1.2870 -1.1272  0.8487
    6CHTO  C109 2146   4.967   5.044   1.100  0.0353  0.4149  0.9219
    6CHTO  H213 2147   4.948   5.140   1.051  2.6739  1.0322  1.0285
    6CHTO  C110 2148   5.095   4.987   1.051  0.0162 -0.2245  0.0277
    6CHTO  H214 2149   5.128   4.902   1.112 -0.3877  0.4131  1.1459
    6CHTO   O78 2150   5.207   5.078   1.070  0.0089 -0.7616 -0.0827
    6CHTO  H200 2151   5.210   5.113   1.157 -0.2620 -2.6580  0.7319
    6CHTO  C111 2152   5.078   4.940   0.903 -0.5088  0.1423  0.1833
    6CHTO  H215 2153   5.060   5.033   0.846  2.1216  1.2083  1.0226
    6CHTO   N19 2154   5.190   4.872   0.836 -0.4982 -0.0468  0.6276
    6CHTO  H207 2155   5.178   4.765   0.820  0.6963 -0.0499 -0.2770
    6CHTO  H208 2156   5.289   4.899   0.868 -1.4436  4.6414 -0.0711
    6CHTO   O74 2157   4.966   5.069   1.241  0.3849  0.0121  1.2894
    6CHTO  C115 2158   5.007   5.218   1.305  0.4623  0.4247  0.0745
    6CHTO  H219 2159   5.031   5.291   1.227 -0.6538 -0.7895 -1.4476
    6CHTO   O76 2160   4.889   5.276   1.379 -0.0083  0.3581  0.0449
    6CHTO  C122 2161   4.839   5.179   1.469  0.3563  0.1094 -0.9807
    6CHTO  H226 2162   4.784   5.103   1.414  0.1752 -0.2151 -0.3463
    6CHTO  C126 2163   4.729   5.251   1.566  0.1682 -0.6402  0.2221
    6CHTO   O85 2164   4.663   5.166   1.665 -0.3057  0.0364 -0.5650
    6CHTO  H206 2165   4.587   5.202   1.707 -0.3416 -0.0877 -0.5268
    6CHTO  C121 2166   4.943   5.092   1.559 -0.7474  0.2374  0.0968
    6CHTO  H225 2167   4.908   5.087   1.665 -2.1436 -2.0136 -0.4221
    6CHTO   O81 2168   4.948   4.963   1.506  0.2928 -0.3452  0.0734
    6CHTO  H202 2169   5.014   4.950   1.441  1.1898 -0.1730  0.9390
    6CHTO  C119 2170   5.081   5.158   1.549  0.2459 -0.4902 -0.4963
    6CHTO  H223 2171   5.060   5.257   1.590 -0.4714 -0.6771 -0.4218
    6CHTO  C117 2172   5.130   5.177   1.400  1.5457 -0.6768  0.2907
    6CHTO  H221 2173   5.173   5.092   1.346  1.4062  1.1301 -2.7905
    6CHTO   N20 2174   5.229   5.278   1.394 -0.0026  0.0115  0.0654
    6CHTO  H209 2175   5.293   5.294   1.480  0.2542  0.9979 -0.3120
    6CHTO  H210 2176   5.284   5.246   1.306 -1.0437 -2.4191  0.2441
    6CHTO   O80 2177   5.187   5.116   1.643 -0.1324  0.4843 -0.7293
    6CHTO  C103 2178   5.158   5.128   1.812  0.2685  0.5514 -0.5357
    6CHTO  H190 2179   5.257   5.130   1.858  0.4403  0.4205 -0.9032
    6CHTO  C101 2180   5.069   5.249   1.869  0.3855 -0.6208  0.7241
    6CHTO  H188 2181   4.981   5.261   1.806  0.1619  1.4839  1.3971
    6CHTO   O68 2182   5.160   5.374   1.871 -0.3814 -0.9614  0.1928
    6CHTO  H168 2183   5.097   5.443   1.879  0.7361  0.6528 -3.5839
    6CHTO   C99 2184   5.012   5.207   2.019 -0.1943 -0.9220  0.0089
    6CHTO  H186 2185   5.094   5.183   2.089 -0.3926 -0.7710  0.2938
    6CHTO   N17 2186   4.922   5.315   2.076  0.1253  0.1788 -0.2184
    6CHTO  H174 2187   4.947   5.332   2.180  1.3892 -0.2013 -0.4502
    6CHTO  H175 2188   4.928   5.408   2.022  2.1878 -0.0873 -0.5072
    6CHTO   C97 2189   4.934   5.069   1.994  0.2179 -0.0842 -0.0374
    6CHTO  H184 2190   4.865   5.080   1.910  0.4079  1.1468 -0.0465
    6CHTO   O64 2191   5.030   4.968   1.972  0.0671 -0.2775 -0.1973
    6CHTO  C104 2192   5.092   4.983   1.842  0.4539  0.8907 -0.3791
    6CHTO  H191 2193   5.010   4.965   1.772  0.0729  0.8087  0.0878
    6CHTO  C108 2194   5.197   4.882   1.810  0.6460 -0.7547 -0.4955
    6CHTO   O71 2195   5.136   4.758   1.775  0.4092  0.0950  0.0336
    6CHTO  H171 2196   5.206   4.701   1.748 -1.7480 -2.4593 -0.3878
    6CHTO   O62 2197   4.860   5.019   2.111  0.5850  0.2115  0.5042
    6CHTO   C91 2198   4.740   4.936   2.081 -0.2564  0.5243 -0.5851
    6CHTO  H178 2199   4.702   4.901   2.178  0.4047 -0.1336 -0.5543
    6CHTO   C92 2200   4.771   4.798   2.004  0.0659 -0.4982 -0.0929
    6CHTO  H179 2201   4.831   4.819   1.915  1.6017 -1.9034  0.5800
    6CHTO   O66 2202   4.863   4.716   2.089 -0.0624  0.1497 -0.2273
    6CHTO  H166 2203   4.912   4.656   2.037  1.0848 -0.3830  1.4083
    6CHTO   C93 2204   4.643   4.712   1.955  0.4857 -0.1821 -0.4643
    6CHTO  H180 2205   4.586   4.671   2.039  0.7474  0.0841 -0.1548
    6CHTO   N16 2206   4.681   4.595   1.868  0.2086  0.1135 -0.9643
    6CHTO  H172 2207   4.741   4.623   1.783  1.3368  0.3576 -0.1015
    6CHTO  H173 2208   4.598   4.547   1.819 -0.2873  1.1640 -1.1665
    6CHTO   C94 2209   4.554   4.812   1.876 -0.3192 -0.1835 -0.1083
    6CHTO  H181 2210   4.606   4.853   1.790 -2.0256 -0.4591 -1.2968
    6CHTO   O61 2211   4.524   4.920   1.962  0.5498  0.0609  0.0000
    6CHTO   C95 2212   4.624   5.012   2.009  0.0066  0.4436  0.3911
    6CHTO  H182 2213   4.658   5.066   1.921 -0.5620  1.1246  0.5880
    6CHTO  C106 2214   4.556   5.112   2.105  0.2475  0.0562 -0.2504
    6CHTO   O69 2215   4.493   5.045   2.223  0.3346  0.3270  0.2542
    6CHTO  H169 2216   4.443   5.104   2.277  1.1300 -0.4666  1.9063
    6CHTO   O63 2217   4.411   4.742   1.827 -0.2927  0.0359  0.6922
    6CHTO   C96 2218   4.409   4.717   1.670  0.3206 -0.3367  0.4142
    6CHTO  H183 2219   4.502   4.669   1.640  1.4661  1.3054  1.2682
    6CHTO   C98 2220   4.373   4.838   1.583 -0.3118  0.1962 -0.2238
    6CHTO  H185 2221   4.286   4.883   1.634  0.7249 -1.2812  2.9785
    6CHTO   O67 2222   4.476   4.935   1.602  0.6267 -0.3914  0.5679
    6CHTO  H167 2223   4.439   5.020   1.587  0.9649 -0.5694 -1.4810
    6CHTO  C102 2224   4.361   4.799   1.432 -0.3799  0.2370 -0.2607
    6CHTO  H189 2225   4.464   4.778   1.400 -0.4342 -1.2131  0.4439
    6CHTO   N18 2226   4.312   4.903   1.342  0.7545 -0.5556 -0.2476
    6CHTO  H176 2227   4.379   4.957   1.278  0.3105  0.6729  0.3071
    6CHTO  H177 2228   4.258   4.976   1.400 -0.5645 -0.8551 -1.0829
    6CHTO  C105 2229   4.271   4.675   1.406 -0.1712  0.5238  0.2168
    6CHTO  H192 2230   4.165   4.699   1.412 -0.1288  0.5127  1.1292
    6CHTO   O65 2231   4.295   4.566   1.499  0.5421  0.1915  0.3265
    6CHTO  C100 2232   4.306   4.602   1.638  0.0055 -0.6610  0.2785
    6CHTO  H187 2233   4.211   4.648   1.668 -0.1937  0.5581 -2.1110
    6CHTO  C107 2234   4.329   4.472   1.727  0.0836 -0.5883 -0.0189
    6CHTO   O70 2235   4.441   4.389   1.673 -0.1455 -0.2536 -0.5190
    6CHTO  H170 2236   4.433   4.296   1.677  1.2795 -0.3751 -0.3595
    6CHTO   O57 2237   4.310   4.617   1.253  0.3953 -0.0547 -0.6844
    6CHTO   C85 2238   4.231   4.515   1.184  0.2905  0.4331  0.1196
    6CHTO  H157 2239   4.125   4.548   1.191 -0.1662 -1.1103  0.4932
    6CHTO   C83 2240   4.241   4.377   1.270  0.0291  0.4465  0.4864
    6CHTO  H155 2241   4.190   4.384   1.366 -1.3916 -1.4520 -0.1295
    6CHTO   O56 2242   4.381   4.347   1.303 -0.2142  0.0212  0.1847
    6CHTO  H135 2243   4.440   4.352   1.231  0.2403  0.8240  0.5982
    6CHTO   C81 2244   4.166   4.264   1.188 -0.4143  0.1177  0.1254
    6CHTO  H153 2245   4.067   4.303   1.166 -0.0116  0.5068 -1.0681
    6CHTO   N14 2246   4.147   4.143   1.273  0.3623  0.5417 -0.3732
    6CHTO  H141 2247   4.192   4.143   1.370  2.1031  0.6379 -1.1514
    6CHTO  H142 2248   4.193   4.067   1.213  1.4371  0.8933 -0.0245
    6CHTO   C79 2249   4.237   4.246   1.050 -0.0023  0.8041  0.8339
    6CHTO  H151 2250   4.183   4.170   0.992 -0.2927  1.0890  0.7284
    6CHTO   O52 2251   4.218   4.374   0.974  0.0027  0.1893 -0.2204
    6CHTO   C86 2252   4.275   4.490   1.039  0.3699 -0.5165  0.6268
    6CHTO  H158 2253   4.385   4.477   1.031  0.8198  2.3390  1.3877
    6CHTO   C90 2254   4.237   4.604   0.956 -0.4919 -0.6326  0.0214
    6CHTO   O60 2255   4.289   4.606   0.823 -0.4659 -0.4211 -0.0663
    6CHTO  H138 2256   4.233   4.558   0.766 -1.2564 -0.7025  0.9321
    6CHTO   O50 2257   4.372   4.199   1.049 -0.0983  0.3358  0.1595
    6CHTO   C73 2258   4.481   4.122   0.999 -0.1091  0.0058 -0.0905
    6CHTO  H145 2259   4.467   4.093   0.894  2.9180 -2.3838  0.0731
    6CHTO   C74 2260   4.504   3.986   1.067 -0.6919  0.2858 -0.2087
    6CHTO  H146 2261   4.410   3.930   1.052  1.1324 -2.1300 -3.1252
    6CHTO   O54 2262   4.593   3.904   0.989  0.0848  0.0989 -0.0049
    6CHTO  H133 2263   4.682   3.929   1.001 -0.4592  2.5831 -0.8046
    6CHTO   C75 2264   4.541   4.008   1.218  0.1061  0.1173  0.3379
    6CHTO  H147 2265   4.448   4.043   1.265  0.4611 -1.2087  2.0891
    6CHTO   N13 2266   4.584   3.888   1.293  0.4728 -0.4729  0.6761
    6CHTO  H139 2267   4.510   3.809   1.285 -1.8780  1.7394  0.2197
    6CHTO  H140 2268   4.591   3.922   1.395  1.6286  2.8458 -0.4581
    6CHTO   C76 2269   4.656   4.124   1.241  0.2064 -1.1230  0.2856
    6CHTO  H148 2270   4.754   4.077   1.231  0.9319  0.6171 -1.0596
    6CHTO   O49 2271   4.641   4.239   1.158 -0.2558  0.1404  0.6120
    6CHTO   C77 2272   4.609   4.214   1.015  0.3917  0.1973 -0.4204
    6CHTO  H149 2273   4.692   4.159   0.972  2.3098  2.7646 -0.1406
    6CHTO   C88 2274   4.599   4.343   0.935  0.6990 -0.5267  0.2037
    6CHTO   O58 2275   4.739   4.410   0.927 -0.2956 -0.6154  0.6208
    6CHTO  H136 2276   4.788   4.399   1.007  0.2345 -0.9321  0.2495
    6CHTO   O51 2277   4.641   4.181   1.401  0.3258 -0.2747  1.0633
    6CHTO   C78 2278   4.771   4.268   1.452 -0.4587 -0.2439 -0.4962
    6CHTO  H150 2279   4.761   4.296   1.559  1.0155  2.0853 -0.9293
    6CHTO   C80 2280   4.783   4.392   1.365  0.0707  0.1539 -0.0293
    6CHTO  H152 2281   4.813   4.364   1.262  1.5852 -2.4330  1.1004
    6CHTO   O55 2282   4.652   4.455   1.362  0.3773  0.7119 -0.6989
    6CHTO  H134 2283   4.654   4.538   1.318 -2.7861  0.1888 -2.0166
    6CHTO   C84 2284   4.896   4.485   1.432 -0.6581  1.0369  0.0728
    6CHTO  H156 2285   4.865   4.507   1.534  0.4133  0.8039  0.4557
    6CHTO   N15 2286   4.916   4.612   1.355  0.1699  0.1013 -0.4855
    6CHTO  H143 2287   4.935   4.691   1.425 -0.5135  1.0577 -1.3636
    6CHTO  H144 2288   5.002   4.598   1.293 -1.4829  1.9359 -3.3111
    6CHTO   C87 2289   5.028   4.405   1.434 -0.1077  0.2564 -0.4243
    6CHTO  H159 2290   5.063   4.393   1.332 -0.4993 -1.1369 -0.4043
    6CHTO   O53 2291   5.008   4.261   1.511  0.0134 -0.4218  0.3000
    6CHTO   C82 2292   4.900   4.185   1.452  0.9262 -0.9436 -0.0998
    6CHTO  H154 2293   4.932   4.156   1.352 -0.2626 -3.1348  0.1162
    6CHTO   C89 2294   4.892   4.049   1.530  0.2209 -0.1511  0.8499
    6CHTO   O59 2295   5.006   3.972   1.495 -0.1764 -0.4048 -0.0930
    6CHTO  H137 2296   5.056   3.940   1.567  0.0302  1.0387  0.4073
    6CHTO   O45 2297   5.154   4.482   1.519  0.0515 -0.0405  0.7142
    6CHTO   C67 2298   5.286   4.458   1.470  0.2433 -0.0414 -0.5217
    6CHTO  H124 2299   5.295   4.360   1.423 -0.7446 -0.1112 -0.5808
    6CHTO   C65 2300   5.321   4.573   1.359 -0.2168  0.6234  0.0648
    6CHTO  H122 2301   5.235   4.591   1.295 -0.6953 -0.0450  0.5223
    6CHTO   O44 2302   5.434   4.539   1.276 -0.2023 -0.1087  0.3026
    6CHTO  H102 2303   5.481   4.466   1.311  0.7234  0.9537  1.3226
    6CHTO   C63 2304   5.331   4.707   1.444 -0.1875 -0.2263 -0.0051
    6CHTO  H120 2305   5.236   4.717   1.496 -0.3698 -0.4053 -0.3046
    6CHTO   N11 2306   5.341   4.834   1.364 -0.5245  0.3752 -0.1076
    6CHTO  H108 2307   5.362   4.811   1.261 -1.4513 -0.6345 -0.0808
    6CHTO  H109 2308   5.420   4.892   1.405  1.1726 -0.8776 -1.5102
    6CHTO   C61 2309   5.441   4.703   1.554 -0.0228 -0.0271 -0.4475
    6CHTO  H118 2310   5.433   4.789   1.621 -1.9076 -1.5290  1.3283
    6CHTO   O40 2311   5.427   4.587   1.639  0.0976 -0.6625  0.3527
    6CHTO   C68 2312   5.403   4.461   1.581  0.3788  0.2315 -0.0830
    6CHTO  H125 2313   5.365   4.405   1.669  1.8228  0.2238  0.5550
    6CHTO   C72 2314   5.543   4.407   1.543  0.9122  0.8641  0.1502
    6CHTO   O48 2315   5.632   4.401   1.660 -0.4951 -0.1270  0.2683
    6CHTO  H105 2316   5.716   4.425   1.625  0.9529 -0.3334  3.4017
    6CHTO   O38 2317   5.572   4.701   1.492 -0.7571 -0.2061 -0.6803
    6CHTO   C55 2318   5.661   4.800   1.537 -0.0967 -0.5828 -0.8405
    6CHTO  H112 2319   5.609   4.891   1.570 -1.8707 -1.9787  0.3173
    6CHTO   C56 2320   5.760   4.829   1.410 -0.6559  0.0027 -0.1212
    6CHTO  H113 2321   5.801   4.731   1.385  0.0373 -0.4526  2.5762
    6CHTO   O42 2322   5.690   4.892   1.300  0.0438  0.0588  0.4469
    6CHTO  H100 2323   5.652   4.825   1.246  2.7359 -0.5221 -0.7998
    6CHTO   C57 2324   5.871   4.923   1.450 -0.1808  0.4547  0.0436
    6CHTO  H114 2325   5.831   5.024   1.452 -1.2367  0.0301  0.4774
    6CHTO   N10 2326   5.976   4.930   1.345  0.0493 -0.5525 -1.4123
    6CHTO  H106 2327   5.924   4.940   1.251 -1.4262  1.1777 -0.4466
    6CHTO  H107 2328   6.044   5.013   1.356  0.0092 -0.6888  0.0106
    6CHTO   C58 2329   5.933   4.880   1.589  0.0835 -0.1790  0.1084
    6CHTO  H115 2330   6.002   4.794   1.575  0.4002  0.1603 -0.4385
    6CHTO   O37 2331   5.842   4.853   1.690 -0.7272  0.4192  1.1718
    6CHTO   C59 2332   5.749   4.750   1.658  0.0641  0.3268 -0.3682
    6CHTO  H116 2333   5.804   4.656   1.652 -1.2493 -0.5612  1.0376
    6CHTO   C70 2334   5.661   4.736   1.785 -0.6729 -0.3018 -0.2179
    6CHTO   O46 2335   5.717   4.696   1.914 -0.2479  0.2855 -0.2883
    6CHTO  H103 2336   5.696   4.605   1.926  0.8055 -0.0109 -0.6549
    6CHTO   O39 2337   6.006   5.009   1.652 -0.0407  0.2995  0.4584
    6CHTO   C60 2338   6.123   4.982   1.731 -0.1737  0.4504 -0.1978
    6CHTO  H117 2339   6.133   4.873   1.734  0.6500  0.5383  0.2711
    6CHTO   C62 2340   6.254   5.047   1.666  0.3622 -0.6724 -0.2108
    6CHTO  H119 2341   6.257   5.001   1.565 -2.9818 -1.9418  0.1892
    6CHTO   O43 2342   6.229   5.192   1.654  0.3282 -0.5524 -0.4803
    6CHTO  H101 2343   6.266   5.219   1.573 -1.6079 -0.6351 -1.4158
    6CHTO   C66 2344   6.385   5.012   1.753  0.5607 -0.7659  0.1743
    6CHTO  H123 2345   6.383   4.903   1.755 -1.3606 -0.8209 -2.6813
    6CHTO   N12 2346   6.514   5.057   1.692 -0.2582 -0.1926  0.0917
    6CHTO  H110 2347   6.487   5.109   1.602  0.8876  0.6457  0.2214
    6CHTO  H111 2348   6.567   4.964   1.673 -1.3905 -0.4270 -1.9778
    6CHTO   C69 2349   6.362   5.065   1.900  0.1307 -0.2222 -0.3398
    6CHTO  H126 2350   6.342   5.174   1.895 -1.3655 -0.4297  0.7092
    6CHTO   O41 2351   6.234   4.999   1.956 -0.1219 -0.1465 -0.4311
    6CHTO   C64 2352   6.118   5.031   1.878 -0.4687  0.7470  0.1354
    6CHTO  H121 2353   6.116   5.142   1.879  0.7806  0.7674  0.9160
    6CHTO   C71 2354   6.002   4.965   1.953 -0.2605  0.4081 -0.2908
    6CHTO   O47 2355   5.871   5.013   1.923  0.2264  0.3624 -0.4528
    6CHTO  H104 2356   5.872   5.106   1.936 -1.5784  0.3472 -0.1136
    6CHTO   O34 2357   6.489   5.028   1.992 -0.3546  0.4796  0.1794
    6CHTO   C49 2358   6.565   5.086   2.110 -0.0106  0.0488  0.0981
    6CHTO   H91 2359   6.530   5.015   2.185 -2.4299 -0.6518 -1.6148
    6CHTO   C47 2360   6.504   5.227   2.141 -0.1800 -0.2199  0.5190
    6CHTO   H89 2361   6.555   5.261   2.234  1.2005 -2.6509  0.6936
    6CHTO   O33 2362   6.364   5.212   2.159  0.0055 -0.4581  0.1536
    6CHTO   H70 2363   6.328   5.297   2.175 -3.7789 -1.7947 -0.7106
    6CHTO   C45 2364   6.545   5.335   2.024  0.3745  0.2655 -0.9375
    6CHTO   H87 2365   6.500   5.303   1.929 -1.2786  1.5425 -0.5947
    6CHTO    N8 2366   6.487   5.470   2.045  0.1307 -0.2312 -0.0419
    6CHTO   H75 2367   6.539   5.540   1.982 -1.4477  0.1568 -0.9512
    6CHTO   H76 2368   6.386   5.471   2.007  0.6013  1.9578 -1.3281
    6CHTO   C43 2369   6.701   5.330   2.009 -1.0878  0.3454  0.3999
    6CHTO   H85 2370   6.720   5.387   1.918  1.6983  0.0003  0.7037
    6CHTO   O29 2371   6.750   5.196   1.988 -0.5248  0.3578  0.0986
    6CHTO   C50 2372   6.710   5.091   2.077  0.2365 -0.0030  0.0693
    6CHTO   H92 2373   6.733   4.991   2.036 -0.5757  0.2185 -0.9454
    6CHTO   C54 2374   6.781   5.085   2.214 -0.2242 -0.3187 -0.1758
    6CHTO   O36 2375   6.922   5.089   2.195 -0.5421  0.4201  0.5359
    6CHTO   H72 2376   6.962   5.008   2.219  2.0511  0.7676 -2.2459
    6CHTO   O27 2377   6.778   5.395   2.116  0.0312  0.0604 -0.6367
    6CHTO   C37 2378   6.904   5.421   2.182 -0.0722 -0.2763 -0.3910
    6CHTO   H79 2379   6.935   5.344   2.254 -1.3262  1.4966  2.1467
    6CHTO   C38 2380   7.019   5.437   2.074  0.5453  0.0655 -0.3605
    6CHTO   H80 2381   6.982   5.506   1.997  0.3864 -0.8732 -1.1336
    6CHTO   O31 2382   7.031   5.314   2.009 -0.1867 -0.1037  0.4184
    6CHTO   H68 2383   6.943   5.285   1.993 -0.1652  0.7477 -1.3993
    6CHTO   C39 2384   7.152   5.487   2.142 -0.0759  0.2016  0.2053
    6CHTO   H81 2385   7.204   5.402   2.187  0.2984  0.1919 -0.2388
    6CHTO    N7 2386   7.244   5.547   2.039  0.2885  0.0453  0.2442
    6CHTO   H73 2387   7.292   5.474   1.976  0.5478  0.8539 -0.5066
    6CHTO   H74 2388   7.298   5.637   2.067  0.3136 -0.3539  1.4955
    6CHTO   C40 2389   7.130   5.587   2.261  0.0799 -0.8606 -0.5587
    6CHTO   H82 2390   7.110   5.685   2.216  0.2704 -0.1027  0.9908
    6CHTO   O26 2391   7.023   5.547   2.341  0.4849 -0.0420  0.1095
    6CHTO   C41 2392   6.898   5.552   2.269 -0.3537 -0.4164 -0.1272
    6CHTO   H83 2393   6.884   5.644   2.210 -1.1759 -0.5126 -0.0921
    6CHTO   C52 2394   6.784   5.551   2.379  0.2265 -0.2931  0.0932
    6CHTO   O35 2395   6.675   5.560   2.340 -0.3865 -0.4511  0.0621
    6CHTO   H71 2396   6.642   5.646   2.356 -0.1238 -0.6300  1.6657
    6CHTO   O28 2397   7.252   5.601   2.335 -0.1888  0.8263  0.3798
    6CHTO   C42 2398   7.264   5.638   2.482  0.0464  0.1367 -0.2825
    6CHTO   H84 2399   7.370   5.645   2.503  0.3011 -2.0685 -0.7372
    6CHTO   C44 2400   7.204   5.546   2.593  0.8887 -0.1504 -0.3098
    6CHTO   H86 2401   7.096   5.538   2.587  0.9651 -2.0516  0.4762
    6CHTO   O32 2402   7.270   5.412   2.566  0.1099  0.0132 -0.0478
    6CHTO   H69 2403   7.224   5.340   2.603  0.8402  0.3354  1.5166
    6CHTO   C48 2404   7.231   5.605   2.739 -0.3516  0.6111  0.2198
    6CHTO   H90 2405   7.336   5.627   2.759 -0.3783  1.1778 -0.2613
    6CHTO    N9 2406   7.171   5.509   2.841  0.0147 -0.1104  0.7955
    6CHTO   H77 2407   7.063   5.511   2.838  0.0225 -0.4524  0.2232
    6CHTO   H78 2408   7.214   5.413   2.817 -0.7340  0.2163 -1.9683
    6CHTO   C51 2409   7.170   5.750   2.738 -0.4549 -0.1379  0.7309
    6CHTO   H93 2410   7.063   5.742   2.721 -0.5243  1.5276  0.2532
    6CHTO   O30 2411   7.230   5.833   2.643 -0.0510 -0.5336  0.1441
    6CHTO   C46 2412   7.197   5.780   2.498  0.0854  0.4457 -0.6334
    6CHTO   H88 2413   7.089   5.773   2.497 -0.1118  2.3904  1.7070
    6CHTO   C53 2414   7.256   5.887   2.394  0.1421  0.1587  0.4272
    6CHTO   O72 2415   7.234   6.022   2.432  0.0074  0.5264  0.5317
    6CHTO  H199 2416   7.272   6.080   2.370 -0.8968  0.1376 -0.3983
    6CHTO   O22 2417   7.205   5.809   2.866 -0.6813 -0.1195 -0.0032
    6CHTO   C31 2418   7.091   5.870   2.949  0.4866 -0.2560 -0.0265
    6CHTO   H59 2419   6.996   5.831   2.907  1.2503 -0.2111 -1.8443
    6CHTO   C29 2420   7.093   5.827   3.105  0.0591 -0.2327  0.6860
    6CHTO   H57 2421   7.187   5.869   3.143 -0.3366  0.9944  0.3513
    6CHTO   O21 2422   7.121   5.689   3.106 -0.1199  0.3230  0.3556
    6CHTO   H37 2423   7.063   5.651   3.168 -0.8226  0.2124 -0.3647
    6CHTO   C27 2424   6.968   5.888   3.182  0.5865 -0.8357  0.1156
    6CHTO   H55 2425   6.878   5.843   3.138  2.1669 -1.8076 -2.2289
    6CHTO    N5 2426   6.974   5.867   3.327 -0.6577  0.1276 -1.0961
    6CHTO   H43 2427   7.044   5.932   3.378  0.3765 -0.6904 -1.4619
    6CHTO   H44 2428   7.005   5.768   3.356 -2.0929 -0.2092 -0.6484
    6CHTO   C25 2429   6.961   6.049   3.154 -0.0396 -0.0190  0.0295
    6CHTO   H53 2430   7.048   6.101   3.196 -0.5988  0.6039  0.4334
    6CHTO   O17 2431   6.954   6.056   3.012 -0.2567 -0.3348  0.3037
    6CHTO   C32 2432   7.081   6.018   2.949  0.3763  0.2539 -0.5293
    6CHTO   H60 2433   7.160   6.056   3.013 -1.6044  2.6930  0.5481
    6CHTO   C36 2434   7.083   6.071   2.804 -0.2571 -0.7482  0.3907
    6CHTO   O25 2435   7.099   6.214   2.805  0.1082 -0.1506  0.1603
    6CHTO   H40 2436   7.145   6.247   2.730 -0.7635  0.3010 -0.1919
    6CHTO   O15 2437   6.847   6.115   3.210  0.0450 -0.2032  0.1887
    6CHTO   C19 2438   6.729   6.173   3.280  0.0494 -0.2075 -0.3502
    6CHTO   H47 2439   6.698   6.094   3.350  0.0250  1.0414  1.0924
    6CHTO   C20 2440   6.756   6.300   3.366  0.7622 -0.9067  0.1493
    6CHTO   H48 2441   6.816   6.375   3.313 -0.7067 -1.4107 -2.2993
    6CHTO   O19 2442   6.849   6.256   3.471  0.0008 -0.1054 -0.1472
    6CHTO   H35 2443   6.882   6.171   3.446 -0.4061 -1.1106  2.5816
    6CHTO   C21 2444   6.628   6.369   3.415 -0.0565 -0.1301  0.4716
    6CHTO   H49 2445   6.578   6.308   3.490  0.9499 -1.8321 -0.2278
    6CHTO    N4 2446   6.666   6.498   3.475 -0.0041  0.0146 -0.5742
    6CHTO   H41 2447   6.689   6.570   3.398 -0.5360 -0.3578 -1.0909
    6CHTO   H42 2448   6.753   6.480   3.536 -1.7858 -2.2468  1.4282
    6CHTO   C22 2449   6.509   6.382   3.309  1.3798 -0.7063  0.2943
    6CHTO   H50 2450   6.539   6.444   3.225 -1.4362 -0.9586 -0.9440
    6CHTO   O14 2451   6.492   6.249   3.264  0.1785  0.2476  0.1188
    6CHTO   C23 2452   6.604   6.200   3.190  0.1165 -0.0637  0.5664
    6CHTO   H51 2453   6.632   6.264   3.105  1.7293  0.0571  1.1771
    6CHTO   C34 2454   6.551   6.081   3.117 -0.7505 -0.0253  0.4191
    6CHTO   O23 2455   6.491   5.986   3.200  0.0790 -0.2194 -0.0600
    6CHTO   H38 2456   6.464   6.022   3.283  1.2681  0.8387 -0.1198
    6CHTO   O16 2457   6.378   6.404   3.362  0.2714  0.4880 -0.0651
    6CHTO   C24 2458   6.257   6.422   3.259  0.2396  0.1804  0.9001
    6CHTO   H52 2459   6.284   6.392   3.158 -0.0350  1.4140  0.4600
    6CHTO   C26 2460   6.220   6.568   3.258 -0.6311  0.2162 -0.0496
    6CHTO   H54 2461   6.193   6.598   3.362 -0.0372  0.4100  0.0507
    6CHTO   O20 2462   6.343   6.636   3.233 -0.5449  0.2263 -0.5227
    6CHTO   H36 2463   6.374   6.631   3.144 -2.2674 -0.1572 -1.1119
    6CHTO   C30 2464   6.106   6.596   3.153  0.4192  0.2041 -0.4476
    6CHTO   H58 2465   6.130   6.570   3.048  2.4258  1.6111 -0.3680
    6CHTO    N6 2466   6.070   6.743   3.142 -0.2518  0.0482 -0.1862
    6CHTO   H45 2467   6.005   6.745   3.055 -2.8330  0.3762  1.6945
    6CHTO   H46 2468   6.160   6.795   3.115  1.4328 -2.3738  0.5844
    6CHTO   C33 2469   5.983   6.506   3.188 -0.1340  0.0222 -0.0717
    6CHTO   H61 2470   5.939   6.537   3.284 -1.0780  0.4200 -0.6281
    6CHTO   O18 2471   6.034   6.370   3.201  0.1458  0.7661  0.0594
    6CHTO   C28 2472   6.132   6.346   3.300  0.5104  0.1787 -0.2655
    6CHTO   H56 2473   6.106   6.377   3.402  2.0895  1.6886 -0.2917
    6CHTO   C35 2474   6.174   6.197   3.304 -0.3260 -0.4464 -0.6993
    6CHTO   O24 2475   6.210   6.128   3.186 -0.0582 -0.0163 -0.4171
    6CHTO   H39 2476   6.267   6.056   3.204  0.3655  0.8254  1.7015
    6CHTO    O9 2477   5.877   6.520   3.091 -0.2481 -0.7282  0.4148
    6CHTO   C13 2478   5.725   6.532   3.138  1.3626  0.3461  0.3714
    6CHTO   H26 2479   5.712   6.614   3.213 -0.5838  2.1208 -1.8125
    6CHTO   C11 2480   5.674   6.397   3.194 -0.1239  0.4121  0.4319
    6CHTO   H24 2481   5.738   6.382   3.281  3.1891  2.5078 -1.5394
    6CHTO    O8 2482   5.699   6.297   3.097 -0.2028  0.4846 -0.8816
    6CHTO    H3 2483   5.649   6.293   3.018  0.0320 -0.2229 -1.0003
    6CHTO    C9 2484   5.532   6.426   3.250  0.0887  0.2832 -0.8815
    6CHTO   H22 2485   5.547   6.488   3.339  1.2980 -0.2395 -0.7166
    6CHTO    N2 2486   5.471   6.307   3.312  0.3225  0.2778 -0.5206
    6CHTO   H10 2487   5.381   6.334   3.365 -2.5111 -5.4724 -1.9902
    6CHTO   H11 2488   5.449   6.239   3.231 -1.8280  4.0744 -3.2829
    6CHTO    C7 2489   5.444   6.509   3.152 -0.0727 -0.2504 -0.1251
    6CHTO   H20 2490   5.442   6.612   3.194 -0.5919 -0.8844  1.4182
    6CHTO    O4 2491   5.506   6.519   3.021  0.0121 -0.9441  0.3817
    6CHTO   C14 2492   5.636   6.583   3.017  0.8830 -0.7689  0.7810
    6CHTO   H27 2493   5.631   6.693   3.031  2.6006 -0.4198 -1.1050
    6CHTO   C18 2494   5.698   6.570   2.870  0.3552 -0.1207  0.0053
    6CHTO   O13 2495   5.717   6.437   2.825 -0.3108  0.0472 -0.3536
    6CHTO    H7 2496   5.689   6.441   2.735  0.7793 -0.6016 -0.7339
    6CHTO    O2 2497   5.279   6.461   3.138 -0.1798 -0.4138  0.5010
    6CHTO    C1 2498   5.178   6.558   3.154 -0.6200 -0.4545  0.0771
    6CHTO   H14 2499   5.228   6.644   3.202 -2.4154  0.7682 -0.1889
    6CHTO    C2 2500   5.054   6.505   3.253 -0.8046  0.8982 -0.9141
    6CHTO   H15 2501   5.024   6.416   3.194  1.5055 -0.7743  0.3494
    6CHTO    O6 2502   5.105   6.462   3.380  0.0823 -0.1693  0.4213
    6CHTO    H1 2503   5.192   6.427   3.380  0.7851  1.5238  0.3372
    6CHTO    C3 2504   4.942   6.614   3.247 -0.1253 -0.2505  0.1594
    6CHTO   H16 2505   4.977   6.700   3.306  0.3612  0.7632 -1.5736
    6CHTO    N1 2506   4.824   6.561   3.317  0.2706  0.5992  0.6507
    6CHTO    H8 2507   4.761   6.516   3.242  1.3681  1.7681 -1.0097
    6CHTO    H9 2508   4.851   6.490   3.393  0.8941  0.4921  0.3365
    6CHTO    C4 2509   4.899   6.663   3.102 -0.2285  0.6365 -0.2470
    6CHTO   H17 2510   4.860   6.581   3.042 -0.9067  1.0123 -0.3208
    6CHTO    O1 2511   5.020   6.705   3.031  0.3269  0.7899  0.1765
    6CHTO    C5 2512   5.124   6.605   3.013  0.4623 -0.1108  0.0584
    6CHTO   H18 2513   5.089   6.517   2.960  1.4076  0.2146 -1.1226
    6CHTO   C16 2514   5.229   6.675   2.925  0.5121 -0.1215 -0.2378
    6CHTO   O11 2515   5.301   6.780   2.988 -0.0237 -0.0882 -0.2254
    6CHTO    H5 2516   5.356   6.829   2.931 -0.8428 -0.5359 -1.4388
    6CHTO    O3 2517   4.814   6.780   3.100 -0.8033 -0.4808 -0.3410
    6CHTO    C6 2518   4.728   6.818   2.989  0.5562 -0.1326  0.0480
    6CHTO   H19 2519   4.662   6.901   3.012  0.8198  0.4346 -1.1834
    6CHTO    C8 2520   4.807   6.882   2.874 -0.1727  0.1805 -0.1225
    6CHTO   H21 2521   4.893   6.819   2.848 -1.4594 -1.4509 -0.4862
    6CHTO    O7 2522   4.844   7.012   2.927 -0.6815 -0.7918  0.3908
    6CHTO    H2 2523   4.926   6.993   2.967 -0.9539 -3.9300 -0.4310
    6CHTO   C12 2524   4.714   6.901   2.748  0.5982  0.2807  0.1986
    6CHTO   H25 2525   4.641   6.979   2.777  0.9061  0.6305  0.0266
    6CHTO    N3 2526   4.803   6.947   2.636 -0.4528 -0.6966  1.2109
    6CHTO   H12 2527   4.757   6.928   2.540  0.7312  0.9679  0.2663
    6CHTO   H13 2528   4.909   6.928   2.649 -0.4734 -0.8392  1.1724
    6CHTO   C15 2529   4.632   6.773   2.706  0.0199  0.0519 -0.1054
    6CHTO   H28 2530   4.684   6.693   2.654  1.0696 -0.0532  1.0772
    6CHTO   O10 2531   4.521   6.802   2.607  0.0783  0.2109 -0.6484
    6CHTO    H4 2532   4.474   6.723   2.589  2.6731 -1.0362 -2.2840
    6CHTO    O5 2533   4.558   6.718   2.817 -0.0960  0.4144  0.3236
    6CHTO   C10 2534   4.635   6.702   2.938  0.3279 -0.1201  0.3197
    6CHTO   H23 2535   4.699   6.616   2.917 -1.8395 -1.3769 -1.3755
    6CHTO   C17 2536   4.537   6.665   3.050 -0.2973  0.7027 -0.1032
    6CHTO   O12 2537   4.479   6.534   3.014  0.1197  0.4943  0.0855
    6CHTO    H6 2538   4.406   6.521   3.072 -0.8545  0.8546 -1.0508
    7CHTO  H203 2539   4.565   1.828   0.452 -1.0675  1.6383  0.5337
    7CHTO   O82 2540   4.600   1.847   0.367  0.1168 -0.5003  0.5059
    7CHTO  C123 2541   4.692   1.957   0.387 -0.5107  0.4052  0.5067
    7CHTO  H227 2542   4.649   2.045   0.436  0.9577  1.3597  0.1353
    7CHTO   O77 2543   4.804   1.905   0.468  0.0278 -0.1417 -0.3686
    7CHTO  C118 2544   4.911   2.002   0.487 -0.0705 -0.0357  0.1571
    7CHTO  H222 2545   4.858   2.088   0.531 -1.1856 -1.2620  1.2528
    7CHTO  C125 2546   5.013   1.957   0.592  0.3952  1.0959  0.3197
    7CHTO   O84 2547   4.976   1.996   0.723 -0.1206 -0.2509  0.0449
    7CHTO  H205 2548   4.908   1.940   0.755 -0.0711 -0.2193  0.2068
    7CHTO  C114 2549   4.974   2.032   0.347  0.0282  1.0728 -0.0643
    7CHTO  H218 2550   5.015   1.939   0.310 -0.5331  0.8147 -0.0429
    7CHTO  C116 2551   4.872   2.092   0.254  0.0754  0.1388  0.2384
    7CHTO  H220 2552   4.843   2.195   0.285  0.5938 -0.2478  2.0898
    7CHTO   O79 2553   4.927   2.107   0.126 -0.5002 -0.0928  0.0400
    7CHTO  H201 2554   4.992   2.175   0.124  2.4023 -2.7421 -1.2721
    7CHTO  C120 2555   4.747   1.998   0.240  0.1079 -0.3622 -0.5632
    7CHTO  H224 2556   4.787   1.913   0.180 -0.5143 -0.3139 -1.0524
    7CHTO   N21 2557   4.632   2.040   0.157  0.0070 -0.1460  0.3152
    7CHTO  H211 2558   4.668   2.109   0.082  1.0674 -0.8422  0.1729
    7CHTO  H212 2559   4.556   2.085   0.220 -2.2469 -0.5252 -2.0487
    7CHTO   O75 2560   5.079   2.132   0.370  0.0364 -0.4523 -0.5466
    7CHTO  C112 2561   5.249   2.108   0.303 -0.7198 -0.1071  0.2208
    7CHTO  H216 2562   5.250   2.022   0.235  2.0302 -2.4410  3.0261
    7CHTO   O73 2563   5.338   2.084   0.415  0.1760  0.2971  0.5292
    7CHTO  C113 2564   5.472   2.065   0.365 -0.3253  0.6751 -0.3633
    7CHTO  H217 2565   5.470   2.002   0.273 -1.4712 -0.2695  0.2901
    7CHTO  C124 2566   5.544   1.993   0.477  0.6467 -0.4313 -0.1068
    7CHTO   O83 2567   5.541   1.852   0.446 -0.5205  0.1693 -0.3781
    7CHTO  H204 2568   5.621   1.821   0.408  0.6658  2.4675  0.1990
    7CHTO  C109 2569   5.527   2.198   0.329  0.6687 -0.0324 -0.7704
    7CHTO  H213 2570   5.499   2.264   0.412  1.1102 -1.9281  0.9428
    7CHTO  C110 2571   5.446   2.232   0.197  0.2504  0.7909 -0.3941
    7CHTO  H214 2572   5.465   2.148   0.130 -2.6643  0.6159 -1.0633
    7CHTO   O78 2573   5.493   2.358   0.152  0.2795 -0.3133 -0.3877
    7CHTO  H200 2574   5.582   2.363   0.123  0.4902  0.7652  0.4016
    7CHTO  C111 2575   5.292   2.235   0.231 -1.3274  0.3912 -0.4973
    7CHTO  H215 2576   5.274   2.313   0.307 -2.2730  0.0391 -0.3461
    7CHTO   N19 2577   5.202   2.269   0.118 -0.4373 -0.0987  0.3595
    7CHTO  H207 2578   5.170   2.182   0.064 -3.6729 -0.1200  2.2408
    7CHTO  H208 2579   5.243   2.342   0.049  2.0046  0.2451  2.0831
    7CHTO   O74 2580   5.671   2.209   0.303  0.5435 -0.2685  1.0255
    7CHTO  C115 2581   5.711   2.343   0.376 -0.9097  0.2743 -0.1520
    7CHTO  H219 2582   5.639   2.424   0.361  1.7543  2.5624 -1.0648
    7CHTO   O76 2583   5.722   2.321   0.535  0.0882 -0.5893 -0.8190
    7CHTO  C122 2584   5.828   2.232   0.587  0.2591 -0.2177  0.4786
    7CHTO  H226 2585   5.806   2.129   0.561 -1.7372  0.3365 -0.0536
    7CHTO  C126 2586   5.823   2.248   0.737 -0.2869 -0.1384 -0.6186
    7CHTO   O85 2587   5.690   2.213   0.789  0.5927 -0.4718  0.2544
    7CHTO  H206 2588   5.672   2.267   0.864 -0.7930  0.1486 -0.5016
    7CHTO  C121 2589   5.961   2.295   0.526  0.2610 -0.3446  0.2423
    7CHTO  H225 2590   5.959   2.398   0.568  0.3421 -0.2966  0.1285
    7CHTO   O81 2591   6.072   2.219   0.579 -0.0883  0.3108 -0.2726
    7CHTO  H202 2592   6.063   2.128   0.558 -0.0648  0.3003 -0.2367
    7CHTO  C119 2593   5.957   2.295   0.371 -0.2477  0.5507 -0.1346
    7CHTO  H223 2594   6.052   2.334   0.335 -0.0279  0.4833  0.3726
    7CHTO  C117 2595   5.846   2.389   0.314 -0.2174 -0.5058 -0.2034
    7CHTO  H221 2596   5.836   2.384   0.205  0.9399 -1.1357 -0.2880
    7CHTO   N20 2597   5.869   2.535   0.328  0.2356 -0.2174  0.4532
    7CHTO  H209 2598   5.970   2.569   0.347 -0.2356  3.0313 -2.3709
    7CHTO  H210 2599   5.811   2.579   0.408  0.5150  0.1450  0.4542
    7CHTO   O80 2600   5.955   2.158   0.320 -0.4636 -0.5079 -0.0742
    7CHTO  C103 2601   6.052   2.111   0.220 -0.4683  0.0870  0.5345
    7CHTO  H190 2602   6.034   2.144   0.118 -0.2941  0.2809  0.5668
    7CHTO  C101 2603   6.205   2.141   0.256  0.3431 -0.2745  0.6098
    7CHTO  H188 2604   6.210   2.123   0.364 -0.0943  0.1883  0.7117
    7CHTO   O68 2605   6.241   2.305   0.219  0.0200 -0.4719 -0.4596
    7CHTO  H168 2606   6.329   2.317   0.250  0.4349  2.3342 -2.5877
    7CHTO   C99 2607   6.309   2.036   0.189 -0.0517 -0.7087  1.0369
    7CHTO  H186 2608   6.311   2.060   0.081 -1.9578  0.7687  1.3038
    7CHTO   N17 2609   6.449   2.066   0.234  0.1987  0.2557 -0.3467
    7CHTO  H174 2610   6.476   2.165   0.200 -0.8295  0.7692  0.3129
    7CHTO  H175 2611   6.525   2.003   0.190  0.3319  0.2889 -0.1672
    7CHTO   C97 2612   6.263   1.891   0.207 -0.0238 -0.1986  0.1635
    7CHTO  H184 2613   6.266   1.873   0.316 -1.2996  1.4604  0.5000
    7CHTO   O64 2614   6.123   1.877   0.156  0.3220 -0.6216 -0.0802
    7CHTO  C104 2615   6.025   1.958   0.222 -0.4539 -0.6335  0.4009
    7CHTO  H191 2616   6.011   1.926   0.325 -2.1906  2.2272  1.1192
    7CHTO  C108 2617   5.894   1.933   0.150 -0.1172  0.0285  0.6294
    7CHTO   O71 2618   5.848   1.794   0.144  0.0143 -0.0013  0.6186
    7CHTO  H171 2619   5.818   1.766   0.228 -1.0617  0.3142  0.3533
    7CHTO   O62 2620   6.341   1.786   0.133 -0.1957  0.2500 -0.5318
    7CHTO   C91 2621   6.293   1.648   0.136 -0.6397 -0.1424 -0.5974
    7CHTO  H178 2622   6.389   1.595   0.132  0.4631  1.6943  0.6157
    7CHTO   C92 2623   6.228   1.623  -0.004  0.0552 -0.2622  0.0616
    7CHTO  H179 2624   6.170   1.715  -0.022  0.2939 -0.1587 -0.1876
    7CHTO   O66 2625   6.328   1.612  -0.112  0.1720  0.2793 -0.7855
    7CHTO  H166 2626   6.391   1.681  -0.107 -0.4953  0.8271  0.4307
    7CHTO   C93 2627   6.135   1.503  -0.006 -0.2805  0.5104  0.3701
    7CHTO  H180 2628   6.194   1.410  -0.010  0.6360  1.0493  1.1481
    7CHTO   N16 2629   6.056   1.498  -0.131 -0.1991 -0.0650 -0.0605
    7CHTO  H172 2630   6.096   1.471  -0.227 -1.0465 -0.7872 -0.2136
    7CHTO  H173 2631   5.971   1.565  -0.131 -1.5697 -1.7672  0.4632
    7CHTO   C94 2632   6.048   1.493   0.117 -0.1107 -0.6701  0.2374
    7CHTO  H181 2633   5.982   1.579   0.129  1.7291  0.5238  2.0306
    7CHTO   O61 2634   6.140   1.483   0.230  0.4926 -0.6627  0.2351
    7CHTO   C95 2635   6.211   1.598   0.267 -0.4178  0.3538 -0.2299
    7CHTO  H182 2636   6.140   1.669   0.310  0.3125 -0.8949  3.1694
    7CHTO  C106 2637   6.297   1.554   0.380  0.4840  0.9377 -0.0877
    7CHTO   O69 2638   6.373   1.661   0.426  0.0377  0.2282  0.2650
    7CHTO  H169 2639   6.318   1.731   0.455 -2.0330  0.0984 -3.0293
    7CHTO   O63 2640   5.967   1.346   0.123  0.1079  0.3995 -0.5477
    7CHTO   C96 2641   5.808   1.365   0.168  0.3880 -0.0977  0.0726
    7CHTO  H183 2642   5.778   1.448   0.104  0.7445  0.0783  0.1300
    7CHTO   C98 2643   5.787   1.389   0.320 -0.5722 -0.3215 -0.5611
    7CHTO  H185 2644   5.847   1.478   0.343 -2.2878  0.8488 -0.5620
    7CHTO   O67 2645   5.651   1.432   0.336  0.1448  0.2413 -0.5789
    7CHTO  H167 2646   5.640   1.518   0.301 -1.1435  0.3607  0.1096
    7CHTO  C102 2647   5.822   1.259   0.414 -0.8838 -0.1785 -0.7392
    7CHTO  H189 2648   5.744   1.252   0.491 -0.1731  2.7878  0.2826
    7CHTO   N18 2649   5.953   1.269   0.483 -0.0229 -0.3007  0.3855
    7CHTO  H176 2650   6.018   1.184   0.468  0.1003 -0.1568  0.1002
    7CHTO  H177 2651   5.958   1.332   0.571 -0.9234 -0.2934  0.4386
    7CHTO  C105 2652   5.815   1.132   0.317 -0.2747 -0.6371  0.1751
    7CHTO  H192 2653   5.910   1.103   0.273  0.0678  0.5871  0.1033
    7CHTO   O65 2654   5.719   1.130   0.214  0.0570 -0.5671  0.9000
    7CHTO  C100 2655   5.738   1.235   0.115 -0.6526 -0.1047  0.1324
    7CHTO  H187 2656   5.808   1.202   0.037  0.7402 -2.2024  2.2051
    7CHTO  C107 2657   5.599   1.270   0.045  0.2093  0.2024  1.1124
    7CHTO   O70 2658   5.618   1.347  -0.076  0.3873  0.4612 -0.0982
    7CHTO  H170 2659   5.702   1.327  -0.112  0.7746  0.7628  0.6245
    7CHTO   O57 2660   5.769   1.016   0.424  0.5570  0.4758  0.2099
    7CHTO   C85 2661   5.830   0.881   0.418 -0.0569  0.3355  0.5912
    7CHTO  H157 2662   5.917   0.884   0.349  1.2364  3.1800  2.2497
    7CHTO   C83 2663   5.738   0.786   0.349  0.0993  0.8294  0.0389
    7CHTO  H155 2664   5.721   0.833   0.252 -0.1132  0.4469 -0.1099
    7CHTO   O56 2665   5.610   0.772   0.412  0.4932 -0.3508  0.4909
    7CHTO  H135 2666   5.555   0.836   0.371  0.5502 -0.4906  0.1957
    7CHTO   C81 2667   5.813   0.654   0.330  0.3634  0.2412 -0.1665
    7CHTO  H153 2668   5.908   0.672   0.280  1.2059 -1.0674  0.9210
    7CHTO   N14 2669   5.736   0.557   0.243  0.4603 -0.6026  0.6916
    7CHTO  H141 2670   5.750   0.454   0.265 -0.0158 -0.5294  1.3584
    7CHTO  H142 2671   5.631   0.578   0.246  0.7657  1.3922 -1.0344
    7CHTO   C79 2672   5.852   0.586   0.469  0.4126  0.4536 -0.5488
    7CHTO  H151 2673   5.921   0.505   0.447  1.5277  1.4931 -0.9102
    7CHTO   O52 2674   5.924   0.691   0.546 -0.6439  0.6593 -0.1326
    7CHTO   C86 2675   5.867   0.824   0.560 -0.7798 -0.5349 -0.7626
    7CHTO  H158 2676   5.781   0.808   0.629  1.4190  4.2309  3.4594
    7CHTO   C90 2677   5.960   0.923   0.635  0.0051 -0.3851  0.1321
    7CHTO   O60 2678   6.090   0.925   0.579 -0.2351  0.1524  0.4878
    7CHTO  H138 2679   6.148   0.914   0.652 -2.1216  1.1965  2.2143
    7CHTO   O50 2680   5.736   0.546   0.553  0.3583 -0.0471 -0.3995
    7CHTO   C73 2681   5.733   0.424   0.619  0.5505 -1.1580 -0.1902
    7CHTO  H145 2682   5.823   0.361   0.619  1.6748  0.3934  1.7875
    7CHTO   C74 2683   5.622   0.343   0.552  0.0177  0.0874 -0.4012
    7CHTO  H146 2684   5.663   0.344   0.450 -1.2610 -1.4823 -0.9555
    7CHTO   O54 2685   5.623   0.206   0.595 -0.4347 -0.0051  0.0466
    7CHTO  H133 2686   5.541   0.170   0.623  0.7745 -1.5543  1.7334
    7CHTO   C75 2687   5.481   0.408   0.560 -0.0227  0.2870 -0.3245
    7CHTO  H147 2688   5.485   0.502   0.502  0.7838 -0.3448 -1.3157
    7CHTO   N13 2689   5.373   0.327   0.489 -0.1886  0.1291 -0.3649
    7CHTO  H139 2690   5.327   0.376   0.404 -4.9584 -2.2104  0.7090
    7CHTO  H140 2691   5.300   0.280   0.553  0.7391 -0.1620  0.4899
    7CHTO   C76 2692   5.449   0.441   0.719  0.2631 -0.1569  0.0230
    7CHTO  H148 2693   5.426   0.346   0.767 -3.1345  0.5581 -0.0760
    7CHTO   O49 2694   5.563   0.510   0.781 -0.4048  0.4629 -0.3076
    7CHTO   C77 2695   5.700   0.454   0.766 -0.4428  0.3288 -0.4798
    7CHTO  H149 2696   5.713   0.363   0.826 -0.8135 -0.6882 -1.9240
    7CHTO   C88 2697   5.780   0.570   0.836 -0.8665  0.2964  0.5400
    7CHTO   O58 2698   5.754   0.592   0.963  0.4412 -0.0817  0.2745
    7CHTO  H136 2699   5.667   0.628   0.964  0.3173 -0.3653 -0.2076
    7CHTO   O51 2700   5.341   0.535   0.728  0.3207  0.9220  0.5212
    7CHTO   C78 2701   5.274   0.549   0.861  0.6216  0.1612 -0.2366
    7CHTO  H150 2702   5.334   0.512   0.947 -1.5660 -2.0541  0.4080
    7CHTO   C80 2703   5.148   0.466   0.861 -0.0213 -0.0627 -0.3268
    7CHTO  H152 2704   5.087   0.502   0.775  1.1727 -1.5997 -1.8487
    7CHTO   O55 2705   5.172   0.323   0.840  0.1285  0.0074 -0.2997
    7CHTO  H134 2706   5.190   0.300   0.751  1.9511  1.4414 -0.3182
    7CHTO   C84 2707   5.072   0.480   1.003 -0.6741  0.2519 -0.1154
    7CHTO  H156 2708   5.141   0.437   1.076  0.4215 -1.2606 -1.9793
    7CHTO   N15 2709   4.941   0.417   1.009 -0.4752  0.4024  0.3947
    7CHTO  H143 2710   4.942   0.311   0.991 -0.8636  0.5176 -0.3152
    7CHTO  H144 2711   4.876   0.463   0.938  0.4942 -0.4139 -1.0574
    7CHTO   C87 2712   5.066   0.623   1.059 -0.4162  0.4756  0.4419
    7CHTO  H159 2713   4.986   0.677   1.008  1.6436  0.7651 -2.6794
    7CHTO   O53 2714   5.213   0.713   1.028 -0.0268  0.4481  0.9523
    7CHTO   C82 2715   5.243   0.697   0.885  0.8211 -0.2099  0.1386
    7CHTO  H154 2716   5.159   0.730   0.824 -0.0426 -0.2029  1.3130
    7CHTO   C89 2717   5.362   0.786   0.844  0.2176 -0.5071  0.2263
    7CHTO   O59 2718   5.328   0.921   0.879 -0.0938  0.7628 -0.3996
    7CHTO  H137 2719   5.402   0.980   0.879 -0.0475  0.7629 -2.5910
    7CHTO   O45 2720   5.006   0.634   1.217 -0.2510  0.4336  0.0119
    7CHTO   C67 2721   5.092   0.716   1.307  0.0705 -0.0957  0.0637
    7CHTO  H124 2722   5.176   0.756   1.251 -0.7175 -0.6280 -1.5438
    7CHTO   C65 2723   5.012   0.834   1.364 -0.5301 -0.7292 -0.4392
    7CHTO  H122 2724   4.908   0.802   1.376 -0.4354 -0.6960  0.4915
    7CHTO   O44 2725   5.017   0.928   1.251 -0.2171 -0.0208  0.2693
    7CHTO  H102 2726   5.103   0.959   1.229  0.2859 -1.1531  0.5878
    7CHTO   C63 2727   5.050   0.879   1.512  0.2246 -0.1781 -0.0578
    7CHTO  H120 2728   5.006   0.810   1.584 -2.4362  2.0063  0.4817
    7CHTO   N11 2729   4.987   1.012   1.554  0.0495 -0.7388  0.1188
    7CHTO  H108 2730   4.993   1.040   1.657  1.0894  2.6007 -0.8047
    7CHTO  H109 2731   5.059   1.080   1.513 -0.9426  1.6680  2.3301
    7CHTO   C61 2732   5.204   0.859   1.546  0.2481 -0.3177  0.1563
    7CHTO  H118 2733   5.226   0.881   1.652  0.0243  1.4551 -0.1459
    7CHTO   O40 2734   5.242   0.714   1.531  0.0204 -0.0773  0.6005
    7CHTO   C68 2735   5.151   0.640   1.436  0.1859  0.1429  0.0076
    7CHTO  H125 2736   5.074   0.596   1.503 -0.7884  0.9943 -0.5542
    7CHTO   C72 2737   5.222   0.521   1.378  0.0217 -0.3396  0.6795
    7CHTO   O48 2738   5.234   0.403   1.454  0.3453  0.2049  1.0000
    7CHTO  H105 2739   5.229   0.328   1.399  2.3836 -1.6390  3.2510
    7CHTO   O38 2740   5.290   0.930   1.457 -0.0009 -1.1589  0.2416
    7CHTO   C55 2741   5.418   0.974   1.499  0.3966 -0.5677 -0.3895
    7CHTO  H112 2742   5.447   0.892   1.567 -1.1985 -4.0152 -3.6189
    7CHTO   C56 2743   5.395   1.116   1.573 -0.7244  0.0356 -0.4424
    7CHTO  H113 2744   5.340   1.176   1.500 -0.9038  0.8538  0.3565
    7CHTO   O42 2745   5.306   1.109   1.687 -0.0712 -0.5152  0.0545
    7CHTO  H100 2746   5.274   1.023   1.707  1.2855 -0.8778  0.7419
    7CHTO   C57 2747   5.535   1.179   1.612 -0.0687  0.2569 -0.7069
    7CHTO  H114 2748   5.582   1.122   1.692 -1.2442 -1.8839 -1.4888
    7CHTO   N10 2749   5.529   1.319   1.658  0.1033  0.0372 -0.3710
    7CHTO  H106 2750   5.450   1.380   1.617 -0.3040 -0.4604 -0.3264
    7CHTO  H107 2751   5.538   1.344   1.763 -2.0404  3.2247 -0.8746
    7CHTO   C58 2752   5.627   1.181   1.490 -0.5387  0.0715  0.8679
    7CHTO  H115 2753   5.580   1.239   1.408 -3.6298 -1.2488  1.6209
    7CHTO   O37 2754   5.641   1.044   1.441  0.6736  0.2624 -0.1396
    7CHTO   C59 2755   5.522   0.979   1.393  0.5611 -0.1354  0.4810
    7CHTO  H116 2756   5.495   1.035   1.303 -0.8159 -1.0062  0.3420
    7CHTO   C70 2757   5.566   0.837   1.358  0.2899 -0.1511  0.3349
    7CHTO   O46 2758   5.458   0.751   1.308 -0.1814 -0.0123 -0.5452
    7CHTO  H103 2759   5.430   0.779   1.223 -2.6925  0.7930  0.5165
    7CHTO   O39 2760   5.783   1.227   1.543  0.1750  0.1129 -0.3737
    7CHTO   C60 2761   5.883   1.226   1.439  0.2989 -0.3100  0.2598
    7CHTO  H117 2762   5.871   1.141   1.372  1.8141 -1.0827  0.9356
    7CHTO   C62 2763   5.876   1.350   1.350 -0.2214 -0.4772  0.7473
    7CHTO  H119 2764   5.768   1.351   1.324  0.4967 -0.5664 -2.4639
    7CHTO   O43 2765   5.912   1.467   1.420  0.4897  0.5285  0.8889
    7CHTO  H101 2766   5.861   1.543   1.401  0.9287  0.2957 -1.2865
    7CHTO   C66 2767   5.966   1.319   1.222 -0.0065  0.4756  0.5052
    7CHTO  H123 2768   5.916   1.242   1.163  2.3168  0.4754 -1.5570
    7CHTO   N12 2769   5.963   1.433   1.120  0.8074  0.1598 -0.3635
    7CHTO  H110 2770   5.866   1.479   1.108 -0.1825 -1.7396  0.1514
    7CHTO  H111 2771   6.030   1.513   1.146 -0.7999  1.6708 -0.7821
    7CHTO   C69 2772   6.112   1.265   1.256  0.4865 -0.4515  0.5652
    7CHTO  H126 2773   6.176   1.353   1.278 -1.7453  1.3614  0.1456
    7CHTO   O41 2774   6.108   1.166   1.370  0.2692 -0.8378 -0.7174
    7CHTO   C64 2775   6.026   1.211   1.498 -0.4709  0.5250 -0.0934
    7CHTO  H121 2776   6.055   1.311   1.536 -1.2100  1.3694 -1.6864
    7CHTO   C71 2777   6.018   1.099   1.613 -0.0650 -0.5218 -0.2524
    7CHTO   O47 2778   6.154   1.065   1.661  0.2475  0.1594  0.1512
    7CHTO  H104 2779   6.156   0.971   1.661 -2.6694 -0.0121 -2.4260
    7CHTO   O34 2780   6.166   1.198   1.127 -0.1704  0.2505  0.0743
    7CHTO   C49 2781   6.275   1.088   1.077  0.4101 -0.9984  0.1381
    7CHTO   H91 2782   6.316   1.133   0.987  0.1876 -0.0564  0.5012
    7CHTO   C47 2783   6.201   0.960   1.044 -0.2534  0.5372 -0.2724
    7CHTO   H89 2784   6.266   0.895   0.981 -1.5046 -1.0108 -0.0034
    7CHTO   O33 2785   6.085   0.998   0.969  0.1684 -0.5443 -0.1369
    7CHTO   H70 2786   6.016   1.041   1.016 -0.1471  0.0135 -1.1068
    7CHTO   C45 2787   6.164   0.871   1.175 -0.1865 -0.3009  0.4828
    7CHTO   H87 2788   6.098   0.933   1.238  1.0853  0.9112  0.6268
    7CHTO    N8 2789   6.080   0.754   1.137 -0.0932  0.3647 -0.9037
    7CHTO   H75 2790   6.136   0.676   1.087 -2.8277 -0.8898 -2.1235
    7CHTO   H76 2791   6.027   0.703   1.217  0.0802 -0.2813 -1.1951
    7CHTO   C43 2792   6.293   0.842   1.264  0.3113 -0.2288 -0.3642
    7CHTO   H85 2793   6.255   0.799   1.356 -0.6180  0.5468 -0.3739
    7CHTO   O29 2794   6.362   0.968   1.288  0.5795 -0.0438  0.2956
    7CHTO   C50 2795   6.385   1.066   1.183  0.0120  0.2351 -0.2625
    7CHTO   H92 2796   6.404   1.159   1.239 -1.0054  0.2329  0.0932
    7CHTO   C54 2797   6.515   1.038   1.104  0.1374  0.0230 -0.0083
    7CHTO   O36 2798   6.634   1.037   1.188 -0.1033  0.2936 -0.0340
    7CHTO   H72 2799   6.668   1.122   1.209  2.4906 -0.5753 -0.5375
    7CHTO   O27 2800   6.383   0.741   1.208 -0.1209  0.2991 -0.1073
    7CHTO   C37 2801   6.437   0.618   1.258 -0.5644 -0.3770 -0.3006
    7CHTO   H79 2802   6.402   0.592   1.359 -1.1583 -1.7546 -0.8584
    7CHTO   C38 2803   6.396   0.498   1.171 -0.1646 -0.4013  0.0508
    7CHTO   H80 2804   6.396   0.535   1.067  1.2779  2.1319  0.9065
    7CHTO   O31 2805   6.256   0.462   1.208  0.4836 -0.5208  0.0446
    7CHTO   H68 2806   6.226   0.395   1.150  0.5851 -0.6185  0.1060
    7CHTO   C39 2807   6.480   0.366   1.181 -0.4177 -0.0782 -0.5167
    7CHTO   H81 2808   6.479   0.327   1.283  1.5374 -2.1756 -1.2625
    7CHTO    N7 2809   6.453   0.251   1.091  0.0922  0.2595 -0.2052
    7CHTO   H73 2810   6.445   0.297   0.993  1.2763  0.3947 -0.2469
    7CHTO   H74 2811   6.530   0.177   1.108  1.1626  1.3650 -0.1964
    7CHTO   C40 2812   6.635   0.405   1.185  1.2653  0.0535 -0.1454
    7CHTO   H82 2813   6.656   0.439   1.083  0.7685  2.1288  0.4225
    7CHTO   O26 2814   6.653   0.508   1.280  0.1680  0.4099  0.3598
    7CHTO   C41 2815   6.592   0.636   1.259 -0.3319  0.6770  0.1245
    7CHTO   H83 2816   6.630   0.676   1.164 -1.6742  2.1862  0.1916
    7CHTO   C52 2817   6.644   0.720   1.377 -0.0547 -0.1305 -0.7460
    7CHTO   O35 2818   6.615   0.673   1.495  0.1984 -0.0046 -0.4193
    7CHTO   H71 2819   6.693   0.629   1.521 -0.2352 -1.4138 -1.4651
    7CHTO   O28 2820   6.732   0.305   1.235  0.0050  0.2591  0.5179
    7CHTO   C42 2821   6.872   0.302   1.183 -0.5656  0.6548 -0.9480
    7CHTO   H84 2822   6.927   0.236   1.250 -0.8509  1.1703 -0.1961
    7CHTO   C44 2823   6.941   0.436   1.199 -0.2997  0.9238  0.2755
    7CHTO   H86 2824   6.876   0.514   1.158 -0.6265  1.2133  1.3229
    7CHTO   O32 2825   6.954   0.458   1.345  0.3707 -0.7236  0.4106
    7CHTO   H69 2826   7.036   0.429   1.380 -0.3990 -2.7618  0.5284
    7CHTO   C48 2827   7.085   0.436   1.131 -1.0510 -0.5122  0.8590
    7CHTO   H90 2828   7.149   0.368   1.187 -2.4415 -2.4217  0.1798
    7CHTO    N9 2829   7.143   0.579   1.136 -0.9126 -0.2750 -0.0903
    7CHTO   H77 2830   7.195   0.598   1.043 -0.6977 -3.5503 -0.7336
    7CHTO   H78 2831   7.059   0.645   1.154 -0.5566 -0.1386  1.0954
    7CHTO   C51 2832   7.068   0.385   0.986 -0.6867 -0.0837  0.5113
    7CHTO   H93 2833   6.995   0.448   0.936 -1.8056 -1.6801  0.0961
    7CHTO   O30 2834   7.023   0.248   0.991  0.0184  0.2246 -0.2991
    7CHTO   C46 2835   6.884   0.242   1.034 -0.1052  1.0154 -0.9107
    7CHTO   H88 2836   6.817   0.298   0.969 -1.0400  2.0285  0.8914
    7CHTO   C53 2837   6.837   0.091   1.029 -0.3808 -0.0392 -0.4203
    7CHTO   O72 2838   6.758   0.061   0.915  0.2683  0.3746  0.1591
    7CHTO  H199 2839   6.683   0.110   0.888  0.9366  2.0671  1.3217
    7CHTO   O22 2840   7.189   0.383   0.909  0.2996  0.3468  0.4258
    7CHTO   C31 2841   7.197   0.378   0.759 -0.1220  0.6289 -0.2425
    7CHTO   H59 2842   7.306   0.384   0.739 -0.1960  0.0430 -0.8309
    7CHTO   C29 2843   7.138   0.258   0.675  0.2701 -0.2727  0.1576
    7CHTO   H57 2844   7.032   0.276   0.699  0.4796  2.7913 -1.0004
    7CHTO   O21 2845   7.158   0.122   0.717 -0.6514 -0.0405 -0.2083
    7CHTO   H37 2846   7.166   0.122   0.811  1.1669  1.9388 -0.3136
    7CHTO   C27 2847   7.153   0.284   0.519  0.0523  0.1334 -0.2367
    7CHTO   H55 2848   7.260   0.285   0.494 -0.2208 -0.5723 -1.4811
    7CHTO    N5 2849   7.083   0.180   0.432 -0.2309 -0.1669 -0.1443
    7CHTO   H43 2850   7.153   0.126   0.370  1.1887  1.0175  0.4002
    7CHTO   H44 2851   7.020   0.112   0.488 -0.7527  1.7705  1.6724
    7CHTO   C25 2852   7.087   0.418   0.480  0.2587  0.1201  0.8892
    7CHTO   H53 2853   6.982   0.407   0.511 -0.3680 -0.7087 -1.4703
    7CHTO   O17 2854   7.153   0.520   0.556  0.2015 -0.9358 -0.0151
    7CHTO   C32 2855   7.139   0.511   0.699  0.0087 -0.8008 -0.0561
    7CHTO   H60 2856   7.033   0.524   0.719 -0.3349 -1.3636 -1.4332
    7CHTO   C36 2857   7.205   0.638   0.759 -0.1985  0.2176 -0.2010
    7CHTO   O25 2858   7.112   0.747   0.768  0.5944 -0.4170  0.2818
    7CHTO   H40 2859   7.068   0.752   0.850  0.0477 -0.3813 -0.0129
    7CHTO   O15 2860   7.093   0.468   0.326  0.0304  0.4874  0.1079
    7CHTO   C19 2861   7.008   0.575   0.277  0.2491 -0.7735  0.4855
    7CHTO   H47 2862   7.008   0.549   0.170 -0.3760  0.4402  0.1901
    7CHTO   C20 2863   6.866   0.579   0.337 -0.0238  0.2827  0.3354
    7CHTO   H48 2864   6.867   0.583   0.447  0.0549 -0.3944  0.3679
    7CHTO   O19 2865   6.820   0.445   0.298 -0.1890  0.6868 -0.3477
    7CHTO   H35 2866   6.841   0.380   0.362 -1.0581  1.0731  0.3371
    7CHTO   C21 2867   6.792   0.702   0.273  0.4772  0.0285 -0.3842
    7CHTO   H49 2868   6.784   0.684   0.166 -3.7744 -0.6591 -0.0418
    7CHTO    N4 2869   6.651   0.717   0.321  0.1426  0.5748  0.3612
    7CHTO   H41 2870   6.602   0.621   0.318 -0.7544  1.0565 -1.5421
    7CHTO   H42 2871   6.587   0.796   0.283  0.0465  0.8339  1.0638
    7CHTO   C22 2872   6.872   0.834   0.284 -0.2461 -0.4794 -0.0505
    7CHTO   H50 2873   6.883   0.864   0.388 -0.2378 -1.4624  0.2358
    7CHTO   O14 2874   7.000   0.811   0.235  0.2703  0.3168  0.1106
    7CHTO   C23 2875   7.088   0.709   0.285 -0.0449 -0.2238  0.0135
    7CHTO   H51 2876   7.102   0.745   0.388 -1.9035  1.5270 -0.3180
    7CHTO   C34 2877   7.227   0.711   0.216 -0.5387  0.2478 -0.3638
    7CHTO   O23 2878   7.301   0.833   0.237  0.9618  0.1856  0.1986
    7CHTO   H38 2879   7.339   0.851   0.153  0.3529  1.4006  0.1802
    7CHTO   O16 2880   6.826   0.935   0.189 -0.5155 -0.3161  0.2490
    7CHTO   C24 2881   6.778   1.073   0.257 -0.1728 -0.4484 -0.2505
    7CHTO   H52 2882   6.755   1.058   0.362  0.9667 -1.6917 -0.1630
    7CHTO   C26 2883   6.658   1.136   0.186 -0.1903 -0.3038  0.1474
    7CHTO   H54 2884   6.674   1.133   0.076 -1.4171 -0.7161 -0.0293
    7CHTO   O20 2885   6.555   1.045   0.224  0.3134  1.0043 -0.1520
    7CHTO   H36 2886   6.531   1.027   0.313 -1.1569 -0.2144 -0.7599
    7CHTO   C30 2887   6.621   1.280   0.237 -0.4516 -0.1851 -0.3022
    7CHTO   H58 2888   6.591   1.269   0.342  0.0952 -1.8962 -0.2998
    7CHTO    N6 2889   6.505   1.340   0.158 -0.5401 -0.0894 -0.0838
    7CHTO   H45 2890   6.426   1.266   0.161  1.8286 -2.7346 -0.5831
    7CHTO   H46 2891   6.527   1.365   0.055 -2.0800  1.1242 -0.1401
    7CHTO   C33 2892   6.743   1.370   0.236  0.5317  0.0444 -0.3672
    7CHTO   H61 2893   6.768   1.382   0.130 -0.7730 -0.6243 -0.7680
    7CHTO   O18 2894   6.852   1.303   0.302 -0.3714 -0.4747  0.2127
    7CHTO   C28 2895   6.898   1.173   0.251 -0.0310  0.4234 -0.0241
    7CHTO   H56 2896   6.929   1.183   0.147 -1.2325 -0.9594 -0.5243
    7CHTO   C35 2897   7.014   1.126   0.337 -0.2454 -0.4422  0.0502
    7CHTO   O24 2898   7.122   1.217   0.308 -0.6713  0.2846  0.0654
    7CHTO   H39 2899   7.178   1.238   0.380 -1.1110  2.3700 -0.1965
    7CHTO    O9 2900   6.716   1.499   0.286  0.1249  0.1651 -0.2269
    7CHTO   C13 2901   6.819   1.624   0.228  0.1480  1.0353  1.0056
    7CHTO   H26 2902   6.808   1.636   0.118  0.1296  3.8272  1.2673
    7CHTO   C11 2903   6.960   1.585   0.270  0.3067  0.1771 -1.2043
    7CHTO   H24 2904   6.986   1.491   0.220  2.5185 -1.0220  2.0316
    7CHTO    O8 2905   6.954   1.557   0.412  0.3351  0.1384 -0.4841
    7CHTO    H3 2906   7.026   1.498   0.425 -0.1959 -0.6319 -1.0090
    7CHTO    C9 2907   7.054   1.704   0.243 -0.8302  0.2108  0.2369
    7CHTO   H22 2908   7.062   1.718   0.134  0.9803  1.1273  0.4566
    7CHTO    N2 2909   7.194   1.669   0.279 -0.3428 -0.4002 -0.2674
    7CHTO   H10 2910   7.257   1.732   0.218 -0.8318 -0.4054 -0.7820
    7CHTO   H11 2911   7.228   1.569   0.300 -1.8489 -0.6493  1.0814
    7CHTO    C7 2912   7.007   1.834   0.318  1.1970 -0.1737 -0.1134
    7CHTO   H20 2913   7.070   1.919   0.286 -0.5203  1.2070  0.1088
    7CHTO    O4 2914   6.868   1.868   0.284  0.1764 -0.0220  0.5140
    7CHTO   C14 2915   6.766   1.765   0.284 -0.6112 -0.2323 -0.9319
    7CHTO   H27 2916   6.689   1.796   0.211  0.1924  0.6869 -1.4004
    7CHTO   C18 2917   6.704   1.764   0.428  0.2247  0.5900 -0.1572
    7CHTO   O13 2918   6.648   1.890   0.455  0.0929 -0.2537  0.3899
    7CHTO    H7 2919   6.589   1.886   0.528  2.5638  2.4854  2.6806
    7CHTO    O2 2920   7.020   1.832   0.488  0.2643  0.2083 -0.0920
    7CHTO    C1 2921   7.066   1.945   0.558  0.0984 -0.2679  0.4127
    7CHTO   H14 2922   7.005   2.029   0.520 -2.1231 -1.4001  1.3571
    7CHTO    C2 2923   7.222   1.984   0.540 -0.5290 -0.0943 -0.0504
    7CHTO   H15 2924   7.279   1.892   0.557  0.1790  0.5466  1.0875
    7CHTO    O6 2925   7.240   2.027   0.409 -0.1582  0.1134  0.2230
    7CHTO    H1 2926   7.321   1.998   0.373  0.0663  0.7466  0.2299
    7CHTO    C3 2927   7.281   2.097   0.638 -0.5236  0.2307  0.3292
    7CHTO   H16 2928   7.248   2.198   0.611 -2.5223 -0.4181  0.3081
    7CHTO    N1 2929   7.431   2.110   0.636  0.4203 -0.5124  0.1006
    7CHTO    H8 2930   7.466   2.212   0.646 -0.6353 -0.2286  1.0018
    7CHTO    H9 2931   7.485   2.062   0.556  4.3711  1.3045  1.5369
    7CHTO    C4 2932   7.219   2.080   0.779 -0.2972  0.7587 -0.6264
    7CHTO   H17 2933   7.277   2.001   0.827  0.7846  2.8464  1.5336
    7CHTO    O1 2934   7.076   2.049   0.771 -0.2048  0.2306 -0.4489
    7CHTO    C5 2935   7.039   1.930   0.704 -0.7562  0.0285 -0.1116
    7CHTO   H18 2936   7.087   1.839   0.740  0.0235  0.3632 -0.2900
    7CHTO   C16 2937   6.886   1.912   0.738  0.1670 -0.1547 -0.3045
    7CHTO   O11 2938   6.854   1.951   0.873 -0.1686  0.1606 -0.5397
    7CHTO    H5 2939   6.775   1.909   0.900  1.6664 -2.4035  1.1100
    7CHTO    O3 2940   7.228   2.205   0.854 -0.4443  0.5939  0.1611
    7CHTO    C6 2941   7.241   2.212   1.004 -0.9872  0.2176  0.2070
    7CHTO   H19 2942   7.230   2.115   1.053  0.2266 -0.3509 -0.6025
    7CHTO    C8 2943   7.388   2.261   1.040  0.1756  0.1141  0.7484
    7CHTO   H21 2944   7.396   2.364   1.003  0.7626 -0.0587  0.3935
    7CHTO    O7 2945   7.487   2.167   0.979  0.6021 -0.0847 -0.3501
    7CHTO    H2 2946   7.465   2.077   0.993  1.4791  0.1163  2.6831
    7CHTO   C12 2947   7.412   2.274   1.195 -0.3129 -0.4321  0.5286
    7CHTO   H25 2948   7.412   2.173   1.241 -0.7790  0.6360  2.9553
    7CHTO    N3 2949   7.542   2.342   1.228  0.0703  0.7191  0.2738
    7CHTO   H12 2950   7.548   2.436   1.175 -2.0905 -0.2154 -1.6745
    7CHTO   H13 2951   7.624   2.280   1.194 -0.2979  1.5067 -2.0971
    7CHTO   C15 2952   7.288   2.353   1.251  0.0733 -0.1072 -0.4264
    7CHTO   H28 2953   7.301   2.456   1.215 -0.6469 -0.3514 -1.4052
    7CHTO   O10 2954   7.281   2.330   1.418 -0.0206 -0.4653  0.4245
    7CHTO    H4 2955   7.226   2.397   1.453  1.9766  1.0566  0.6835
    7CHTO    O5 2956   7.159   2.304   1.205  0.0307  0.2039 -0.2305
    7CHTO   C10 2957   7.134   2.303   1.064  0.9478  0.6303 -0.2045
    7CHTO   H23 2958   7.144   2.405   1.027  2.0162 -0.2905 -2.5539
    7CHTO   C17 2959   6.987   2.252   1.044 -0.5298  0.2561 -0.3657
    7CHTO   O12 2960   6.952   2.254   0.906 -0.0342 -0.1516  0.4332
    7CHTO    H6 2961   6.989   2.177   0.866 -0.7518  0.2596 -1.0521
    8CHTO  H203 2962   6.898   8.313   2.614  0.5810 -0.1999  0.1152
    8CHTO   O82 2963   6.921   8.265   2.536  0.0457  0.1755 -0.2816
    8CHTO  C123 2964   6.811   8.275   2.444  0.1012  0.3693  0.4477
    8CHTO  H227 2965   6.787   8.379   2.417  0.8017  0.1973 -0.8707
    8CHTO   O77 2966   6.859   8.205   2.318 -0.8387 -0.4878 -0.3467
    8CHTO  C118 2967   6.766   8.216   2.205 -0.2160  0.3577 -0.0356
    8CHTO  H222 2968   6.743   8.320   2.176 -2.5671  0.2249  1.1791
    8CHTO  C125 2969   6.817   8.138   2.076 -0.5257 -0.6985 -0.3111
    8CHTO   O84 2970   6.897   8.025   2.103 -1.0168 -0.2387  0.0603
    8CHTO  H205 2971   6.852   7.945   2.083 -0.7613 -0.2829 -0.3212
    8CHTO  C114 2972   6.630   8.147   2.247  0.4184 -0.0229 -0.1850
    8CHTO  H218 2973   6.651   8.043   2.271  1.0375 -0.2379 -1.5591
    8CHTO  C116 2974   6.574   8.197   2.387  0.6704 -1.1531  0.4265
    8CHTO  H220 2975   6.523   8.296   2.380  1.6992 -0.7260 -1.4728
    8CHTO   O79 2976   6.457   8.117   2.418 -0.4640  0.4418 -0.2135
    8CHTO  H201 2977   6.417   8.146   2.497  0.8189  1.2006  0.1705
    8CHTO  C120 2978   6.680   8.201   2.497  0.0336 -1.0651  0.1174
    8CHTO  H224 2979   6.704   8.093   2.510  0.0316 -1.3532 -2.1610
    8CHTO   N21 2980   6.625   8.261   2.623  0.1601 -0.1126 -0.3799
    8CHTO  H211 2981   6.566   8.345   2.589 -0.8335 -0.0746  1.3720
    8CHTO  H212 2982   6.560   8.194   2.678  0.1787  0.2629  0.1034
    8CHTO   O75 2983   6.532   8.155   2.141  0.1090 -0.6925 -0.0821
    8CHTO  C112 2984   6.448   8.299   2.130 -0.3935 -0.1646  1.0835
    8CHTO  H216 2985   6.506   8.384   2.167 -1.7616  0.7244  1.2051
    8CHTO   O73 2986   6.333   8.276   2.207 -0.5214 -0.0723 -0.0629
    8CHTO  C113 2987   6.239   8.388   2.200 -0.2918 -0.0623  0.2858
    8CHTO  H217 2988   6.278   8.483   2.242  0.6071 -0.8432  1.2622
    8CHTO  C124 2989   6.115   8.357   2.286 -0.0489 -0.2542 -0.4625
    8CHTO   O83 2990   6.053   8.231   2.283 -0.4508  0.1359  0.3102
    8CHTO  H204 2991   5.962   8.248   2.300 -0.6913 -0.5810 -0.2151
    8CHTO  C109 2992   6.191   8.408   2.054 -0.6909  0.0190 -0.1393
    8CHTO  H213 2993   6.142   8.313   2.027 -0.4209 -1.0049  2.8379
    8CHTO  C110 2994   6.317   8.441   1.969  0.3835 -0.0832  0.1357
    8CHTO  H214 2995   6.364   8.536   1.996 -0.7919  0.1811  1.3097
    8CHTO   O78 2996   6.277   8.463   1.834 -0.2620  0.6535  0.1408
    8CHTO  H200 2997   6.221   8.537   1.846 -0.2848  0.4434  1.4150
    8CHTO  C111 2998   6.423   8.323   1.982  0.1129 -0.7424  0.3665
    8CHTO  H215 2999   6.384   8.228   1.941  1.4091 -0.9978 -0.3002
    8CHTO   N19 3000   6.542   8.349   1.900 -0.4521  0.2623 -0.3578
    8CHTO  H207 3001   6.582   8.449   1.908  0.1508  0.0285 -0.4350
    8CHTO  H208 3002   6.549   8.295   1.806 -1.1910  1.5016 -1.1474
    8CHTO   O74 3003   6.097   8.519   2.047  0.2394 -0.1405 -0.2122
    8CHTO  C115 3004   5.939   8.492   2.003 -0.0681  0.2930  0.7859
    8CHTO  H219 3005   5.907   8.391   2.029  0.9417 -0.0246  0.8173
    8CHTO   O76 3006   5.846   8.587   2.067  0.0701  0.0478 -0.7410
    8CHTO  C122 3007   5.853   8.719   2.014  0.0756 -0.0914 -0.8247
    8CHTO  H226 3008   5.956   8.753   2.018  0.4301 -1.1611 -0.7849
    8CHTO  C126 3009   5.769   8.812   2.113 -0.3364  0.8164  0.0050
    8CHTO   O85 3010   5.821   8.837   2.239 -0.4231  0.3045 -0.1883
    8CHTO  H206 3011   5.838   8.754   2.278 -2.8937 -0.3192 -0.3492
    8CHTO  C121 3012   5.815   8.723   1.869  0.1998 -0.1691 -0.5585
    8CHTO  H225 3013   5.721   8.666   1.856 -0.4559  1.0492 -1.1753
    8CHTO   O81 3014   5.776   8.853   1.824 -0.3311  0.0312  0.8075
    8CHTO  H202 3015   5.830   8.889   1.756 -0.6133  0.9017  1.0398
    8CHTO  C119 3016   5.922   8.646   1.785  0.4854 -0.1213 -0.7696
    8CHTO  H223 3017   5.888   8.633   1.682 -2.0876 -0.6099  0.1017
    8CHTO  C117 3018   5.931   8.492   1.841  0.0760 -0.5602 -0.0927
    8CHTO  H221 3019   6.021   8.437   1.813  0.0668  1.6921 -5.1073
    8CHTO   N20 3020   5.820   8.403   1.795 -0.2502  0.0458 -0.4339
    8CHTO  H209 3021   5.843   8.367   1.695  1.2875  0.5046 -0.2679
    8CHTO  H210 3022   5.775   8.342   1.871  2.4252 -0.6901  0.6380
    8CHTO   O80 3023   6.079   8.720   1.764 -0.3397 -0.1618 -0.2987
    8CHTO  C103 3024   6.091   8.864   1.705  0.4034  0.2219 -0.1690
    8CHTO  H190 3025   6.005   8.890   1.644  2.0976 -0.2476 -2.8565
    8CHTO  C101 3026   6.138   8.976   1.806  0.2646  0.4104 -1.0410
    8CHTO  H188 3027   6.229   8.942   1.855 -0.8490  1.3161  1.8002
    8CHTO   O68 3028   6.027   8.997   1.922  0.2737  0.5088 -0.1266
    8CHTO  H168 3029   6.017   8.916   1.968 -0.4680  0.4159 -0.4415
    8CHTO   C99 3030   6.167   9.106   1.730 -0.0533  0.1100  0.0554
    8CHTO  H186 3031   6.068   9.136   1.690  0.5444  0.9464 -0.7990
    8CHTO   N17 3032   6.221   9.217   1.820  0.0894 -0.2661  0.0843
    8CHTO  H174 3033   6.254   9.158   1.904 -1.1999 -0.8004  0.2323
    8CHTO  H175 3034   6.140   9.278   1.857 -2.4999 -2.9503 -0.9069
    8CHTO   C97 3035   6.255   9.089   1.604 -0.2396  0.0329  0.0161
    8CHTO  H184 3036   6.360   9.086   1.639 -0.2298  0.4200  0.0289
    8CHTO   O64 3037   6.218   8.972   1.528 -0.1941  0.1648 -0.7810
    8CHTO  C104 3038   6.211   8.846   1.595  0.3908  0.4362  0.2021
    8CHTO  H191 3039   6.302   8.810   1.644  0.8727  0.8118 -0.4227
    8CHTO  C108 3040   6.167   8.732   1.501 -0.0973 -0.0655 -0.3235
    8CHTO   O71 3041   6.285   8.685   1.437 -0.2502 -0.2548  0.4512
    8CHTO  H171 3042   6.271   8.619   1.373  0.5421 -0.6415  0.6814
    8CHTO   O62 3043   6.231   9.210   1.521 -0.1832  0.1352 -0.3602
    8CHTO   C91 3044   6.337   9.236   1.429 -0.6501  0.9034 -0.4189
    8CHTO  H178 3045   6.400   9.147   1.419 -0.9198  0.6086  0.4185
    8CHTO   C92 3046   6.434   9.338   1.490  0.2515  0.0211 -0.1272
    8CHTO  H179 3047   6.446   9.322   1.598 -2.9959 -1.1600  0.1184
    8CHTO   O66 3048   6.561   9.307   1.425  0.4777 -0.2496  0.0832
    8CHTO  H166 3049   6.622   9.371   1.455 -0.7192  0.7431  0.4580
    8CHTO   C93 3050   6.393   9.486   1.454 -1.0370  1.1784  0.0018
    8CHTO  H180 3051   6.473   9.554   1.487  0.0940  0.7471 -1.7312
    8CHTO   N16 3052   6.279   9.527   1.538  0.3640  0.3614  0.5198
    8CHTO  H172 3053   6.216   9.443   1.564  0.7451  0.5447  2.1112
    8CHTO  H173 3054   6.307   9.580   1.628 -0.2598  2.5353 -0.5441
    8CHTO   C94 3055   6.361   9.499   1.300 -0.4573 -0.2403 -0.2272
    8CHTO  H181 3056   6.263   9.547   1.291 -1.6849 -2.7664 -0.5808
    8CHTO   O61 3057   6.367   9.379   1.226 -0.4320  0.7109 -0.2666
    8CHTO   C95 3058   6.280   9.279   1.288  0.1040  0.5894  0.2719
    8CHTO  H182 3059   6.183   9.324   1.314  0.2543  0.9337  0.2458
    8CHTO  C106 3060   6.254   9.151   1.191  0.2299 -0.5024  0.0930
    8CHTO   O69 3061   6.174   9.046   1.252  0.0847 -0.6737  0.2452
    8CHTO  H169 3062   6.136   8.995   1.183 -1.0160  1.3391 -0.6824
    8CHTO   O63 3063   6.465   9.584   1.233 -0.1745  0.0407  0.4200
    8CHTO   C96 3064   6.407   9.673   1.103 -0.9125  0.3955 -0.4114
    8CHTO  H183 3065   6.311   9.630   1.074 -0.9144  0.2357 -0.1776
    8CHTO   C98 3066   6.501   9.658   0.980 -0.0589 -0.4909 -0.6071
    8CHTO  H185 3067   6.601   9.693   1.009 -1.0082  2.0441 -0.2178
    8CHTO   O67 3068   6.520   9.516   0.945  0.5558 -0.3912  0.2914
    8CHTO  H167 3069   6.438   9.474   0.927 -1.0439  1.8554  1.9792
    8CHTO  C102 3070   6.446   9.742   0.845  0.5519 -0.2147 -0.0330
    8CHTO  H189 3071   6.359   9.685   0.810 -0.9325  0.0890  2.9498
    8CHTO   N18 3072   6.549   9.751   0.734  0.0192  0.6612  0.2989
    8CHTO  H176 3073   6.492   9.788   0.651 -1.5139 -1.1142  0.5117
    8CHTO  H177 3074   6.606   9.837   0.765  1.3018 -0.2073  0.3976
    8CHTO  C105 3075   6.367   9.872   0.886  0.3986 -0.0943 -0.7174
    8CHTO  H192 3076   6.382   9.951   0.812 -0.9899 -0.7500 -1.7194
    8CHTO   O65 3077   6.399   9.922   1.016  0.3775  0.6767  0.3996
    8CHTO  C100 3078   6.404   9.830   1.131 -0.2687 -0.4479 -0.5155
    8CHTO  H187 3079   6.495   9.858   1.186 -0.9403  0.3912  0.1903
    8CHTO  C107 3080   6.289   9.867   1.231  0.1532 -0.0170 -0.2140
    8CHTO   O70 3081   6.298  10.002   1.278  0.0227 -0.3773  0.0419
    8CHTO  H170 3082   6.382  10.043   1.274 -0.8462  1.4456  0.0141
    8CHTO   O57 3083   6.212   9.835   0.899 -0.3318 -0.1673  0.5012
    8CHTO   C85 3084   6.122   9.944   0.865 -0.6503  0.2022 -0.7074
    8CHTO  H157 3085   6.178  10.001   0.788 -2.0884  2.2463 -0.2932
    8CHTO   C83 3086   6.093  10.046   0.978 -0.2695  0.3288  0.2509
    8CHTO  H155 3087   6.185  10.083   1.022  0.8538  0.0891 -1.8152
    8CHTO   O56 3088   6.023   9.979   1.087  0.6245  0.3969  0.6298
    8CHTO  H135 3089   5.932  10.002   1.088 -0.4416 -3.4455 -1.7269
    8CHTO   C81 3090   6.015  10.172   0.917 -0.5468 -0.2432  0.1645
    8CHTO  H153 3091   6.068  10.214   0.832 -1.6222 -2.8868 -1.8817
    8CHTO   N14 3092   5.998  10.293   1.004 -0.6621  0.0496 -0.3768
    8CHTO  H141 3093   6.087  10.329   1.050 -0.6417 -0.6358  0.1312
    8CHTO  H142 3094   5.919  10.291   1.076 -1.7950  0.9828 -1.5680
    8CHTO   C79 3095   5.878  10.111   0.857 -0.3891  0.2224  0.2522
    8CHTO  H151 3096   5.828  10.194   0.808  0.0183  1.1446  1.3715
    8CHTO   O52 3097   5.906  10.008   0.752 -0.3819  0.6576  0.3640
    8CHTO   C86 3098   5.987   9.897   0.801  0.1616  0.3145 -0.3878
    8CHTO  H158 3099   5.920   9.836   0.865 -0.5387  0.3786 -1.0566
    8CHTO   C90 3100   6.022   9.806   0.687 -0.4539  0.3970 -0.1101
    8CHTO   O60 3101   6.068   9.883   0.574  0.4807  0.1875 -0.7509
    8CHTO  H138 3102   6.078   9.846   0.488  0.0833 -0.5286 -0.4939
    8CHTO   O50 3103   5.778  10.064   0.947  0.4274  0.5443 -0.4064
    8CHTO   C73 3104   5.634  10.045   0.936 -0.0225 -0.3146 -0.1977
    8CHTO  H145 3105   5.603  10.045   0.831  0.8708  0.7912 -0.4656
    8CHTO   C74 3106   5.558  10.157   1.003  0.4513 -0.1084  0.1268
    8CHTO  H146 3107   5.591  10.243   0.942 -0.6781  0.0577 -0.2499
    8CHTO   O54 3108   5.418  10.150   0.994 -0.3860 -0.0822 -0.3778
    8CHTO  H133 3109   5.378  10.086   1.049 -2.1602  2.5270  1.4502
    8CHTO   C75 3110   5.612  10.168   1.155  0.9230  0.4674  0.2137
    8CHTO  H147 3111   5.718  10.197   1.150  0.2261  2.9056 -0.9188
    8CHTO   N13 3112   5.564  10.284   1.235 -0.1265 -0.3113  0.0969
    8CHTO  H139 3113   5.604  10.377   1.198  0.7894 -0.7647 -0.0722
    8CHTO  H140 3114   5.458  10.301   1.223 -0.4465 -0.4863  2.4306
    8CHTO   C76 3115   5.598  10.032   1.217  0.2121  0.0265 -0.3925
    8CHTO  H148 3116   5.495  10.020   1.249  0.2457 -1.2921 -0.7505
    8CHTO   O49 3117   5.650   9.919   1.138  0.1010 -0.0122  0.2958
    8CHTO   C77 3118   5.593   9.907   1.004 -0.1082  0.3084  0.2555
    8CHTO  H149 3119   5.487   9.886   0.992  0.4514 -3.3031  0.9862
    8CHTO   C88 3120   5.648   9.786   0.933  0.5371  0.1370  0.0015
    8CHTO   O58 3121   5.589   9.654   1.032 -0.3782 -0.1760 -0.1862
    8CHTO  H136 3122   5.500   9.676   1.052 -0.9151 -1.5944 -0.9160
    8CHTO   O51 3123   5.703  10.025   1.349  0.3513 -0.2419 -0.1505
    8CHTO   C78 3124   5.689   9.931   1.458 -0.3982 -0.1749 -0.6801
    8CHTO  H150 3125   5.622   9.847   1.433  1.3240 -1.4050 -1.2482
    8CHTO   C80 3126   5.625  10.014   1.578 -0.3438 -0.3512  0.3966
    8CHTO  H152 3127   5.665  10.117   1.575  2.5745 -1.4592 -0.9733
    8CHTO   O55 3128   5.480  10.017   1.551  0.4075  0.2263  0.3753
    8CHTO  H134 3129   5.437   9.941   1.584 -0.2398 -0.6297 -2.2778
    8CHTO   C84 3130   5.648   9.950   1.722 -0.1043 -0.4922 -0.2545
    8CHTO  H156 3131   5.592   9.857   1.716 -0.1416 -0.6067  1.5176
    8CHTO   N15 3132   5.594  10.030   1.841  0.0714  0.0575  0.0662
    8CHTO  H143 3133   5.663  10.050   1.920 -0.3818 -3.7786  1.5367
    8CHTO  H144 3134   5.560  10.123   1.801 -0.7141 -0.5851 -0.7987
    8CHTO   C87 3135   5.797   9.921   1.738 -0.2970 -0.4579 -0.1548
    8CHTO  H159 3136   5.848  10.016   1.719  1.4444 -1.3486  0.0303
    8CHTO   O53 3137   5.836   9.823   1.630  0.4960 -0.5481 -0.1957
    8CHTO   C82 3138   5.831   9.889   1.495  0.7820 -0.2128 -0.2052
    8CHTO  H154 3139   5.888   9.982   1.491  1.3562 -0.5891 -0.7725
    8CHTO   C89 3140   5.886   9.795   1.385 -0.1831 -0.6394 -0.4441
    8CHTO   O59 3141   6.016   9.746   1.413 -0.1625 -0.2307 -0.3053
    8CHTO  H137 3142   6.033   9.739   1.505 -2.3127  0.0796  0.1386
    8CHTO   O45 3143   5.837   9.855   1.888  0.2579 -0.6558 -0.6134
    8CHTO   C67 3144   5.840   9.713   1.897 -0.7270  0.2733 -0.0068
    8CHTO  H124 3145   5.779   9.659   1.825  1.9495  0.2426 -2.3665
    8CHTO   C65 3146   5.989   9.658   1.889 -0.0819 -0.5057  0.8098
    8CHTO  H122 3147   6.047   9.742   1.850  0.1922 -1.8809 -1.9129
    8CHTO   O44 3148   5.995   9.548   1.795 -0.0313  0.1687  0.0503
    8CHTO  H102 3149   6.085   9.538   1.770  0.1367 -0.3111  0.8378
    8CHTO   C63 3150   6.042   9.617   2.032 -0.7786  0.1902 -0.2480
    8CHTO  H120 3151   6.039   9.707   2.093  0.6046  0.4127 -0.4937
    8CHTO   N11 3152   6.188   9.582   2.045  0.3761  0.1456  0.0485
    8CHTO  H108 3153   6.210   9.567   2.149 -0.3059  1.5385  0.4150
    8CHTO  H109 3154   6.248   9.650   1.988  1.3575  0.8216  1.8270
    8CHTO   C61 3155   5.941   9.512   2.095 -0.6016 -0.3867  0.3083
    8CHTO  H118 3156   5.972   9.516   2.200 -0.8356  1.6358  0.3214
    8CHTO   O40 3157   5.808   9.549   2.089  0.0183  0.1595  0.1055
    8CHTO   C68 3158   5.771   9.680   2.033 -0.0911 -0.0003  0.3164
    8CHTO  H125 3159   5.799   9.754   2.111 -1.4864  0.2903  0.5541
    8CHTO   C72 3160   5.617   9.678   2.012 -0.6921 -0.0248 -0.0501
    8CHTO   O48 3161   5.567   9.666   2.148  0.1826 -0.1990  0.1462
    8CHTO  H105 3162   5.599   9.585   2.182 -1.5295 -0.8745  0.1953
    8CHTO   O38 3163   5.966   9.378   2.040  0.3585 -0.3892  0.0616
    8CHTO   C55 3164   5.876   9.271   2.066 -0.2692 -0.5991 -0.3848
    8CHTO  H112 3165   5.950   9.190   2.066 -0.8807 -1.1681 -1.0176
    8CHTO   C56 3166   5.771   9.254   1.939  0.2103 -0.4294  0.3482
    8CHTO  H113 3167   5.746   9.357   1.912  1.0043 -0.1732  0.5713
    8CHTO   O42 3168   5.839   9.197   1.824  0.0775  0.3936  0.0617
    8CHTO  H100 3169   5.929   9.225   1.824  0.7516 -1.6591  2.4682
    8CHTO   C57 3170   5.634   9.172   1.959 -0.3288 -0.4324 -0.1753
    8CHTO  H114 3171   5.653   9.065   1.951  0.4301 -0.2147 -1.5028
    8CHTO   N10 3172   5.537   9.198   1.849  0.3719  0.1057 -0.3747
    8CHTO  H106 3173   5.453   9.131   1.848 -0.0432  0.6233 -0.6642
    8CHTO  H107 3174   5.509   9.303   1.850  0.2068  0.0873 -2.2899
    8CHTO   C58 3175   5.589   9.204   2.101 -0.1626  0.2403 -0.1810
    8CHTO  H115 3176   5.562   9.311   2.112 -0.3946  0.2485 -0.7901
    8CHTO   O37 3177   5.693   9.162   2.196  0.2113 -0.1654 -0.0981
    8CHTO   C59 3178   5.796   9.265   2.200  0.3004  0.0599  0.3317
    8CHTO  H116 3179   5.747   9.361   2.217  1.2630  0.6616 -0.2588
    8CHTO   C70 3180   5.885   9.250   2.319 -0.4260 -0.6557  0.5746
    8CHTO   O46 3181   5.980   9.146   2.298  0.5825  0.6614  0.1443
    8CHTO  H103 3182   6.004   9.105   2.379  0.6845  0.7645  0.1668
    8CHTO   O39 3183   5.456   9.128   2.138 -0.0011  0.0651  0.5625
    8CHTO   C60 3184   5.338   9.204   2.167 -0.0773 -0.0635 -0.5602
    8CHTO  H117 3185   5.344   9.307   2.131 -2.1251  1.2365  2.6084
    8CHTO   C62 3186   5.204   9.136   2.106 -0.1136 -0.0712  0.1961
    8CHTO  H119 3187   5.226   9.135   1.997 -1.1896  1.5522 -0.0575
    8CHTO   O43 3188   5.183   9.008   2.152 -0.3112 -0.0322 -0.5375
    8CHTO  H101 3189   5.121   8.961   2.100 -2.0477  2.4507 -0.8073
    8CHTO   C66 3190   5.089   9.241   2.135 -0.8208 -0.2994 -0.1389
    8CHTO  H123 3191   5.122   9.339   2.102 -0.0195 -1.1406 -1.8374
    8CHTO   N12 3192   4.967   9.210   2.055  0.3547 -0.8398  0.0436
    8CHTO  H110 3193   4.904   9.298   2.056  0.8687 -0.4545  2.8790
    8CHTO  H111 3194   4.921   9.134   2.116 -2.9898  0.9796 -0.0735
    8CHTO   C69 3195   5.068   9.246   2.288 -0.3272 -0.0368  0.0512
    8CHTO  H126 3196   5.028   9.147   2.319  2.3322 -1.4431 -0.8985
    8CHTO   O41 3197   5.205   9.292   2.361 -0.6661  0.2329  0.2532
    8CHTO   C64 3198   5.332   9.211   2.320  0.3107 -0.1487 -0.2433
    8CHTO  H121 3199   5.335   9.107   2.360 -1.3471  0.3505  1.2420
    8CHTO   C71 3200   5.449   9.290   2.380 -0.1380  0.3306 -0.3629
    8CHTO   O47 3201   5.466   9.423   2.327 -0.1019 -0.6570  0.0568
    8CHTO  H104 3202   5.397   9.484   2.343  0.2371 -0.4792  0.8647
    8CHTO   O34 3203   4.947   9.349   2.326 -0.0105  0.5893  0.6552
    8CHTO   C49 3204   4.928   9.472   2.376  0.7002 -0.6653 -0.1132
    8CHTO   H91 3205   4.924   9.462   2.484 -1.1405 -0.7181 -0.1784
    8CHTO   C47 3206   4.792   9.521   2.326 -0.4894  0.6873 -0.1591
    8CHTO   H89 3207   4.776   9.626   2.358  1.4128  1.6207 -2.1222
    8CHTO   O33 3208   4.692   9.429   2.387 -0.3321 -0.4094  0.1856
    8CHTO   H70 3209   4.681   9.360   2.324 -2.3317 -1.8600  2.0770
    8CHTO   C45 3210   4.796   9.517   2.165  0.1670  1.0275  0.0197
    8CHTO   H87 3211   4.842   9.423   2.131 -1.4808  0.7160 -1.4348
    8CHTO    N8 3212   4.666   9.529   2.101  0.4764 -0.2074 -0.2511
    8CHTO   H75 3213   4.586   9.475   2.150  1.6651 -2.6605 -0.8973
    8CHTO   H76 3214   4.636   9.632   2.092 -1.4570 -0.5565  1.6667
    8CHTO   C43 3215   4.910   9.629   2.116  0.3921  0.5129  0.8820
    8CHTO   H85 3216   4.919   9.622   2.008  0.2187 -4.0966  1.0859
    8CHTO   O29 3217   5.038   9.600   2.186 -0.2404 -0.1412 -0.1645
    8CHTO   C50 3218   5.034   9.578   2.325  0.0957  0.2073 -0.3349
    8CHTO   H92 3219   5.134   9.547   2.360  0.3196  1.9919  0.6713
    8CHTO   C54 3220   5.025   9.713   2.406 -0.4228  0.2145  0.1045
    8CHTO   O36 3221   5.125   9.801   2.347 -0.7356  0.3583  0.2643
    8CHTO   H72 3222   5.207   9.760   2.328  0.0415  1.9916 -0.0140
    8CHTO   O27 3223   4.862   9.760   2.137 -0.3119  0.2731  0.5636
    8CHTO   C37 3224   4.837   9.866   2.046 -0.7071  0.2679  0.8012
    8CHTO   H79 3225   4.806   9.832   1.946  0.5565 -2.3024  1.2392
    8CHTO   C38 3226   4.711   9.939   2.102 -0.4560  0.4499  0.5412
    8CHTO   H80 3227   4.736   9.982   2.200  1.1837  1.8202 -0.4574
    8CHTO   O31 3228   4.601   9.851   2.108  1.0013 -0.6456  0.2077
    8CHTO   H68 3229   4.597   9.800   2.187  1.6702 -0.8115  0.1360
    8CHTO   C39 3230   4.673  10.054   1.999  0.5757 -0.4026  0.5501
    8CHTO   H81 3231   4.648   9.997   1.910  1.1227 -0.0844  0.1921
    8CHTO    N7 3232   4.553  10.141   2.031 -0.6476  0.1498  0.0789
    8CHTO   H73 3233   4.558  10.167   2.136  0.8033  1.4157 -0.2782
    8CHTO   H74 3234   4.470  10.073   2.043  1.9284 -2.9491  1.0198
    8CHTO   C40 3235   4.799  10.136   1.956 -0.2979 -0.9442  0.0953
    8CHTO   H82 3236   4.826  10.204   2.037  1.2481 -0.7115 -0.5909
    8CHTO   O26 3237   4.913  10.053   1.925 -0.2760 -0.2097 -0.2770
    8CHTO   C41 3238   4.959   9.962   2.026 -0.0734  0.0411  0.2370
    8CHTO   H83 3239   4.991  10.009   2.121  0.7080  0.0884 -0.0473
    8CHTO   C52 3240   5.071   9.884   1.953 -0.2338  0.0067  0.6195
    8CHTO   O35 3241   5.174   9.816   2.060 -0.1971 -0.2537  0.5544
    8CHTO   H71 3242   5.259   9.856   2.059 -1.0471  1.6028  0.0307
    8CHTO   O28 3243   4.789  10.246   1.854 -0.2989 -0.0371 -0.0580
    8CHTO   C42 3244   4.786  10.238   1.707  0.1201  0.3522  0.0088
    8CHTO   H84 3245   4.761  10.342   1.688 -1.3921  0.1468  0.7650
    8CHTO   C44 3246   4.666  10.158   1.645 -0.7612 -0.4487 -0.1012
    8CHTO   H86 3247   4.660  10.061   1.695 -3.2165  0.5360  1.6373
    8CHTO   O32 3248   4.547  10.220   1.686  0.4688 -0.2353  0.0563
    8CHTO   H69 3249   4.536  10.215   1.779 -1.2433 -2.4624 -0.2401
    8CHTO   C48 3250   4.676  10.153   1.491  0.3043  0.3015  0.1012
    8CHTO   H90 3251   4.649  10.252   1.454  1.3530  0.7940  0.6088
    8CHTO    N9 3252   4.575  10.051   1.445  0.1253  0.2609 -0.1062
    8CHTO   H77 3253   4.511  10.014   1.524  1.3522 -0.6810  0.4543
    8CHTO   H78 3254   4.517  10.092   1.363  2.5161 -0.3754 -2.1639
    8CHTO   C51 3255   4.822  10.120   1.442  0.0637 -0.1952  0.3001
    8CHTO   H93 3256   4.841  10.015   1.461 -0.7846 -0.2441  0.8959
    8CHTO   O30 3257   4.921  10.205   1.507 -0.4336  0.1198  0.1562
    8CHTO   C46 3258   4.923  10.204   1.652 -0.7360  0.3179 -0.2411
    8CHTO   H88 3259   4.934  10.103   1.690 -1.7933  0.6561  0.9968
    8CHTO   C53 3260   5.027  10.302   1.707 -0.4161 -0.3380  0.3135
    8CHTO   O72 3261   5.157  10.236   1.719  1.0604 -0.2406  0.1057
    8CHTO  H199 3262   5.144  10.172   1.787 -2.5364 -0.0133 -0.3239
    8CHTO   O22 3263   4.830  10.149   1.304  0.5448  0.3233  0.2658
    8CHTO   C31 3264   4.921  10.075   1.211 -0.4165  0.0180 -0.0040
    8CHTO   H59 3265   4.947  10.151   1.135 -1.0029 -0.0257 -0.2475
    8CHTO   C29 3266   5.053  10.033   1.279 -0.6239 -0.2113 -0.0269
    8CHTO   H57 3267   5.032   9.989   1.377 -2.9846  0.9428  0.0307
    8CHTO   O21 3268   5.121  10.161   1.308  0.2974 -0.1839  0.0441
    8CHTO   H37 3269   5.133  10.223   1.239 -0.0139  0.9570  0.9968
    8CHTO   C27 3270   5.152   9.940   1.195  1.0980 -1.3785 -0.6340
    8CHTO   H55 3271   5.198   9.997   1.113 -0.4979 -0.2009 -0.7197
    8CHTO    N5 3272   5.253   9.872   1.273  0.2970  0.2520 -0.1062
    8CHTO   H43 3273   5.196   9.800   1.331 -0.7147 -0.3081 -1.7277
    8CHTO   H44 3274   5.350   9.860   1.228  0.3881  1.1583 -0.1481
    8CHTO   C25 3275   5.064   9.842   1.116 -0.5052 -0.2004 -0.1931
    8CHTO   H53 3276   5.019   9.784   1.198  0.7613  1.7052  1.9121
    8CHTO   O17 3277   4.950   9.898   1.042  0.1734 -0.2305 -0.2175
    8CHTO   C32 3278   4.854   9.957   1.129 -0.9693  0.1617 -0.2246
    8CHTO   H60 3279   4.813   9.884   1.199  2.5073  0.1154  1.8817
    8CHTO   C36 3280   4.739  10.014   1.039 -0.0322  1.3363 -0.2263
    8CHTO   O25 3281   4.658   9.923   0.966  0.1841  0.2652  0.1664
    8CHTO   H40 3282   4.607   9.971   0.903 -1.7376 -0.2327  1.2948
    8CHTO   O15 3283   5.136   9.755   1.022  0.5221 -0.0240 -0.2832
    8CHTO   C19 3284   5.162   9.732   0.880  0.5375 -0.7715  0.4501
    8CHTO   H47 3285   5.062   9.706   0.841 -0.4762  0.7225  1.9644
    8CHTO   C20 3286   5.225   9.860   0.811  0.6143 -0.5633 -0.0504
    8CHTO   H48 3287   5.304   9.904   0.874 -0.6508  0.1026  1.1123
    8CHTO   O19 3288   5.124   9.956   0.820 -0.1428 -0.3386  0.5718
    8CHTO   H35 3289   5.035   9.926   0.828  0.4344 -2.3855 -0.4978
    8CHTO   C21 3290   5.270   9.836   0.666 -0.1175  0.4267 -0.0991
    8CHTO   H49 3291   5.179   9.839   0.605 -0.8413 -2.4486  0.7184
    8CHTO    N4 3292   5.352   9.948   0.623 -0.3327  0.0020 -0.0591
    8CHTO   H41 3293   5.305  10.037   0.663  1.1363  0.3739  0.8621
    8CHTO   H42 3294   5.368   9.961   0.517 -1.2953 -1.0185 -0.3381
    8CHTO   C22 3295   5.335   9.697   0.641  0.7247 -0.1843 -0.3969
    8CHTO   H50 3296   5.430   9.704   0.692  0.7688 -0.7360 -0.4022
    8CHTO   O14 3297   5.257   9.592   0.707  0.1504  0.4695  0.5653
    8CHTO   C23 3298   5.253   9.610   0.851  0.2679  0.1456 -0.2008
    8CHTO   H51 3299   5.355   9.624   0.890  0.0184  1.8888 -0.1652
    8CHTO   C34 3300   5.203   9.477   0.912  0.3047  0.2018 -0.4099
    8CHTO   O23 3301   5.056   9.462   0.896  0.1951  0.1059  0.3442
    8CHTO   H38 3302   5.040   9.427   0.811 -0.1052 -1.7975  1.1812
    8CHTO   O16 3303   5.343   9.660   0.503  0.0948  0.3103  0.5240
    8CHTO   C24 3304   5.469   9.580   0.459 -0.2485 -0.2430  0.2566
    8CHTO   H52 3305   5.502   9.512   0.538 -0.5752 -0.7520 -0.0380
    8CHTO   C26 3306   5.587   9.675   0.423  0.0867 -0.1744 -0.3249
    8CHTO   H54 3307   5.557   9.739   0.338  2.3552  0.2891 -0.8032
    8CHTO   O20 3308   5.618   9.765   0.531  0.2884 -0.7114 -0.6833
    8CHTO   H36 3309   5.575   9.848   0.526 -3.7565 -2.6076  0.7276
    8CHTO   C30 3310   5.712   9.597   0.373 -0.5408 -0.5737  0.0969
    8CHTO   H58 3311   5.755   9.535   0.452 -0.2721 -0.4071  0.0783
    8CHTO    N6 3312   5.824   9.687   0.324 -0.6610 -0.2213 -0.7142
    8CHTO   H45 3313   5.914   9.630   0.312 -0.6343 -0.7971  1.9565
    8CHTO   H46 3314   5.844   9.772   0.388  0.5218 -1.1742  0.2042
    8CHTO   C33 3315   5.674   9.499   0.256 -1.0186 -0.6831  0.8904
    8CHTO   H61 3316   5.651   9.553   0.163 -0.0048  1.9022  2.1077
    8CHTO   O18 3317   5.557   9.418   0.280 -0.1421  0.1622 -0.6042
    8CHTO   C28 3318   5.441   9.488   0.332 -0.3427 -0.1798 -0.5503
    8CHTO   H56 3319   5.398   9.547   0.251 -0.3430  0.1316 -0.3259
    8CHTO   C35 3320   5.337   9.373   0.360  0.3531  0.8912  0.7738
    8CHTO   O24 3321   5.378   9.263   0.436 -0.0517  0.6065  0.2270
    8CHTO   H39 3322   5.370   9.297   0.523  0.7550  0.7889  0.2342
    8CHTO    O9 3323   5.793   9.420   0.217  0.6160  0.5589 -0.3205
    8CHTO   C13 3324   5.772   9.274   0.159 -0.1958  0.6624  0.1363
    8CHTO   H26 3325   5.679   9.276   0.099 -0.3034  1.0069  0.3106
    8CHTO   C11 3326   5.758   9.186   0.297 -0.2111 -0.8729  0.5811
    8CHTO   H24 3327   5.656   9.198   0.337 -0.8573  0.6814 -1.4653
    8CHTO    O8 3328   5.850   9.236   0.404 -0.2825 -0.0666 -0.2263
    8CHTO    H3 3329   5.828   9.206   0.490 -2.7305 -0.5005 -0.9912
    8CHTO    C9 3330   5.787   9.042   0.262  0.1603  0.2044 -0.0600
    8CHTO   H22 3331   5.737   9.019   0.167 -0.4824  0.5704  0.1878
    8CHTO    N2 3332   5.734   8.940   0.358  0.2439  0.1167 -0.0285
    8CHTO   H10 3333   5.629   8.950   0.383 -0.1133  0.8770 -1.7350
    8CHTO   H11 3334   5.747   8.839   0.324  0.9880 -0.0626  0.7911
    8CHTO    C7 3335   5.941   9.036   0.223 -0.4967  0.4160 -0.5080
    8CHTO   H20 3336   5.961   8.937   0.177  2.9336 -1.1981  4.0851
    8CHTO    O4 3337   5.991   9.144   0.141  0.3785 -0.2771 -0.5492
    8CHTO   C14 3338   5.894   9.221   0.072  0.2976 -0.1677 -0.1471
    8CHTO   H27 3339   5.846   9.149   0.001  1.1485 -1.8007  0.9062
    8CHTO   C18 3340   5.973   9.333  -0.006  0.9512  0.3704  0.2804
    8CHTO   O13 3341   6.079   9.285  -0.091 -0.1100 -0.7501 -0.5223
    8CHTO    H7 3342   6.093   9.359  -0.148 -0.4979 -0.9674 -0.9051
    8CHTO    O2 3343   6.033   9.029   0.349 -0.0823 -0.0281 -0.0893
    8CHTO    C1 3344   6.170   9.009   0.348  0.6411  0.6345 -0.6839
    8CHTO   H14 3345   6.196   9.006   0.456  1.5565  0.3042 -0.9051
    8CHTO    C2 3346   6.252   9.115   0.279 -0.2096  0.1447  0.5272
    8CHTO   H15 3347   6.228   9.113   0.172  3.4499 -1.2373 -0.3514
    8CHTO    O6 3348   6.215   9.240   0.339  0.3162 -0.1574 -0.6106
    8CHTO    H1 3349   6.146   9.275   0.287 -0.4229 -2.1311 -1.0138
    8CHTO    C3 3350   6.407   9.079   0.294  0.2382  1.0310 -0.3023
    8CHTO   H16 3351   6.438   9.064   0.398  0.6022  0.9382 -0.4229
    8CHTO    N1 3352   6.501   9.176   0.237 -0.3024 -0.3229 -0.5519
    8CHTO    H8 3353   6.467   9.277   0.258 -0.6532 -0.4100 -0.6837
    8CHTO    H9 3354   6.507   9.166   0.130  0.0420  1.5314 -0.7211
    8CHTO    C4 3355   6.434   8.942   0.227  0.1697 -0.9571  0.2021
    8CHTO   H17 3356   6.408   8.947   0.121 -0.8236 -1.2230  0.4254
    8CHTO    O1 3357   6.350   8.843   0.290  0.5203 -0.3257 -0.0207
    8CHTO    C5 3358   6.206   8.869   0.284  0.5045  0.1822 -0.0774
    8CHTO   H18 3359   6.161   8.863   0.185 -0.8586 -0.0709  0.5428
    8CHTO   C16 3360   6.146   8.744   0.364  0.7484 -0.1207  0.3954
    8CHTO   O11 3361   6.219   8.731   0.485  0.7490  0.1547 -0.0337
    8CHTO    H5 3362   6.211   8.638   0.499  0.1632  0.2118  0.0536
    8CHTO    O3 3363   6.561   8.876   0.253  0.2542 -0.2496 -0.0881
    8CHTO    C6 3364   6.628   8.809   0.147 -0.6469 -0.1529 -0.3146
    8CHTO   H19 3365   6.564   8.790   0.061  0.4368  0.1847 -1.2090
    8CHTO    C8 3366   6.749   8.894   0.101  0.5247 -0.4288  0.1346
    8CHTO   H21 3367   6.802   8.921   0.192  0.1117  1.2149 -0.0932
    8CHTO    O7 3368   6.688   9.011   0.044 -0.0828  0.0985  0.8070
    8CHTO    H2 3369   6.633   8.980  -0.025  1.4834  0.4339 -0.6305
    8CHTO   C12 3370   6.833   8.816  -0.011 -0.2232 -0.5715 -0.0082
    8CHTO   H25 3371   6.768   8.807  -0.100  2.0880  0.2318 -1.8421
    8CHTO    N3 3372   6.960   8.892  -0.043 -0.5965 -0.2915 -0.1388
    8CHTO   H12 3373   6.974   8.979   0.020 -1.3921 -1.8432  2.2636
    8CHTO   H13 3374   6.971   8.908  -0.149  0.0452  0.7011  0.0686
    8CHTO   C15 3375   6.861   8.673   0.038  0.8847  0.8105 -0.4698
    8CHTO   H28 3376   6.921   8.673   0.129  0.7513 -0.2159 -0.3815
    8CHTO   O10 3377   6.922   8.577  -0.071 -0.0140 -0.4649  0.2694
    8CHTO    H4 3378   7.015   8.584  -0.084 -0.3808  1.4238 -1.4824
    8CHTO    O5 3379   6.736   8.609   0.072  0.6531  0.2038 -0.5904
    8CHTO   C10 3380   6.681   8.669   0.192 -0.0605  0.6664  0.0956
    8CHTO   H23 3381   6.752   8.702   0.267  1.0906  1.8845 -1.4751
    8CHTO   C17 3382   6.582   8.567   0.251 -0.3170 -0.2373  0.2559
    8CHTO   O12 3383   6.538   8.589   0.389  0.4486 -0.6268  0.1533
    8CHTO    H6 3384   6.577   8.533   0.453  1.3136 -0.4690 -0.2254
    9CHTO  H203 3385   7.226   2.630   0.910  1.3571  0.0929 -0.7295
    9CHTO   O82 3386   7.266   2.706   0.947  0.0797  0.6807 -0.5111
    9CHTO  C123 3387   7.333   2.788   0.855 -0.4653 -0.2178  0.3434
    9CHTO  H227 3388   7.404   2.728   0.797 -0.9182 -0.9715  0.5532
    9CHTO   O77 3389   7.221   2.821   0.764 -0.1587  0.0029  0.0489
    9CHTO  C118 3390   7.250   2.901   0.649  0.0169 -0.4247  0.2029
    9CHTO  H222 3391   7.328   2.853   0.588  0.1261 -0.1818  0.1522
    9CHTO  C125 3392   7.111   2.910   0.568 -0.3628  0.4626  0.3326
    9CHTO   O84 3393   7.029   3.016   0.603 -0.3339  0.2308 -0.1099
    9CHTO  H205 3394   7.041   3.041   0.693  0.1489 -1.9576  0.4613
    9CHTO  C114 3395   7.308   3.036   0.695 -0.6511  0.2605 -0.2286
    9CHTO  H218 3396   7.228   3.097   0.738  0.6382  2.0649 -0.3303
    9CHTO  C116 3397   7.432   3.015   0.791 -0.8131  0.2322 -0.6358
    9CHTO  H220 3398   7.520   2.982   0.731  0.0768  1.5003 -0.0622
    9CHTO   O79 3399   7.466   3.149   0.841  0.1202 -0.3790  0.4710
    9CHTO  H201 3400   7.530   3.197   0.792 -0.1459  0.8857  1.3303
    9CHTO  C120 3401   7.408   2.914   0.910 -0.0941  0.0330 -0.5244
    9CHTO  H224 3402   7.330   2.966   0.970  1.8068  0.5310  1.5932
    9CHTO   N21 3403   7.520   2.880   0.999 -0.1882  0.4018  0.3077
    9CHTO  H211 3404   7.608   2.918   0.949  1.6143 -1.4723  1.9441
    9CHTO  H212 3405   7.514   2.913   1.102 -0.5220  3.3476 -0.6326
    9CHTO   O75 3406   7.352   3.103   0.570 -0.1400 -0.1625 -0.2443
    9CHTO  C112 3407   7.376   3.284   0.570 -1.1213 -0.0846 -0.1113
    9CHTO  H216 3408   7.389   3.318   0.674 -1.2232 -2.0584  0.5743
    9CHTO   O73 3409   7.263   3.346   0.506  0.0846 -0.1007  0.6464
    9CHTO  C113 3410   7.257   3.489   0.511  0.0651 -0.3539  0.5662
    9CHTO  H217 3411   7.270   3.526   0.615 -0.2142  1.2209  0.0619
    9CHTO  C124 3412   7.120   3.534   0.449 -0.1747 -0.3035 -0.2613
    9CHTO   O83 3413   6.996   3.510   0.517 -0.4148 -0.5022 -0.3783
    9CHTO  H204 3414   6.950   3.591   0.529 -3.1215 -2.2509  1.8284
    9CHTO  C109 3415   7.377   3.545   0.432  0.2448 -0.8889 -0.6383
    9CHTO  H213 3416   7.362   3.522   0.326  2.8421  0.5951 -1.3836
    9CHTO  C110 3417   7.519   3.475   0.481  0.3546 -0.6635  0.3348
    9CHTO  H214 3418   7.547   3.508   0.581  0.1279 -1.3225  0.6189
    9CHTO   O78 3419   7.617   3.521   0.391 -0.3033  0.1764  0.7183
    9CHTO  H200 3420   7.697   3.541   0.437  0.7329  2.2292 -1.8030
    9CHTO  C111 3421   7.496   3.321   0.477  0.0081  0.8513  0.3823
    9CHTO  H215 3422   7.479   3.291   0.372  0.1909  2.6293 -0.1744
    9CHTO   N19 3423   7.620   3.251   0.525  0.2075 -0.1307  0.8915
    9CHTO  H207 3424   7.618   3.147   0.496 -2.0144 -0.5003  2.2643
    9CHTO  H208 3425   7.701   3.283   0.461 -0.8069 -1.5281 -1.1501
    9CHTO   O74 3426   7.372   3.690   0.439 -0.4884  0.1652  0.4094
    9CHTO  C115 3427   7.423   3.764   0.328 -0.0225  0.0785 -0.0716
    9CHTO  H219 3428   7.519   3.723   0.296 -1.0221 -1.4827 -1.1764
    9CHTO   O76 3429   7.328   3.746   0.195 -0.4426 -0.2191 -0.4283
    9CHTO  C122 3430   7.398   3.795   0.079  0.5000  0.0088 -0.3783
    9CHTO  H226 3431   7.333   3.803  -0.008 -2.1322  0.5765  1.5680
    9CHTO  C126 3432   7.503   3.690   0.031  0.3446  0.0288 -0.7256
    9CHTO   O85 3433   7.448   3.567  -0.011 -0.3492  0.7689 -0.0556
    9CHTO  H206 3434   7.404   3.576  -0.093 -0.2429  1.2098 -0.0683
    9CHTO  C121 3435   7.471   3.938   0.105 -0.2415 -0.1730 -0.7165
    9CHTO  H225 3436   7.578   3.920   0.129 -0.1514  0.0885 -0.9228
    9CHTO   O81 3437   7.455   4.030   0.001  0.0311  0.4750 -0.6538
    9CHTO  H202 3438   7.368   4.027  -0.034 -0.7198 -0.5674  1.2310
    9CHTO  C119 3439   7.416   4.001   0.236  0.1992 -0.1363 -0.6275
    9CHTO  H223 3440   7.464   4.098   0.249 -0.9360  0.5104 -1.1736
    9CHTO  C117 3441   7.444   3.915   0.365 -0.1276  0.3498  0.0268
    9CHTO  H221 3442   7.363   3.929   0.436 -0.5987 -0.7421 -0.2868
    9CHTO   N20 3443   7.579   3.939   0.428  0.2164 -0.3486  0.6213
    9CHTO  H209 3444   7.643   3.996   0.363 -1.7330  0.8033 -0.3228
    9CHTO  H210 3445   7.553   3.982   0.524 -2.4324 -2.6031  0.9728
    9CHTO   O80 3446   7.271   4.036   0.231  0.0691  0.4641  0.3897
    9CHTO  C103 3447   7.206   4.110   0.334 -0.3084  0.1038 -0.3738
    9CHTO  H190 3448   7.208   4.066   0.434 -0.6327 -0.2228 -0.5137
    9CHTO  C101 3449   7.254   4.261   0.351  0.0205 -0.9926  0.2022
    9CHTO  H188 3450   7.290   4.308   0.260 -1.1034  1.7096  1.0932
    9CHTO   O68 3451   7.374   4.258   0.446 -0.2340 -0.2493  0.0437
    9CHTO  H168 3452   7.419   4.341   0.445 -0.3052 -0.2021  0.5121
    9CHTO   C99 3453   7.137   4.352   0.418 -0.1571  0.3367 -0.2147
    9CHTO  H186 3454   7.124   4.329   0.526  1.2770 -0.6181 -0.2265
    9CHTO   N17 3455   7.168   4.497   0.397  0.0692 -0.1281  0.7874
    9CHTO  H174 3456   7.082   4.561   0.412  0.3039  0.7651 -1.4167
    9CHTO  H175 3457   7.254   4.527   0.456 -1.4174  1.5349  2.1491
    9CHTO   C97 3458   7.003   4.324   0.351 -0.3308  1.0106 -0.3606
    9CHTO  H184 3459   7.010   4.345   0.243  1.1481 -2.4394 -0.9899
    9CHTO   O64 3460   6.972   4.187   0.370  0.0368 -0.4795 -0.0429
    9CHTO  C104 3461   7.058   4.102   0.291 -0.2755 -0.6405 -0.4193
    9CHTO  H191 3462   7.051   4.130   0.186  1.5770  1.1630 -0.0883
    9CHTO  C108 3463   7.002   3.960   0.296  0.1270  0.3361  0.2440
    9CHTO   O71 3464   6.991   3.909   0.428 -0.4306 -0.4083  0.5352
    9CHTO  H171 3465   6.990   3.816   0.429  1.5774 -0.4628 -0.7499
    9CHTO   O62 3466   6.888   4.395   0.404 -0.0703  0.1121  0.2815
    9CHTO   C91 3467   6.805   4.465   0.308 -0.1444  0.0268  0.0195
    9CHTO  H178 3468   6.859   4.468   0.213  0.4248 -2.3585  0.2469
    9CHTO   C92 3469   6.793   4.620   0.349  0.6377 -0.0304  0.1547
    9CHTO  H179 3470   6.876   4.647   0.416  0.2315 -0.1790  0.7260
    9CHTO   O66 3471   6.799   4.703   0.233 -0.6275 -0.5490  0.1144
    9CHTO  H166 3472   6.784   4.794   0.249  1.4854 -0.4549  1.7471
    9CHTO   C93 3473   6.658   4.653   0.428  0.1946 -0.5596 -0.0953
    9CHTO  H180 3474   6.653   4.762   0.431  1.6450 -0.5078  1.0983
    9CHTO   N16 3475   6.670   4.623   0.575 -0.3450 -0.1050 -0.2699
    9CHTO  H172 3476   6.755   4.674   0.619 -1.6555  1.4911  0.4778
    9CHTO  H173 3477   6.578   4.633   0.631 -1.0694  1.0748 -1.6570
    9CHTO   C94 3478   6.529   4.589   0.357  0.5375 -0.7451  0.0816
    9CHTO  H181 3479   6.473   4.523   0.423 -1.1599  1.6921  1.1720
    9CHTO   O61 3480   6.561   4.511   0.243 -0.2812 -0.5151 -0.6844
    9CHTO   C95 3481   6.657   4.407   0.275  0.0648  0.1636 -0.0704
    9CHTO  H182 3482   6.616   4.356   0.363  1.4116  1.0006  1.0602
    9CHTO  C106 3483   6.666   4.291   0.165  0.5441  0.1511  0.9641
    9CHTO   O69 3484   6.544   4.213   0.172  0.0103 -0.4689 -0.0984
    9CHTO  H169 3485   6.506   4.224   0.086 -0.0604  1.7299  0.1806
    9CHTO   O63 3486   6.438   4.701   0.315 -0.1676  0.3418  0.1882
    9CHTO   C96 3487   6.359   4.772   0.437 -0.3530 -0.4654  0.1974
    9CHTO  H183 3488   6.407   4.741   0.530  2.2017 -3.3237 -1.9737
    9CHTO   C98 3489   6.207   4.727   0.445 -0.2299 -0.8292 -0.0026
    9CHTO  H185 3490   6.167   4.732   0.342  1.3179 -0.9046 -0.6214
    9CHTO   O67 3491   6.197   4.592   0.486 -0.1345 -0.6037 -0.2678
    9CHTO  H167 3492   6.109   4.577   0.513 -0.1103  0.3675  0.3815
    9CHTO  C102 3493   6.119   4.813   0.557  0.6489 -0.2297  0.6279
    9CHTO  H189 3494   6.138   4.767   0.656 -0.5535 -0.3351  0.8187
    9CHTO   N18 3495   5.971   4.800   0.540  0.1298  0.0264 -0.1320
    9CHTO  H176 3496   5.942   4.726   0.466 -0.0908 -0.9239  0.8985
    9CHTO  H177 3497   5.922   4.793   0.636  0.2672 -2.0956 -0.1879
    9CHTO  C105 3498   6.158   4.966   0.557  0.2307  0.9035 -0.0737
    9CHTO  H192 3499   6.099   5.016   0.480  0.4309  0.7931 -0.2981
    9CHTO   O65 3500   6.299   4.983   0.534 -0.6809 -0.2764 -0.6081
    9CHTO  C100 3501   6.357   4.929   0.421  0.7971  0.0659  0.6400
    9CHTO  H187 3502   6.290   4.948   0.336 -0.2199 -1.0668  1.1754
    9CHTO  C107 3503   6.493   5.001   0.405  0.0327  0.1859  0.4789
    9CHTO   O70 3504   6.543   4.966   0.277 -0.0899 -0.1698  0.1004
    9CHTO  H170 3505   6.617   5.017   0.251  0.6686 -0.5458  1.4650
    9CHTO   O57 3506   6.122   5.025   0.715 -0.3614  0.4824  0.4597
    9CHTO   C85 3507   6.121   5.166   0.742  0.0181  0.0308 -0.5125
    9CHTO  H157 3508   6.076   5.216   0.654 -0.8940  0.8486  0.4095
    9CHTO   C83 3509   6.269   5.217   0.766 -0.1630  0.6234 -0.2664
    9CHTO  H155 3510   6.332   5.210   0.677  2.2075 -0.3524  1.4250
    9CHTO   O56 3511   6.342   5.123   0.852  0.4514 -0.1684  0.0187
    9CHTO  H135 3512   6.429   5.156   0.863  0.1404 -0.1170  2.7265
    9CHTO   C81 3513   6.255   5.366   0.814 -0.2966 -1.0931  0.0869
    9CHTO  H153 3514   6.183   5.414   0.747 -0.0914 -0.7515  0.1112
    9CHTO   N14 3515   6.378   5.442   0.797  0.6916  0.3876  0.1141
    9CHTO  H141 3516   6.350   5.541   0.768  1.3998  0.6447  0.3023
    9CHTO  H142 3517   6.444   5.399   0.724  0.0786  1.9284 -1.3645
    9CHTO   C79 3518   6.193   5.373   0.950 -0.8451  0.1356 -0.3682
    9CHTO  H151 3519   6.192   5.480   0.973  0.6037  0.4498 -1.6225
    9CHTO   O52 3520   6.049   5.334   0.934 -0.3560  0.1259  0.2047
    9CHTO   C86 3521   6.040   5.201   0.879  0.2188 -0.7516  0.4868
    9CHTO  H158 3522   6.085   5.140   0.960 -1.9020 -1.2740  1.3002
    9CHTO   C90 3523   5.889   5.161   0.873  0.1743  0.1765 -0.5236
    9CHTO   O60 3524   5.812   5.181   0.990  0.5850 -0.4599  0.1860
    9CHTO  H138 3525   5.724   5.151   0.983  1.0101 -2.0315  1.3479
    9CHTO   O50 3526   6.259   5.308   1.058  0.1199 -0.6669 -0.7213
    9CHTO   C73 3527   6.220   5.310   1.194  0.2390  0.7313  0.0674
    9CHTO  H145 3528   6.117   5.271   1.201  0.0844  1.2700  0.8574
    9CHTO   C74 3529   6.233   5.448   1.269 -0.1943 -0.1518 -0.5339
    9CHTO  H146 3530   6.174   5.524   1.217 -0.4354 -1.0229 -1.5570
    9CHTO   O54 3531   6.168   5.441   1.398  0.2709 -0.5550 -0.1181
    9CHTO  H133 3532   6.215   5.379   1.450  0.7723  0.8828  1.2107
    9CHTO   C75 3533   6.385   5.489   1.281  0.0039  0.5402  0.6365
    9CHTO  H147 3534   6.420   5.489   1.177  0.1153 -1.5274  0.6627
    9CHTO   N13 3535   6.400   5.627   1.338  0.5440  0.4878 -0.2087
    9CHTO  H139 3536   6.436   5.696   1.263  1.6609  0.1887  0.0405
    9CHTO  H140 3537   6.299   5.652   1.367  0.2430  0.2239 -0.9949
    9CHTO   C76 3538   6.463   5.376   1.365 -0.0185 -0.8016  0.0144
    9CHTO  H148 3539   6.430   5.359   1.468  1.4011 -3.1687  0.1149
    9CHTO   O49 3540   6.449   5.253   1.289  0.6132 -0.7080  0.1573
    9CHTO   C77 3541   6.314   5.203   1.273  0.1110 -0.2262  1.1126
    9CHTO  H149 3542   6.269   5.188   1.371  0.4504 -2.9117  0.8862
    9CHTO   C88 3543   6.316   5.072   1.200  0.5996  0.3686 -0.0108
    9CHTO   O58 3544   6.371   4.963   1.295  0.3140 -0.5774  0.4477
    9CHTO  H136 3545   6.307   4.907   1.333  1.0408 -1.0799  0.9398
    9CHTO   O51 3546   6.625   5.402   1.357  0.7837  0.1412  0.1020
    9CHTO   C78 3547   6.705   5.369   1.476 -0.2505  0.1990  0.0706
    9CHTO  H150 3548   6.651   5.313   1.555  0.6574 -2.7664 -1.3612
    9CHTO   C80 3549   6.770   5.498   1.529 -0.6123  0.7584 -0.0075
    9CHTO  H152 3550   6.834   5.533   1.445 -1.5442 -2.4253 -2.1325
    9CHTO   O55 3551   6.662   5.590   1.553 -0.0457 -0.2914 -0.2776
    9CHTO  H134 3552   6.692   5.648   1.620 -0.3833  0.1396 -0.4903
    9CHTO   C84 3553   6.864   5.458   1.657  0.1303 -0.4550 -0.3757
    9CHTO  H156 3554   6.797   5.408   1.726 -2.3045  2.4216 -0.5448
    9CHTO   N15 3555   6.915   5.585   1.718 -0.4739 -0.1316 -0.3068
    9CHTO  H143 3556   6.957   5.651   1.644 -1.4342 -0.2021 -0.9170
    9CHTO  H144 3557   6.840   5.635   1.775 -2.1393 -1.8639 -0.9539
    9CHTO   C87 3558   6.970   5.361   1.603  0.8101  0.0304  0.3402
    9CHTO  H159 3559   7.018   5.406   1.516 -0.8106 -0.1168 -0.6593
    9CHTO   O53 3560   6.885   5.236   1.538 -0.2295 -0.6857 -0.3552
    9CHTO   C82 3561   6.814   5.278   1.425  0.4298  0.5513  0.2397
    9CHTO  H154 3562   6.876   5.334   1.355  0.3737  0.1650 -0.1187
    9CHTO   C89 3563   6.766   5.146   1.356 -0.2799  0.4589  0.3450
    9CHTO   O59 3564   6.872   5.068   1.294  0.1522 -0.2782 -0.4373
    9CHTO  H137 3565   6.902   5.119   1.221 -1.9658  2.6032  0.6120
    9CHTO   O45 3566   7.072   5.293   1.696 -0.0524  0.1835  0.4894
    9CHTO   C67 3567   7.161   5.200   1.631 -0.8865  0.5975  0.5061
    9CHTO  H124 3568   7.113   5.120   1.575  1.7166 -1.4963  1.1571
    9CHTO   C65 3569   7.251   5.282   1.527  0.4613  0.4967 -0.2752
    9CHTO  H122 3570   7.231   5.386   1.550 -0.7727  0.0105  0.9655
    9CHTO   O44 3571   7.200   5.258   1.394  0.0899  0.2169  0.2423
    9CHTO  H102 3572   7.221   5.332   1.340 -0.8776 -0.0613 -0.5160
    9CHTO   C63 3573   7.408   5.260   1.528  0.9439 -0.6058 -0.0069
    9CHTO  H120 3574   7.449   5.309   1.616  1.2996 -1.1389  0.1245
    9CHTO   N11 3575   7.497   5.316   1.424  0.4526 -0.0949 -0.1754
    9CHTO  H108 3576   7.599   5.318   1.458 -0.5360  1.8876  2.8031
    9CHTO  H109 3577   7.480   5.270   1.329 -0.1112 -1.5622  0.6229
    9CHTO   C61 3578   7.424   5.107   1.539 -0.2021 -0.1555  0.4271
    9CHTO  H118 3579   7.532   5.090   1.551 -0.5661 -1.9874  1.3118
    9CHTO   O40 3580   7.357   5.043   1.657 -0.2005  0.6124 -0.5882
    9CHTO   C68 3581   7.262   5.126   1.728  0.3633  0.7676 -0.3245
    9CHTO  H125 3582   7.312   5.204   1.790 -0.4084 -0.8481  2.4245
    9CHTO   C72 3583   7.181   5.039   1.824  0.4937  0.3425 -0.5333
    9CHTO   O48 3584   7.184   5.074   1.957 -0.2121  0.6968  1.3161
    9CHTO  H105 3585   7.217   5.006   2.013  2.6354  1.1769  0.2873
    9CHTO   O38 3586   7.376   5.033   1.426 -0.8031 -0.0437  0.1822
    9CHTO   C55 3587   7.414   4.893   1.407  0.3609 -0.1354 -0.3494
    9CHTO  H112 3588   7.445   4.855   1.506 -1.2133 -1.2374 -0.2577
    9CHTO   C56 3589   7.520   4.867   1.297 -0.8360  0.6718  0.4269
    9CHTO  H113 3590   7.486   4.903   1.198 -2.8768 -0.9872  0.4765
    9CHTO   O42 3591   7.640   4.942   1.329 -0.2131 -0.2834  0.0115
    9CHTO  H100 3592   7.672   4.992   1.257 -1.1164  0.5199  0.1520
    9CHTO   C57 3593   7.539   4.713   1.279 -0.3299  0.0270 -0.0526
    9CHTO  H114 3594   7.583   4.686   1.375  0.1463  0.2415 -0.2060
    9CHTO   N10 3595   7.645   4.684   1.178  0.1117  0.3017  0.0403
    9CHTO  H106 3596   7.743   4.688   1.223  0.3194  0.2084 -0.4083
    9CHTO  H107 3597   7.634   4.587   1.131 -0.5948  1.2037 -1.6854
    9CHTO   C58 3598   7.405   4.634   1.255 -0.2416  0.1513  0.2577
    9CHTO  H115 3599   7.357   4.674   1.163  1.7155  1.7499 -0.1121
    9CHTO   O37 3600   7.312   4.666   1.363  0.2333 -0.1669  0.1603
    9CHTO   C59 3601   7.287   4.808   1.373  0.1020 -0.2669  0.3055
    9CHTO  H116 3602   7.256   4.849   1.277  1.9566 -0.1878 -0.2666
    9CHTO   C70 3603   7.172   4.834   1.475  0.3769 -0.6964 -0.2309
    9CHTO   O46 3604   7.186   4.771   1.600 -0.2078 -0.0352 -0.0135
    9CHTO  H103 3605   7.264   4.809   1.635 -0.5924  0.4064  0.3564
    9CHTO   O39 3606   7.432   4.466   1.265  0.4240  0.1555  0.2127
    9CHTO   C60 3607   7.361   4.391   1.164 -0.0047  0.1674  0.1385
    9CHTO  H117 3608   7.254   4.411   1.156  0.1284  1.2444  0.8851
    9CHTO   C62 3609   7.440   4.404   1.028  1.0527 -0.4760 -0.6530
    9CHTO  H119 3610   7.414   4.504   0.988 -1.2325 -0.6583  0.3565
    9CHTO   O43 3611   7.580   4.377   1.043  0.1792  0.2056  0.0132
    9CHTO  H101 3612   7.620   4.447   1.092 -0.7486  0.7115  0.0585
    9CHTO   C66 3613   7.375   4.300   0.915  0.1313 -0.7024 -0.3991
    9CHTO  H123 3614   7.268   4.319   0.908  0.0024 -0.7641  1.2267
    9CHTO   N12 3615   7.428   4.306   0.777 -0.8293  0.5536 -0.0470
    9CHTO  H110 3616   7.354   4.260   0.713  0.2047 -1.7552  0.3844
    9CHTO  H111 3617   7.446   4.409   0.750 -0.5859  0.2767 -0.9598
    9CHTO   C69 3618   7.393   4.152   0.964 -0.2642  0.0725  0.0606
    9CHTO  H126 3619   7.500   4.133   0.983 -0.5372  1.0987  2.8522
    9CHTO   O41 3620   7.312   4.153   1.111 -0.0259 -0.7040  0.5014
    9CHTO   C64 3621   7.376   4.238   1.214  0.0608 -0.2372 -0.0404
    9CHTO  H121 3622   7.484   4.220   1.226  0.2173  1.1502  0.8094
    9CHTO   C71 3623   7.315   4.194   1.354 -0.2518 -0.7506  0.5528
    9CHTO   O47 3624   7.357   4.064   1.399 -0.5557 -0.0005  0.2606
    9CHTO  H104 3625   7.377   4.058   1.491 -1.5340 -0.4045  0.4559
    9CHTO   O34 3626   7.330   4.039   0.861 -0.5818 -0.5328 -0.4182
    9CHTO   C49 3627   7.398   3.902   0.841  0.2068  0.0813 -0.0222
    9CHTO   H91 3628   7.481   3.914   0.772  0.6969 -1.4497  0.2862
    9CHTO   C47 3629   7.295   3.804   0.780 -0.8787 -0.2030  0.7445
    9CHTO   H89 3630   7.356   3.713   0.763  0.3253  0.9533 -1.2926
    9CHTO   O33 3631   7.249   3.852   0.651 -0.5537  0.3532  0.0260
    9CHTO   H70 3632   7.326   3.876   0.602 -0.3548 -0.4964 -0.0859
    9CHTO   C45 3633   7.179   3.778   0.887  0.4312 -0.3505  0.6864
    9CHTO   H87 3634   7.107   3.860   0.871  0.8749  0.2186  1.5845
    9CHTO    N8 3635   7.111   3.646   0.850 -0.8487  0.2989 -0.4790
    9CHTO   H75 3636   7.181   3.567   0.874  0.9934  1.1778 -2.7571
    9CHTO   H76 3637   7.024   3.631   0.913 -0.4544 -0.5654 -0.1218
    9CHTO   C43 3638   7.228   3.799   1.037  0.1198  0.0044 -0.3366
    9CHTO   H85 3639   7.223   3.907   1.054 -0.6114 -0.1093  0.1891
    9CHTO   O29 3640   7.363   3.751   1.043  0.0227 -0.4470  0.3444
    9CHTO   C50 3641   7.457   3.830   0.971 -0.0290  0.5652  0.3940
    9CHTO   H92 3642   7.483   3.899   1.052  0.7830 -0.2753  0.8502
    9CHTO   C54 3643   7.581   3.746   0.948  0.4915  0.5519  0.1515
    9CHTO   O36 3644   7.556   3.620   0.880 -0.6251 -0.6070  0.7312
    9CHTO   H72 3645   7.630   3.584   0.834 -0.1849  0.7150  0.3667
    9CHTO   O27 3646   7.141   3.736   1.131 -0.6326 -0.1014  0.0814
    9CHTO   C37 3647   7.103   3.691   1.261 -0.3802 -0.0689  0.2708
    9CHTO   H79 3648   7.002   3.648   1.252  0.0032 -0.5687 -1.7477
    9CHTO   C38 3649   7.201   3.583   1.321  0.9160  0.1980  0.9051
    9CHTO   H80 3650   7.304   3.621   1.312  0.3104  1.4138 -0.9909
    9CHTO   O31 3651   7.204   3.462   1.237 -0.3327  0.3912 -0.1335
    9CHTO   H68 3652   7.246   3.395   1.288  2.1068  0.8853 -1.4324
    9CHTO   C39 3653   7.162   3.555   1.476 -0.2547  0.5950 -0.7187
    9CHTO   H81 3654   7.069   3.500   1.464  1.1790 -1.8342 -1.0471
    9CHTO    N7 3655   7.254   3.455   1.544  0.2132  0.2565 -0.2520
    9CHTO   H73 3656   7.359   3.471   1.522  0.7972 -0.3781  1.9917
    9CHTO   H74 3657   7.225   3.436   1.646  0.7584 -0.7541 -0.2832
    9CHTO   C40 3658   7.145   3.689   1.556 -0.0751  0.6847 -0.6846
    9CHTO   H82 3659   7.240   3.740   1.567  0.0845  0.7221 -2.2448
    9CHTO   O26 3660   7.049   3.762   1.479  0.3782 -0.3931 -0.1590
    9CHTO   C41 3661   7.098   3.813   1.350 -0.7016  0.2745 -0.2458
    9CHTO   H83 3662   7.202   3.845   1.365 -0.8931  2.0708 -2.4843
    9CHTO   C52 3663   7.007   3.929   1.304  0.0702  0.2572  0.2733
    9CHTO   O35 3664   6.980   4.037   1.390 -0.2103 -0.5070 -0.4886
    9CHTO   H71 3665   6.920   4.004   1.455 -1.2675  0.4743 -0.9356
    9CHTO   O28 3666   7.094   3.678   1.693  0.4560  0.1136  0.2929
    9CHTO   C42 3667   6.988   3.764   1.747 -0.0679  0.0157  0.6524
    9CHTO   H84 3668   7.003   3.744   1.853 -0.0972 -0.2991  0.5962
    9CHTO   C44 3669   6.834   3.731   1.718  0.1295 -1.3694  0.2460
    9CHTO   H86 3670   6.821   3.692   1.617 -1.4286  3.4484 -1.5724
    9CHTO   O32 3671   6.782   3.626   1.805  0.1686 -0.3971  0.7520
    9CHTO   H69 3672   6.701   3.586   1.779 -0.0656 -0.6881  1.9177
    9CHTO   C48 3673   6.731   3.861   1.730  0.0263  0.0179  0.0275
    9CHTO   H90 3674   6.712   3.873   1.836 -1.6881  0.0660 -0.2729
    9CHTO    N9 3675   6.597   3.836   1.667 -0.2054  0.7603 -0.0209
    9CHTO   H77 3676   6.600   3.834   1.559 -0.8997 -0.2474 -0.0248
    9CHTO   H78 3677   6.531   3.914   1.703 -2.0868 -1.1532  0.8226
    9CHTO   C51 3678   6.806   3.988   1.683  0.2680  0.0387 -0.7285
    9CHTO   H93 3679   6.839   3.976   1.580  2.6461  2.0795 -0.2388
    9CHTO   O30 3680   6.914   4.002   1.777 -0.2240 -0.5833  0.2459
    9CHTO   C46 3681   7.031   3.914   1.734 -0.1775  0.4491 -0.0979
    9CHTO   H88 3682   7.060   3.940   1.632  0.9189 -2.4674 -0.5617
    9CHTO   C53 3683   7.157   3.944   1.820  0.8338 -0.2156 -0.0794
    9CHTO   O72 3684   7.191   4.085   1.822  0.0768 -0.2534  0.0099
    9CHTO  H199 3685   7.226   4.110   1.905 -0.2017  1.7682 -0.4596
    9CHTO   O22 3686   6.744   4.116   1.709  0.6311 -0.3121  0.1823
    9CHTO   C31 3687   6.754   4.239   1.628 -0.3928 -0.1822 -1.0067
    9CHTO   H59 3688   6.701   4.317   1.687 -0.3439 -1.5306  0.8510
    9CHTO   C29 3689   6.897   4.295   1.599 -0.6120 -0.4241  0.4153
    9CHTO   H57 3690   6.949   4.212   1.548  2.1995  0.9745  0.8769
    9CHTO   O21 3691   6.956   4.319   1.732 -0.1620 -0.2607  0.8717
    9CHTO   H37 3692   7.038   4.273   1.741  0.0121 -1.5492 -5.2823
    9CHTO   C27 3693   6.894   4.424   1.509 -0.0119 -0.8194 -0.0241
    9CHTO   H55 3694   6.843   4.503   1.567 -0.1072 -0.1971 -0.9474
    9CHTO    N5 3695   7.031   4.467   1.470  0.2739  0.0933  1.1583
    9CHTO   H43 3696   7.053   4.436   1.370 -4.0411  0.3155  0.0492
    9CHTO   H44 3697   7.104   4.428   1.541 -0.5349 -2.7118  0.4941
    9CHTO   C25 3698   6.813   4.391   1.385 -0.4738 -0.3399 -0.3231
    9CHTO   H53 3699   6.852   4.313   1.319 -0.4014  0.7708 -1.6201
    9CHTO   O17 3700   6.681   4.355   1.434 -0.1491 -0.1100 -0.1853
    9CHTO   C32 3701   6.679   4.228   1.503  0.2693 -0.1047 -0.0810
    9CHTO   H60 3702   6.730   4.157   1.439  2.8151  2.6065 -1.2029
    9CHTO   C36 3703   6.525   4.187   1.527  0.4651 -0.1404  0.2650
    9CHTO   O25 3704   6.448   4.285   1.594  0.0221  0.1659  0.1951
    9CHTO   H40 3705   6.472   4.372   1.568  0.7648 -0.7906 -2.4544
    9CHTO   O15 3706   6.793   4.508   1.281 -0.1603 -0.0651 -0.2120
    9CHTO   C19 3707   6.776   4.488   1.138 -0.2093  0.6469 -0.8388
    9CHTO   H47 3708   6.766   4.593   1.106  0.8890  1.9229  2.7438
    9CHTO   C20 3709   6.897   4.422   1.066 -0.7057  0.0539 -0.5737
    9CHTO   H48 3710   6.927   4.326   1.110  1.4055  0.6440 -0.6623
    9CHTO   O19 3711   7.012   4.506   1.080  0.0599  0.0888 -0.2396
    9CHTO   H35 3712   7.026   4.545   0.996 -0.4332  0.5456 -0.1145
    9CHTO   C21 3713   6.865   4.396   0.913 -0.2069  0.0614 -0.0405
    9CHTO   H49 3714   6.859   4.492   0.861  2.3662  0.0562 -0.4123
    9CHTO    N4 3715   6.978   4.323   0.838 -0.0759 -0.7252  0.4560
    9CHTO   H41 3716   7.057   4.396   0.824  0.4707 -0.9032  2.4308
    9CHTO   H42 3717   6.943   4.300   0.739  1.1041  1.0696 -0.4241
    9CHTO   C22 3718   6.735   4.321   0.898  0.6360 -0.0583  0.3144
    9CHTO   H50 3719   6.744   4.218   0.933  1.6678 -0.5915 -1.4641
    9CHTO   O14 3720   6.627   4.395   0.962  0.0202  0.3618  0.1783
    9CHTO   C23 3721   6.648   4.408   1.100  0.6864 -1.1810  0.4595
    9CHTO   H51 3722   6.649   4.308   1.145  1.0919 -1.3711  0.0299
    9CHTO   C34 3723   6.518   4.466   1.152  0.5006  0.0073  0.4884
    9CHTO   O23 3724   6.497   4.600   1.098 -0.1932  0.1076 -0.0312
    9CHTO   H38 3725   6.418   4.640   1.131 -1.3313 -0.9838 -1.3347
    9CHTO   O16 3726   6.689   4.327   0.763  0.0264 -0.1422 -0.2114
    9CHTO   C24 3727   6.604   4.231   0.703  0.0713 -0.4039 -0.0301
    9CHTO   H52 3728   6.571   4.153   0.771 -0.2920 -0.5793 -0.4012
    9CHTO   C26 3729   6.671   4.155   0.584 -0.2631 -0.5563 -0.3753
    9CHTO   H54 3730   6.707   4.232   0.512  1.3245  0.0356  1.0262
    9CHTO   O20 3731   6.791   4.089   0.637 -0.1801  0.0957 -0.5913
    9CHTO   H36 3732   6.862   4.094   0.577 -0.2079 -0.6381 -0.6893
    9CHTO   C30 3733   6.572   4.056   0.509  0.2020  0.4814 -0.3315
    9CHTO   H58 3734   6.548   3.969   0.572 -0.2879  0.2452 -0.8327
    9CHTO    N6 3735   6.642   3.990   0.395 -0.4146  0.1264 -0.0536
    9CHTO   H45 3736   6.745   3.964   0.415 -0.3084  0.8460  0.3456
    9CHTO   H46 3737   6.591   3.898   0.370  2.6206 -1.7944  0.6012
    9CHTO   C33 3738   6.445   4.131   0.475 -0.1175  0.2545 -0.1411
    9CHTO   H61 3739   6.457   4.203   0.392 -0.3952  0.2395 -0.1938
    9CHTO   O18 3740   6.390   4.201   0.587 -0.3066 -0.6884  0.1655
    9CHTO   C28 3741   6.473   4.299   0.653  0.2093  0.0180  1.0089
    9CHTO   H56 3742   6.503   4.374   0.580  1.3802 -1.3351  0.0650
    9CHTO   C35 3743   6.384   4.372   0.757  0.4157  0.4809  0.0330
    9CHTO   O24 3744   6.282   4.459   0.709 -0.1805 -0.3358  0.0988
    9CHTO   H39 3745   6.293   4.548   0.737 -1.7486  0.1652 -0.8166
    9CHTO    O9 3746   6.351   4.033   0.427  0.1241  0.0895  0.3337
    9CHTO   C13 3747   6.254   4.083   0.321  0.0087  0.1751  0.1019
    9CHTO   H26 3748   6.311   4.099   0.227  1.7355 -1.0646  0.8951
    9CHTO   C11 3749   6.175   4.213   0.366 -0.8177  0.6880 -0.4614
    9CHTO   H24 3750   6.243   4.299   0.372 -2.0432  1.5992  0.8792
    9CHTO    O8 3751   6.125   4.184   0.503 -0.3317 -0.2116 -0.7620
    9CHTO    H3 3752   6.047   4.233   0.519 -0.2046 -0.2636  0.0691
    9CHTO    C9 3753   6.062   4.244   0.260 -0.7858  0.3695 -0.4637
    9CHTO   H22 3754   6.117   4.255   0.165  0.2572 -1.8738 -0.1486
    9CHTO    N2 3755   5.997   4.374   0.287 -0.0611  0.1104  0.4281
    9CHTO   H10 3756   6.078   4.446   0.292  0.1274 -0.1912  1.7383
    9CHTO   H11 3757   5.945   4.381   0.381  0.8978  0.8332  0.9182
    9CHTO    C7 3758   5.969   4.119   0.246 -0.2494 -0.0949  1.3923
    9CHTO   H20 3759   5.908   4.149   0.158  0.6358  0.6658  1.0248
    9CHTO    O4 3760   6.035   3.997   0.217  0.1260  0.0862  0.2812
    9CHTO   C14 3761   6.155   3.955   0.283 -1.3012 -0.0928 -0.7385
    9CHTO   H27 3762   6.210   3.893   0.209  0.0027  0.4110 -0.2060
    9CHTO   C18 3763   6.107   3.863   0.401 -0.0739  0.8446  0.0151
    9CHTO   O13 3764   6.218   3.794   0.450 -0.2479 -0.2347  0.2793
    9CHTO    H7 3765   6.245   3.729   0.389 -1.9976 -0.7421  0.0067
    9CHTO    O2 3766   5.864   4.090   0.388  0.2667  0.8595  0.0649
    9CHTO    C1 3767   5.727   4.035   0.360  0.0155 -0.1995 -0.1096
    9CHTO   H14 3768   5.734   3.952   0.287 -0.5446 -1.3739  1.1584
    9CHTO    C2 3769   5.622   4.142   0.311  0.2317  0.0105  0.8102
    9CHTO   H15 3770   5.611   4.224   0.384 -1.7230  1.3596 -0.9388
    9CHTO    O6 3771   5.674   4.195   0.181  0.4374  0.4442  0.4438
    9CHTO    H1 3772   5.621   4.259   0.138  0.4328 -1.0907 -1.8963
    9CHTO    C3 3773   5.479   4.078   0.298 -0.0778 -0.2543 -0.1891
    9CHTO   H16 3774   5.484   3.992   0.230 -2.4170 -1.5673  1.2560
    9CHTO    N1 3775   5.382   4.173   0.244  0.8119 -0.5069  0.2718
    9CHTO    H8 3776   5.345   4.163   0.143  0.7541 -1.3378  0.3727
    9CHTO    H9 3777   5.302   4.209   0.306  2.1116  0.3762  1.4703
    9CHTO    C4 3778   5.438   4.024   0.438 -0.5295 -0.8055 -0.5312
    9CHTO   H17 3779   5.429   4.107   0.508 -0.5180  1.8020 -3.4881
    9CHTO    O1 3780   5.544   3.930   0.476 -0.3296  0.2706 -0.2119
    9CHTO    C5 3781   5.674   3.980   0.490  0.0838  0.0786 -0.4496
    9CHTO   H18 3782   5.665   4.060   0.563 -1.3719  0.4499 -1.0157
    9CHTO   C16 3783   5.770   3.863   0.543  0.5658 -0.2568 -0.4937
    9CHTO   O11 3784   5.719   3.797   0.662 -0.4042  0.2081 -0.0299
    9CHTO    H5 3785   5.741   3.706   0.657 -0.9155  0.0919 -0.2291
    9CHTO    O3 3786   5.321   3.937   0.434  0.2864  0.6188  0.1229
    9CHTO    C6 3787   5.227   3.968   0.548 -0.0771  0.6891  1.0934
    9CHTO   H19 3788   5.231   4.067   0.593 -0.0994  2.0936 -1.9102
    9CHTO    C8 3789   5.081   3.957   0.494  0.0398 -0.3696 -0.7855
    9CHTO   H21 3790   5.076   3.869   0.430  1.6116 -1.2647  0.3132
    9CHTO    O7 3791   5.065   4.070   0.411  0.4565 -0.5514 -0.3991
    9CHTO    H2 3792   5.073   4.154   0.452  0.9444  0.6900 -2.9034
    9CHTO   C12 3793   4.971   3.949   0.605  0.1703  0.1350 -0.1432
    9CHTO   H25 3794   4.979   4.046   0.659 -0.4564 -0.0439  0.2707
    9CHTO    N3 3795   4.834   3.928   0.556 -0.6818  0.3886 -0.4162
    9CHTO   H12 3796   4.801   3.826   0.560 -0.1687  0.2830  3.1687
    9CHTO   H13 3797   4.812   3.975   0.461 -0.2784  0.7583 -0.3299
    9CHTO   C15 3798   5.018   3.831   0.704 -0.1033  0.3235 -0.2950
    9CHTO   H28 3799   5.020   3.736   0.652 -0.8741 -1.1421  2.2635
    9CHTO   O10 3800   4.924   3.814   0.827  0.3379 -0.1807 -1.1231
    9CHTO    H4 3801   4.880   3.732   0.836  0.5946 -0.1886  0.1729
    9CHTO    O5 3802   5.145   3.856   0.765 -0.8158  0.9782 -0.6225
    9CHTO   C10 3803   5.255   3.866   0.670 -0.0233  0.2709  0.4121
    9CHTO   H23 3804   5.286   3.766   0.639  2.0303  0.8507  0.4676
    9CHTO   C17 3805   5.371   3.911   0.765  0.3283 -0.1689 -0.0508
    9CHTO   O12 3806   5.369   4.049   0.808  0.1842 -0.1974  0.1700
    9CHTO    H6 3807   5.424   4.056   0.884 -0.6268 -0.1274  0.7665
   10CHTO  H203 3808   3.989   6.767   0.523 -0.5549  1.8127 -1.0251
   10CHTO   O82 3809   3.904   6.738   0.551  0.3163  0.0369 -0.0848
   10CHTO  C123 3810   3.791   6.822   0.519  0.1482  0.2570  0.0825
   10CHTO  H227 3811   3.794   6.903   0.594 -0.2573  0.2089  0.1550
   10CHTO   O77 3812   3.813   6.882   0.396  0.1940  0.2410  0.1253
   10CHTO  C118 3813   3.724   6.994   0.370 -0.1882  0.1879 -0.5489
   10CHTO  H222 3814   3.726   7.073   0.446 -0.3000 -0.4795  0.1634
   10CHTO  C125 3815   3.778   7.059   0.237 -0.6593  0.0160  0.9081
   10CHTO   O84 3816   3.758   6.997   0.108  0.0298  0.5979  0.0562
   10CHTO  H205 3817   3.706   7.055   0.055  0.7983  0.8402 -0.4346
   10CHTO  C114 3818   3.581   6.941   0.351  0.1672  0.1922 -0.0129
   10CHTO  H218 3819   3.580   6.861   0.278 -0.7567 -0.8992  1.1788
   10CHTO  C116 3820   3.545   6.854   0.481  0.6805 -0.2876 -0.2330
   10CHTO  H220 3821   3.533   6.923   0.567  0.6375  0.4463 -0.8221
   10CHTO   O79 3822   3.414   6.797   0.468 -0.4096 -0.3224 -0.9241
   10CHTO  H201 3823   3.418   6.711   0.431 -0.2305 -0.6800 -0.0887
   10CHTO  C120 3824   3.659   6.746   0.511 -0.0626  0.2971 -0.0282
   10CHTO  H224 3825   3.664   6.665   0.436 -0.3694  1.5712 -1.4383
   10CHTO   N21 3826   3.625   6.675   0.638  0.2539  0.6775 -0.3304
   10CHTO  H211 3827   3.704   6.644   0.705 -0.8712 -0.1568  0.6285
   10CHTO  H212 3828   3.586   6.580   0.604  1.8099 -0.8923  2.1084
   10CHTO   O75 3829   3.492   7.047   0.316 -0.6860  0.1621 -1.0245
   10CHTO  C112 3830   3.466   7.168   0.433 -0.2930 -0.3708 -0.5286
   10CHTO  H216 3831   3.562   7.204   0.473 -1.6970 -0.0989  2.7235
   10CHTO   O73 3832   3.388   7.108   0.537  0.1220 -0.0456  0.6978
   10CHTO  C113 3833   3.381   7.195   0.653 -0.3293 -0.4044 -0.3952
   10CHTO  H217 3834   3.484   7.220   0.685 -0.4162 -0.9970  0.3822
   10CHTO  C124 3835   3.312   7.110   0.765 -0.1909  0.0726  0.6570
   10CHTO   O83 3836   3.312   7.170   0.899 -0.8014 -0.1731  0.2797
   10CHTO  H204 3837   3.400   7.197   0.917 -0.4471  0.0947 -1.6913
   10CHTO  C109 3838   3.300   7.327   0.618  0.3006 -0.5417 -0.0591
   10CHTO  H213 3839   3.194   7.299   0.608 -0.2351  1.1740  0.6880
   10CHTO  C110 3840   3.345   7.396   0.481 -0.3137  0.4075  0.6197
   10CHTO  H214 3841   3.432   7.459   0.497 -0.0936  0.4229 -0.6162
   10CHTO   O78 3842   3.239   7.477   0.428  0.1751 -0.0856 -0.6087
   10CHTO  H200 3843   3.152   7.444   0.425  0.3053 -0.3551 -2.0342
   10CHTO  C111 3844   3.384   7.289   0.370  0.7238 -0.4514 -0.2621
   10CHTO  H215 3845   3.292   7.245   0.328 -1.2727  0.6814  2.7401
   10CHTO   N19 3846   3.458   7.346   0.254  0.3438 -0.7501  0.2830
   10CHTO  H207 3847   3.401   7.431   0.217  1.5727 -0.6546 -1.4194
   10CHTO  H208 3848   3.475   7.271   0.178 -0.4801  0.9041 -1.5882
   10CHTO   O74 3849   3.319   7.420   0.725  0.2705  0.4899  0.1836
   10CHTO  C115 3850   3.195   7.522   0.744  0.2475 -0.1708  0.1710
   10CHTO  H219 3851   3.155   7.557   0.649  1.2394 -0.2754 -0.2872
   10CHTO   O76 3852   3.064   7.449   0.819 -0.8929 -0.0759 -0.1665
   10CHTO  C122 3853   3.100   7.398   0.952  0.0287 -0.0613 -0.3640
   10CHTO  H226 3854   3.115   7.293   0.927 -3.2550 -1.1534  1.8917
   10CHTO  C126 3855   2.977   7.396   1.044 -0.0307 -0.7116  0.0932
   10CHTO   O85 3856   2.982   7.313   1.158  0.2945 -0.2800 -0.0636
   10CHTO  H206 3857   2.893   7.304   1.188  0.0077 -0.7824 -1.0558
   10CHTO  C121 3858   3.212   7.482   1.024  0.5884  0.3934  0.3458
   10CHTO  H225 3859   3.188   7.485   1.132  2.7261  0.8977  0.8360
   10CHTO   O81 3860   3.342   7.427   1.014 -0.0285  0.0492  0.0449
   10CHTO  H202 3861   3.409   7.492   1.008  1.0324 -0.8294  1.8252
   10CHTO  C119 3862   3.210   7.632   0.974  0.1509  0.3170  0.7065
   10CHTO  H223 3863   3.104   7.654   0.985  0.1173  2.0818 -2.6584
   10CHTO  C117 3864   3.243   7.646   0.825 -0.4647 -0.6702 -0.4964
   10CHTO  H221 3865   3.350   7.646   0.800 -0.0073  2.4276  1.2421
   10CHTO   N20 3866   3.189   7.768   0.762  0.7568 -0.5124 -0.1199
   10CHTO  H209 3867   3.083   7.787   0.765  1.3204  2.6765  1.5127
   10CHTO  H210 3868   3.247   7.797   0.675 -0.1235 -0.9124 -0.8473
   10CHTO   O80 3869   3.282   7.734   1.075  0.3807  0.1837  0.1872
   10CHTO  C103 3870   3.197   7.827   1.175 -0.8603 -0.3606  0.5277
   10CHTO  H190 3871   3.256   7.914   1.206 -1.4047  0.6810 -1.3247
   10CHTO  C101 3872   3.066   7.882   1.118 -0.1324 -0.3205  0.6967
   10CHTO  H188 3873   3.007   7.795   1.086  0.0192 -0.2696  0.2866
   10CHTO   O68 3874   3.103   7.974   1.000 -0.1871  0.3707 -0.2876
   10CHTO  H168 3875   3.027   8.012   0.961 -0.4578 -1.2786 -1.3991
   10CHTO   C99 3876   2.974   7.948   1.229  0.6545  0.6017 -0.1961
   10CHTO  H186 3877   3.014   8.046   1.262  0.1221  0.7872 -0.0973
   10CHTO   N17 3878   2.838   7.983   1.176 -0.6781  0.3067 -0.0698
   10CHTO  H174 3879   2.780   7.895   1.152 -0.0667 -0.2491  0.4666
   10CHTO  H175 3880   2.785   8.042   1.250  1.7580  0.3607  1.6673
   10CHTO   C97 3881   2.967   7.858   1.359 -0.3812  0.0273 -0.1487
   10CHTO  H184 3882   2.913   7.764   1.338 -1.1043  0.4461 -0.2112
   10CHTO   O64 3883   3.097   7.838   1.403 -0.1390  0.7457  0.3134
   10CHTO  C104 3884   3.171   7.745   1.309  0.6841  0.0652  0.3299
   10CHTO  H191 3885   3.115   7.654   1.288 -1.9809  1.8415 -0.6216
   10CHTO  C108 3886   3.307   7.703   1.368  0.6661 -0.3200  0.1109
   10CHTO   O71 3887   3.382   7.605   1.301  0.0232 -0.2112 -0.2606
   10CHTO  H171 3888   3.446   7.648   1.248  1.9593  1.1806  3.0441
   10CHTO   O62 3889   2.903   7.921   1.471 -0.3785 -0.3015 -0.0492
   10CHTO   C91 3890   2.793   7.858   1.543  0.0671 -0.0407 -0.0061
   10CHTO  H178 3891   2.742   7.794   1.471  1.4609  2.4731 -3.3588
   10CHTO   C92 3892   2.686   7.961   1.577 -0.7794 -0.3971  0.2696
   10CHTO  H179 3893   2.741   8.042   1.627  0.0969  0.4288 -1.9586
   10CHTO   O66 3894   2.637   8.033   1.465  0.2102  0.0261 -0.5148
   10CHTO  H166 3895   2.713   8.062   1.418  0.8860 -0.7571  0.0779
   10CHTO   C93 3896   2.569   7.911   1.672  0.1488 -0.2910  0.4110
   10CHTO  H180 3897   2.495   7.854   1.613  1.7837 -0.7767 -1.2068
   10CHTO   N16 3898   2.483   8.025   1.730 -0.2962 -0.5552 -0.2473
   10CHTO  H172 3899   2.436   8.094   1.661 -1.1512  2.6105  3.3556
   10CHTO  H173 3900   2.402   7.989   1.792  0.1640  1.2758  1.4656
   10CHTO   C94 3901   2.627   7.828   1.789  0.8555  0.0807 -0.1288
   10CHTO  H181 3902   2.679   7.890   1.862  1.3480  2.3620 -2.3284
   10CHTO   O61 3903   2.719   7.728   1.734  0.3336 -0.3540  0.7708
   10CHTO   C95 3904   2.839   7.780   1.677 -0.1742 -0.1131 -0.8050
   10CHTO  H182 3905   2.888   7.848   1.747  0.0024  0.2539 -1.2784
   10CHTO  C106 3906   2.929   7.662   1.642 -0.6002 -0.4598 -0.0065
   10CHTO   O69 3907   3.014   7.637   1.753  0.1461  0.3829  0.1501
   10CHTO  H169 3908   3.105   7.625   1.733  0.5413  0.3817  1.8577
   10CHTO   O63 3909   2.516   7.755   1.860 -0.1633 -0.6497 -0.3890
   10CHTO   C96 3910   2.580   7.681   1.998  0.1767 -0.1865  0.2582
   10CHTO  H183 3911   2.688   7.695   2.001  0.1747  0.2707 -1.6660
   10CHTO   C98 3912   2.543   7.530   1.988 -0.1475  0.1134 -0.4483
   10CHTO  H185 3913   2.444   7.517   1.942  1.0653  0.0662 -3.1304
   10CHTO   O67 3914   2.637   7.475   1.892 -0.1296  0.3508  0.3280
   10CHTO  H167 3915   2.723   7.476   1.928 -0.3595 -1.0445  0.9395
   10CHTO  C102 3916   2.549   7.452   2.134 -0.0648  0.5752  0.2364
   10CHTO  H189 3917   2.656   7.436   2.152 -0.2843 -0.8192  0.4140
   10CHTO   N18 3918   2.492   7.312   2.120  0.4942 -0.1996 -0.1414
   10CHTO  H176 3919   2.558   7.238   2.163  1.6052  0.8269 -0.0451
   10CHTO  H177 3920   2.476   7.300   2.014 -3.5674  1.4583  0.1806
   10CHTO  C105 3921   2.477   7.540   2.237  0.2982  0.1445 -0.0594
   10CHTO  H192 3922   2.371   7.539   2.215  0.4374 -1.0197 -0.7139
   10CHTO   O65 3923   2.522   7.677   2.238 -0.2161 -0.0086  0.0382
   10CHTO  C100 3924   2.505   7.754   2.118  0.3792  0.7851  0.4419
   10CHTO  H187 3925   2.398   7.753   2.094  0.5374 -0.4065 -0.2954
   10CHTO  C107 3926   2.557   7.903   2.135  0.4972  0.7637 -0.2401
   10CHTO   O70 3927   2.476   7.984   2.227  0.6824  0.8851  0.3552
   10CHTO  H170 3928   2.484   8.076   2.212 -1.5384  1.1029  0.3079
   10CHTO   O57 3929   2.514   7.476   2.375 -0.3899 -0.3894 -0.1249
   10CHTO   C85 3930   2.450   7.518   2.498 -0.3189  0.0935  0.2378
   10CHTO  H157 3931   2.346   7.545   2.470  0.0948  2.3665  0.7950
   10CHTO   C83 3932   2.509   7.651   2.548  0.2970  0.1736 -0.5188
   10CHTO  H155 3933   2.500   7.729   2.472  0.5449  2.2093  1.4989
   10CHTO   O56 3934   2.656   7.647   2.556  0.1554 -0.1813  0.0440
   10CHTO  H135 3935   2.691   7.569   2.517  1.2542  1.6463 -2.7405
   10CHTO   C81 3936   2.445   7.693   2.678  0.2437  0.0804 -0.1075
   10CHTO  H153 3937   2.337   7.694   2.665 -0.1888  1.8800  3.0639
   10CHTO   N14 3938   2.490   7.834   2.712  0.1124  0.5749  0.6839
   10CHTO  H141 3939   2.470   7.897   2.628  1.4027  0.0778 -0.0092
   10CHTO  H142 3940   2.441   7.879   2.795  0.6383 -1.3871  2.0853
   10CHTO   C79 3941   2.475   7.585   2.786  0.4826 -0.4728 -0.1713
   10CHTO  H151 3942   2.425   7.619   2.877  0.5173  3.0557 -1.4016
   10CHTO   O52 3943   2.429   7.448   2.757  0.2111 -0.1205 -0.6425
   10CHTO   C86 3944   2.456   7.409   2.614  0.2344 -0.1245  0.3192
   10CHTO  H158 3945   2.560   7.371   2.617 -0.5898 -2.7168 -2.1052
   10CHTO   C90 3946   2.363   7.285   2.576  0.3015  0.1012 -0.4882
   10CHTO   O60 3947   2.225   7.318   2.562  0.2596  0.2817 -0.1232
   10CHTO  H138 3948   2.158   7.269   2.605  1.0001 -0.4611  0.2105
   10CHTO   O50 3949   2.616   7.594   2.824 -0.7145  0.6583 -0.6501
   10CHTO   C73 3950   2.674   7.520   2.932 -0.3663  0.4620 -0.1272
   10CHTO  H145 3951   2.607   7.443   2.971 -0.0581  0.7821  1.0361
   10CHTO   C74 3952   2.693   7.618   3.051 -0.4783 -0.5779  0.6422
   10CHTO  H146 3953   2.592   7.653   3.076  0.0716  0.2394  1.7356
   10CHTO   O54 3954   2.748   7.545   3.164 -0.3036 -0.6606  0.0919
   10CHTO  H133 3955   2.761   7.602   3.237 -1.2964 -2.4625  1.7159
   10CHTO   C75 3956   2.792   7.740   3.005 -0.4525 -0.2675  0.6924
   10CHTO  H147 3957   2.759   7.788   2.911  3.5238 -2.1966 -1.8731
   10CHTO   N13 3958   2.804   7.860   3.091  0.7285  0.1048  0.1315
   10CHTO  H139 3959   2.905   7.881   3.123  1.0501  1.5299 -1.7055
   10CHTO  H140 3960   2.739   7.870   3.176  2.6073 -0.6058  1.6851
   10CHTO   C76 3961   2.931   7.666   2.956  0.7802  0.2719 -0.3000
   10CHTO  H148 3962   2.982   7.627   3.043  1.0159  0.3762 -0.3925
   10CHTO   O49 3963   2.904   7.566   2.850 -0.3973 -0.0473 -0.0872
   10CHTO   C77 3964   2.810   7.467   2.895 -0.1533 -0.0415 -0.2290
   10CHTO  H149 3965   2.854   7.418   2.982  0.1505  1.1615  0.3075
   10CHTO   C88 3966   2.786   7.353   2.797  1.2761  0.6806 -0.4429
   10CHTO   O58 3967   2.928   7.297   2.746  0.3187  0.8013  0.7058
   10CHTO  H136 3968   2.962   7.232   2.805  0.5238 -0.1122 -0.3937
   10CHTO   O51 3969   3.030   7.772   2.882 -0.6887  0.2328  0.4107
   10CHTO   C78 3970   3.181   7.724   2.895  0.5576 -0.3601  0.6133
   10CHTO  H150 3971   3.177   7.616   2.921  0.0217 -0.4306  0.2356
   10CHTO   C80 3972   3.248   7.810   3.003 -0.1823  0.5180  0.1681
   10CHTO  H152 3973   3.226   7.918   2.988  2.0994  1.0590  0.5449
   10CHTO   O55 3974   3.183   7.774   3.124  0.5163  0.2636  0.1841
   10CHTO  H134 3975   3.102   7.820   3.137 -0.0919 -1.0765  1.1997
   10CHTO   C84 3976   3.397   7.786   3.011  0.2965 -0.0564  0.3837
   10CHTO  H156 3977   3.414   7.682   3.038 -0.8393 -0.5503 -0.7625
   10CHTO   N15 3978   3.458   7.866   3.120 -0.3571 -0.1698  0.6217
   10CHTO  H143 3979   3.564   7.851   3.128  0.0618  2.5325  0.7327
   10CHTO  H144 3980   3.410   7.839   3.212 -1.8832  0.5903  0.0546
   10CHTO   C87 3981   3.454   7.818   2.871 -0.3932  0.4466 -1.1447
   10CHTO  H159 3982   3.432   7.919   2.838 -0.5312 -0.4586 -3.9411
   10CHTO   O53 3983   3.391   7.705   2.770 -0.2608  0.2004  0.4338
   10CHTO   C82 3984   3.250   7.731   2.760  0.2912 -0.0322 -0.1718
   10CHTO  H154 3985   3.234   7.828   2.714 -0.4663  1.8060  3.7059
   10CHTO   C89 3986   3.195   7.618   2.665 -0.6632  0.2283 -0.5517
   10CHTO   O59 3987   3.065   7.641   2.602 -0.2551 -0.0215 -0.1008
   10CHTO  H137 3988   3.012   7.563   2.598  0.0156 -0.3167  1.7346
   10CHTO   O45 3989   3.626   7.790   2.857  0.3721  0.3485  0.2493
   10CHTO   C67 3990   3.715   7.896   2.896 -0.0434 -1.0503 -0.1054
   10CHTO  H124 3991   3.664   7.980   2.942  0.9126  0.0805 -1.0603
   10CHTO   C65 3992   3.820   7.846   2.995 -0.1014 -0.1624  0.7496
   10CHTO  H122 3993   3.775   7.769   3.057 -1.3215  0.7871  1.0620
   10CHTO   O44 3994   3.860   7.955   3.083 -0.2041  0.3572  0.2756
   10CHTO  H102 3995   3.779   7.987   3.118  0.3588  2.8893 -0.6255
   10CHTO   C63 3996   3.935   7.766   2.919  0.3124  0.3192  0.4899
   10CHTO  H120 3997   3.898   7.674   2.874 -0.5027  0.5314  0.7245
   10CHTO   N11 3998   4.038   7.701   3.011  0.0826 -0.2289  0.0504
   10CHTO  H108 3999   4.100   7.642   2.946  1.8559  0.9323  0.6721
   10CHTO  H109 4000   4.000   7.627   3.079  3.0947  0.5747  2.7395
   10CHTO   C61 4001   4.007   7.858   2.812  0.2787  0.2377 -0.0238
   10CHTO  H118 4002   4.071   7.797   2.747  0.8383  1.7680 -0.9556
   10CHTO   O40 4003   3.906   7.913   2.723 -0.0134 -0.0759  0.2216
   10CHTO   C68 4004   3.777   7.963   2.761 -0.2194  0.2029  0.2100
   10CHTO  H125 4005   3.710   7.946   2.675 -1.6134 -0.2192  1.3590
   10CHTO   C72 4006   3.793   8.112   2.776  0.2917 -0.7171  0.4818
   10CHTO   O48 4007   3.885   8.155   2.875 -0.5534  0.5217  0.5105
   10CHTO  H105 4008   3.848   8.209   2.942 -0.9128  2.2930 -1.0755
   10CHTO   O38 4009   4.078   7.969   2.868  0.0803 -0.1260 -0.4826
   10CHTO   C55 4010   4.215   7.992   2.833 -0.8478 -0.1245  0.3041
   10CHTO  H112 4011   4.254   7.898   2.793 -1.8309 -0.5450  0.3167
   10CHTO   C56 4012   4.291   8.033   2.962  0.0421 -0.5931 -0.6136
   10CHTO  H113 4013   4.218   8.071   3.035  0.3418  0.1691 -0.7081
   10CHTO   O42 4014   4.336   7.914   3.027  0.7116 -0.2294 -0.5981
   10CHTO  H100 4015   4.262   7.875   3.070  1.3305 -0.2614  0.4485
   10CHTO   C57 4016   4.408   8.137   2.940 -0.4100  0.2372  0.3694
   10CHTO  H114 4017   4.492   8.077   2.904 -0.6331 -1.2608  2.2498
   10CHTO   N10 4018   4.448   8.205   3.065 -0.6283 -0.1555  0.6304
   10CHTO  H106 4019   4.555   8.208   3.054 -0.7254 -0.8257 -0.5209
   10CHTO  H107 4020   4.411   8.306   3.073  1.2568  0.7574 -1.6133
   10CHTO   C58 4021   4.372   8.242   2.833  0.0630 -0.3439 -0.5518
   10CHTO  H115 4022   4.291   8.310   2.867  0.3786 -0.0867 -0.3088
   10CHTO   O37 4023   4.333   8.174   2.714 -0.2523 -0.2319  0.0037
   10CHTO   C59 4024   4.212   8.101   2.717 -0.0237  0.5459 -0.3283
   10CHTO  H116 4025   4.132   8.172   2.737  0.5128  0.9398  0.4312
   10CHTO   C70 4026   4.188   8.049   2.577 -0.0736 -0.0752 -0.3246
   10CHTO   O46 4027   4.272   7.948   2.525  0.6508  0.5083  0.1043
   10CHTO  H103 4028   4.300   7.957   2.435  0.1965 -2.7792 -0.4325
   10CHTO   O39 4029   4.492   8.335   2.793 -0.4198 -0.3924 -0.1476
   10CHTO   C60 4030   4.456   8.446   2.708  0.9005  0.3522 -0.4157
   10CHTO  H117 4031   4.353   8.426   2.681  0.2011  0.1625  2.2279
   10CHTO   C62 4032   4.451   8.575   2.788  0.1592 -0.3618  0.7280
   10CHTO  H119 4033   4.369   8.557   2.861 -0.3768  0.0098  0.2204
   10CHTO   O43 4034   4.582   8.606   2.849 -0.2885 -0.5364 -0.2899
   10CHTO  H101 4035   4.639   8.531   2.850 -1.0128 -1.0859 -0.3902
   10CHTO   C66 4036   4.412   8.692   2.687 -0.2597 -0.4734 -0.4325
   10CHTO  H123 4037   4.313   8.666   2.650  0.0002 -1.1837 -0.6465
   10CHTO   N12 4038   4.402   8.818   2.766  0.4025 -1.0299 -0.0293
   10CHTO  H110 4039   4.328   8.817   2.846 -0.9773  0.5468 -1.2456
   10CHTO  H111 4040   4.500   8.842   2.804 -0.2776 -0.5257  1.4761
   10CHTO   C69 4041   4.518   8.707   2.568  0.0563  0.1941 -0.1802
   10CHTO  H126 4042   4.622   8.722   2.606 -0.1249  2.7124 -0.5765
   10CHTO   O41 4043   4.503   8.578   2.497 -0.1639 -0.5194 -0.3381
   10CHTO   C64 4044   4.533   8.460   2.577  0.3770  0.2794  0.1568
   10CHTO  H121 4045   4.642   8.453   2.600  0.2902 -1.7658  0.0864
   10CHTO   C71 4046   4.510   8.343   2.475 -0.9205 -0.2040 -0.2139
   10CHTO   O47 4047   4.375   8.324   2.442  0.1218  0.1519 -0.2472
   10CHTO  H104 4048   4.338   8.273   2.511  0.5733 -0.7976 -0.6945
   10CHTO   O34 4049   4.493   8.828   2.473 -0.0177  0.1096  0.1223
   10CHTO   C49 4050   4.414   8.919   2.371  0.4200  0.0338 -0.2449
   10CHTO   H91 4051   4.383   8.999   2.438  0.4002 -0.4795  0.3725
   10CHTO   C47 4052   4.283   8.851   2.308 -0.2217 -0.3624  0.4991
   10CHTO   H89 4053   4.209   8.835   2.389  0.7801 -3.0144  0.9413
   10CHTO   O33 4054   4.316   8.725   2.243  0.1881  0.0388 -0.0238
   10CHTO   H70 4055   4.247   8.664   2.228 -1.3064  1.2652  1.5716
   10CHTO   C45 4056   4.225   8.955   2.199 -0.1396  0.7782  0.7151
   10CHTO   H87 4057   4.236   8.898   2.106  1.6579  0.7774  0.9135
   10CHTO    N8 4058   4.077   8.979   2.222 -0.5489  0.0581 -0.3912
   10CHTO   H75 4059   4.036   9.036   2.140  0.7086  0.3555 -0.8178
   10CHTO   H76 4060   4.048   9.021   2.317  0.0076 -1.3111  0.3985
   10CHTO   C43 4061   4.305   9.087   2.178  0.2150  0.1266 -0.0885
   10CHTO   H85 4062   4.264   9.138   2.090 -0.4286  0.2249  0.2609
   10CHTO   O29 4063   4.445   9.054   2.161 -0.3034 -1.3503 -0.7569
   10CHTO   C50 4064   4.504   8.972   2.267 -0.4180  0.6769  0.2554
   10CHTO   H92 4065   4.533   8.882   2.211  0.2687  0.1017  1.5167
   10CHTO   C54 4066   4.630   9.041   2.336  0.1322  0.0652 -0.1628
   10CHTO   O36 4067   4.733   9.081   2.251  0.1993  0.3303  0.0625
   10CHTO   H72 4068   4.790   9.010   2.227 -1.0966 -0.9152  0.6100
   10CHTO   O27 4069   4.304   9.185   2.290 -0.5731  0.1662  0.5582
   10CHTO   C37 4070   4.340   9.320   2.310 -0.0987 -0.7304 -0.0349
   10CHTO   H79 4071   4.442   9.344   2.275 -0.3091  1.1233  0.5233
   10CHTO   C38 4072   4.258   9.419   2.228  0.3851 -0.8629  0.3017
   10CHTO   H80 4073   4.151   9.413   2.252  0.2251  1.7370  0.4768
   10CHTO   O31 4074   4.281   9.388   2.088  0.2688  0.1626  0.0186
   10CHTO   H68 4075   4.244   9.448   2.027  1.8470  0.4696 -0.6767
   10CHTO   C39 4076   4.309   9.571   2.260 -0.3642 -0.9268 -0.1306
   10CHTO   H81 4077   4.399   9.587   2.201 -1.6633  0.5978 -1.7133
   10CHTO    N7 4078   4.203   9.674   2.221  0.4597  0.1572 -0.4135
   10CHTO   H73 4079   4.237   9.770   2.255 -1.2912  0.5694  0.1970
   10CHTO   H74 4080   4.181   9.689   2.116  2.0589 -0.9129 -0.9309
   10CHTO   C40 4081   4.334   9.600   2.420 -0.3210 -0.1019  0.0390
   10CHTO   H82 4082   4.243   9.632   2.471 -2.3875 -2.0202 -2.2918
   10CHTO   O26 4083   4.394   9.483   2.484  0.0517  0.1153  0.0297
   10CHTO   C41 4084   4.338   9.350   2.461 -0.5954 -0.9560  0.2766
   10CHTO   H83 4085   4.237   9.333   2.500 -0.4553 -3.4563 -0.3237
   10CHTO   C52 4086   4.413   9.251   2.550 -0.2085  0.0821 -0.1617
   10CHTO   O35 4087   4.383   9.261   2.684  0.0660  0.1409  0.3801
   10CHTO   H71 4088   4.447   9.316   2.726  0.3732  0.5089 -0.5354
   10CHTO   O28 4089   4.432   9.706   2.433  0.2145  0.1418  0.1186
   10CHTO   C42 4090   4.429   9.828   2.511  0.2431  0.3892  0.3241
   10CHTO   H84 4091   4.410   9.803   2.615  0.1757  0.0703  0.2353
   10CHTO   C44 4092   4.323   9.936   2.473  0.2335 -0.2287 -0.2354
   10CHTO   H86 4093   4.293   9.937   2.368 -1.6148  3.0747  0.2474
   10CHTO   O32 4094   4.202   9.888   2.539 -0.7795  0.9876  0.3558
   10CHTO   H69 4095   4.143   9.861   2.472 -1.6513  1.0037  1.1111
   10CHTO   C48 4096   4.354  10.082   2.500 -0.6329 -0.6693  0.3538
   10CHTO   H90 4097   4.338  10.093   2.607 -0.7771 -1.0470  0.3706
   10CHTO    N9 4098   4.263  10.186   2.448  0.8112  0.1760  0.2949
   10CHTO   H77 4099   4.164  10.152   2.419  0.7826  1.4290 -1.1720
   10CHTO   H78 4100   4.249  10.262   2.523 -1.1106 -0.7832  0.9385
   10CHTO   C51 4101   4.508  10.118   2.476 -0.4918  0.1240 -0.0146
   10CHTO   H93 4102   4.537  10.100   2.373  2.2096  0.1867  0.7020
   10CHTO   O30 4103   4.585  10.036   2.574  0.1001  0.1830 -0.2294
   10CHTO   C46 4104   4.572   9.883   2.513 -0.9761  0.5229  0.2280
   10CHTO   H88 4105   4.612   9.887   2.412  1.3068  1.3506  1.1120
   10CHTO   C53 4106   4.666   9.784   2.593 -0.0979 -0.0987  0.2136
   10CHTO   O72 4107   4.796   9.839   2.600 -0.0917 -0.0724  0.5539
   10CHTO  H199 4108   4.818   9.839   2.691  0.3961  2.8575  0.4773
   10CHTO   O22 4109   4.544  10.248   2.512 -0.5928 -0.2139  0.1512
   10CHTO   C31 4110   4.671  10.305   2.467  0.3375 -0.3279  0.7319
   10CHTO   H59 4111   4.683  10.394   2.532 -1.8387  0.0828  0.6142
   10CHTO   C29 4112   4.798  10.218   2.485  0.8375  0.7340  0.9074
   10CHTO   H57 4113   4.785  10.127   2.426  1.2122 -0.4953  2.6794
   10CHTO   O21 4114   4.807  10.190   2.627 -0.4540 -0.4005  0.6829
   10CHTO   H37 4115   4.737  10.134   2.654 -2.6926  1.7419 -0.4547
   10CHTO   C27 4116   4.927  10.289   2.426 -0.1904 -0.2189 -0.2036
   10CHTO   H55 4117   4.939  10.386   2.477  0.7989 -0.0258 -0.7828
   10CHTO    N5 4118   5.051  10.205   2.450 -0.0997 -0.5342  0.5948
   10CHTO   H43 4119   5.083  10.171   2.353  0.3397 -2.3126  1.3486
   10CHTO   H44 4120   5.137  10.259   2.485 -1.0540  0.2617  1.7639
   10CHTO   C25 4121   4.899  10.322   2.275  0.1852 -0.2237 -0.4948
   10CHTO   H53 4122   4.877  10.225   2.230  1.2094 -0.9377  0.5107
   10CHTO   O17 4123   4.794  10.416   2.274  0.4393  0.6656 -0.5642
   10CHTO   C32 4124   4.670  10.360   2.318 -0.0766  0.2187 -0.0122
   10CHTO   H60 4125   4.639  10.277   2.254 -0.6878  0.5593 -0.1578
   10CHTO   C36 4126   4.549  10.467   2.305  0.4372 -0.0387  0.4449
   10CHTO   O25 4127   4.495  10.454   2.174  0.5827  0.1986  0.0796
   10CHTO   H40 4128   4.512  10.535   2.129 -1.5305 -0.4699 -2.0207
   10CHTO   O15 4129   5.036  10.379   2.209 -0.3349  0.6322  0.2145
   10CHTO   C19 4130   5.083  10.446   2.088 -0.3373  0.2371 -0.0452
   10CHTO   H47 4131   5.034  10.383   2.012  0.9797 -4.3152  2.6778
   10CHTO   C20 4132   5.030  10.595   2.058  0.2325  0.0898  0.1058
   10CHTO   H48 4133   5.058  10.665   2.138  0.7765 -0.5903  0.5247
   10CHTO   O19 4134   4.887  10.592   2.042  0.2687 -0.0108 -0.3313
   10CHTO   H35 4135   4.846  10.662   2.090 -2.5622 -0.8460 -1.3960
   10CHTO   C21 4136   5.094  10.651   1.921  0.4019 -0.1385 -0.1291
   10CHTO   H49 4137   5.047  10.595   1.840  1.9207 -0.6740 -0.6703
   10CHTO    N4 4138   5.057  10.799   1.901  0.1818 -0.2532  1.0677
   10CHTO   H41 4139   4.952  10.812   1.884  0.4087  1.6702  1.0502
   10CHTO   H42 4140   5.108  10.844   1.817  0.1265 -2.5401 -0.2231
   10CHTO   C22 4141   5.244  10.623   1.928  0.1953  0.1662 -0.1345
   10CHTO   H50 4142   5.283  10.670   2.018  1.3224  2.4011 -1.7492
   10CHTO   O14 4143   5.266  10.481   1.933  0.1109 -0.7403 -0.5049
   10CHTO   C23 4144   5.238  10.432   2.062  0.6725 -0.0163  0.4740
   10CHTO   H51 4145   5.298  10.482   2.140  1.6545  1.7583 -1.3972
   10CHTO   C34 4146   5.293  10.290   2.057 -0.2787  0.3439 -0.0773
   10CHTO   O23 4147   5.208  10.197   1.998  0.0232 -0.1432 -0.3602
   10CHTO   H38 4148   5.230  10.111   2.030  0.3490  0.6323  1.5556
   10CHTO   O16 4149   5.321  10.664   1.817  0.4273 -0.4216  0.0585
   10CHTO   C24 4150   5.479  10.640   1.836  0.0912 -0.2656 -0.2066
   10CHTO   H52 4151   5.500  10.566   1.914 -1.4500  0.6350  1.1001
   10CHTO   C26 4152   5.542  10.782   1.856 -0.5713 -0.4865  0.0823
   10CHTO   H54 4153   5.501  10.857   1.784  0.4207 -0.6393 -0.6485
   10CHTO   O20 4154   5.488  10.822   1.985 -0.2362  0.2226  0.1838
   10CHTO   H36 4155   5.417  10.881   1.976 -0.3283  0.2437  1.0657
   10CHTO   C30 4156   5.698  10.785   1.856 -0.3708 -0.1675  0.9071
   10CHTO   H58 4157   5.742  10.743   1.948  1.1360  1.9790  1.2030
   10CHTO    N6 4158   5.744  10.922   1.843  0.0811  0.1703 -0.3156
   10CHTO   H45 4159   5.740  10.965   1.745 -1.4422 -1.9156 -1.1954
   10CHTO   H46 4160   5.683  10.982   1.909  1.7354  0.6161  0.8452
   10CHTO   C33 4161   5.742  10.689   1.739 -0.5227 -0.2886 -0.0232
   10CHTO   H61 4162   5.732  10.744   1.644  0.4436  1.3377  0.7892
   10CHTO   O18 4163   5.673  10.563   1.729 -0.2876  0.1633  0.7948
   10CHTO   C28 4164   5.536  10.580   1.709  0.8255 -0.6984 -0.4838
   10CHTO   H56 4165   5.516  10.645   1.623 -0.5188 -1.5198 -0.8197
   10CHTO   C35 4166   5.478  10.439   1.672 -0.3192 -0.4581 -0.1459
   10CHTO   O24 4167   5.553  10.386   1.566 -0.0357  0.0126 -0.2522
   10CHTO   H39 4168   5.496  10.377   1.492 -0.7138 -1.2609  0.4113
   10CHTO    O9 4169   5.883  10.668   1.764  0.2753  0.3273 -0.2639
   10CHTO   C13 4170   5.961  10.615   1.625  0.3113 -0.6720 -0.0098
   10CHTO   H26 4171   5.927  10.681   1.543  0.8262  0.8180  0.9512
   10CHTO   C11 4172   5.909  10.463   1.603 -0.0234 -0.3933 -0.1758
   10CHTO   H24 4173   5.809  10.466   1.558  0.2944  2.8928 -0.8320
   10CHTO    O8 4174   5.900  10.388   1.725  0.5094  0.7879  0.2380
   10CHTO    H3 4175   5.890  10.297   1.707  1.2075  0.8555 -0.5306
   10CHTO    C9 4176   6.002  10.390   1.502  0.5084 -0.0907  0.5124
   10CHTO   H22 4177   5.999  10.451   1.411 -0.7637 -1.0716 -0.1214
   10CHTO    N2 4178   5.966  10.256   1.456 -0.1424  0.1635 -0.1686
   10CHTO   H10 4179   5.995  10.185   1.532  0.6061  1.6412  0.9487
   10CHTO   H11 4180   6.020  10.247   1.363  1.6696 -1.3797  1.0216
   10CHTO    C7 4181   6.151  10.401   1.553 -0.2973  0.6141  0.1852
   10CHTO   H20 4182   6.212  10.345   1.479 -1.4215  1.7565 -1.6466
   10CHTO    O4 4183   6.196  10.539   1.558  0.3321  0.0260 -0.0254
   10CHTO   C14 4184   6.121  10.633   1.631 -0.3912 -0.0380  0.6876
   10CHTO   H27 4185   6.143  10.730   1.582 -0.0916 -0.6812 -0.4831
   10CHTO   C18 4186   6.178  10.635   1.769  0.5475 -0.1479  0.2941
   10CHTO   O13 4187   6.139  10.756   1.836 -0.3020  0.3371  0.1753
   10CHTO    H7 4188   6.215  10.812   1.840  0.1743 -0.3237  0.7194
   10CHTO    O2 4189   6.172  10.333   1.703  0.9675 -0.6310 -0.4069
   10CHTO    C1 4190   6.293  10.248   1.708  0.2007 -0.4107 -0.2696
   10CHTO   H14 4191   6.313  10.226   1.815 -2.5359 -0.3980  0.2736
   10CHTO    C2 4192   6.422  10.311   1.649  0.1120 -0.7201 -0.5987
   10CHTO   H15 4193   6.395  10.309   1.543  0.3259 -1.4927 -0.6417
   10CHTO    O6 4194   6.441  10.431   1.724 -0.0815  0.0532 -0.5446
   10CHTO    H1 4195   6.462  10.420   1.815 -2.2683 -0.6725 -0.1143
   10CHTO    C3 4196   6.552  10.215   1.669 -0.3157 -0.3652 -0.2971
   10CHTO   H16 4197   6.562  10.199   1.777  1.7480  3.7802  0.2450
   10CHTO    N1 4198   6.675  10.281   1.605  0.1983 -0.3106  0.5265
   10CHTO    H8 4199   6.646  10.318   1.508  0.1681 -1.1508  0.2070
   10CHTO    H9 4200   6.751  10.208   1.585 -1.0097 -1.4805  0.0800
   10CHTO    C4 4201   6.510  10.079   1.613  0.0145  0.5376  0.6303
   10CHTO   H17 4202   6.492  10.092   1.506  2.6372  1.7298  0.3050
   10CHTO    O1 4203   6.390  10.034   1.672  0.5687  0.7773 -0.2509
   10CHTO    C5 4204   6.276  10.113   1.645 -0.0853  0.4831  0.2631
   10CHTO   H18 4205   6.256  10.137   1.541 -0.6497  2.5100  0.8131
   10CHTO   C16 4206   6.156  10.033   1.698 -0.1868  0.1651 -0.8180
   10CHTO   O11 4207   6.164   9.992   1.836  0.3285  0.2382 -0.4484
   10CHTO    H5 4208   6.184  10.068   1.887 -1.4829  1.3912 -1.3826
   10CHTO    O3 4209   6.613   9.985   1.640 -0.6392 -0.3588 -0.3199
   10CHTO    C6 4210   6.621   9.862   1.553  0.1541 -0.1001 -0.2630
   10CHTO   H19 4211   6.518   9.839   1.525  0.5523  0.4691 -2.2453
   10CHTO    C8 4212   6.714   9.885   1.433 -0.6085  0.1519  0.4920
   10CHTO   H21 4213   6.803   9.934   1.473 -0.0948  0.4623 -0.9925
   10CHTO    O7 4214   6.630   9.961   1.340  0.1058 -0.2041  0.1859
   10CHTO    H2 4215   6.686  10.005   1.279 -1.1644  0.4561 -0.5119
   10CHTO   C12 4216   6.748   9.745   1.367  0.2409  0.6389  0.1873
   10CHTO   H25 4217   6.648   9.710   1.332 -0.7426  1.9368  1.6493
   10CHTO    N3 4218   6.835   9.750   1.249 -0.3532  0.3190 -0.4059
   10CHTO   H12 4219   6.763   9.785   1.176  0.6999  1.2631 -1.0075
   10CHTO   H13 4220   6.853   9.646   1.227  1.7315  0.5303  0.2607
   10CHTO   C15 4221   6.800   9.645   1.472  0.0945 -0.3797 -0.1630
   10CHTO   H28 4222   6.891   9.685   1.518 -0.2902  0.1181  0.1658
   10CHTO   O10 4223   6.833   9.507   1.416 -0.2225 -0.7588 -0.6709
   10CHTO    H4 4224   6.833   9.499   1.322 -1.2946  0.3286 -0.7713
   10CHTO    O5 4225   6.704   9.620   1.577  0.5010 -0.2026 -0.5112
   10CHTO   C10 4226   6.667   9.744   1.646  0.3322  0.1513 -0.2938
   10CHTO   H23 4227   6.749   9.789   1.702  1.3957  0.4649 -2.0722
   10CHTO   C17 4228   6.551   9.697   1.736  0.7822 -0.0379 -0.5169
   10CHTO   O12 4229   6.512   9.802   1.829  0.2572 -0.1879 -0.8719
   10CHTO    H6 4230   6.421   9.804   1.852  0.4357 -0.4218 -0.1420
   11CHTO  H203 4231   5.972   5.181   1.500 -3.5873 -1.1990  2.0898
   11CHTO   O82 4232   5.931   5.263   1.484 -0.2713  0.2164  0.4348
   11CHTO  C123 4233   5.885   5.312   1.611  0.1061 -0.2905  0.3050
   11CHTO  H227 4234   5.920   5.241   1.688 -0.4992 -0.3298  0.5423
   11CHTO   O77 4235   5.954   5.438   1.613 -0.4276 -0.2035 -0.1294
   11CHTO  C118 4236   5.929   5.512   1.737  0.4051  0.7051  0.4465
   11CHTO  H222 4237   5.971   5.451   1.818 -2.7825 -0.4064  1.3536
   11CHTO  C125 4238   5.999   5.660   1.731 -0.0671  0.6494  0.0405
   11CHTO   O84 4239   6.140   5.646   1.699  0.8483  0.3109  0.4696
   11CHTO  H205 4240   6.163   5.706   1.630  4.2492 -1.7809 -0.3334
   11CHTO  C114 4241   5.773   5.536   1.761 -0.5415  0.7705 -0.3697
   11CHTO  H218 4242   5.741   5.605   1.684  1.0741  1.8335 -0.1109
   11CHTO  C116 4243   5.701   5.399   1.767 -0.8172 -0.3684  0.2716
   11CHTO  H220 4244   5.740   5.334   1.849 -2.5804 -2.8040 -0.7605
   11CHTO   O79 4245   5.561   5.428   1.790  0.2615  0.7685 -0.1259
   11CHTO  H201 4246   5.537   5.442   1.879  0.9878  0.6221  0.0955
   11CHTO  C120 4247   5.728   5.326   1.632  0.0443 -0.4931 -0.4956
   11CHTO  H224 4248   5.691   5.397   1.555  1.9252  0.1566 -0.8256
   11CHTO   N21 4249   5.655   5.200   1.617 -0.1036 -0.6225  0.1787
   11CHTO  H211 4250   5.558   5.209   1.662 -0.4399 -1.1296 -0.4417
   11CHTO  H212 4251   5.638   5.182   1.512 -1.3684  0.3108  0.2210
   11CHTO   O75 4252   5.769   5.608   1.884 -0.0641  0.1723 -0.0119
   11CHTO  C112 4253   5.643   5.707   1.920  0.6497  0.4026 -0.0779
   11CHTO  H216 4254   5.586   5.670   2.006 -1.3927  1.4045 -0.9606
   11CHTO   O73 4255   5.560   5.715   1.806  0.6754 -0.3655  0.3851
   11CHTO  C113 4256   5.454   5.813   1.803 -0.1277  0.6316 -0.3173
   11CHTO  H217 4257   5.368   5.788   1.869  0.1324 -0.4748 -0.3955
   11CHTO  C124 4258   5.397   5.790   1.658 -0.1466  0.1951 -0.2315
   11CHTO   O83 4259   5.320   5.665   1.649 -0.4369 -0.3796  0.0027
   11CHTO  H204 4260   5.280   5.649   1.733  2.7803  0.1865  1.7080
   11CHTO  C109 4261   5.500   5.959   1.832 -0.6903  0.2139  0.5140
   11CHTO  H213 4262   5.562   5.988   1.746  0.4139 -1.4364  0.7245
   11CHTO  C110 4263   5.577   5.954   1.972 -0.9883 -0.5490 -0.9008
   11CHTO  H214 4264   5.501   5.938   2.048 -3.3485  0.4111 -3.0093
   11CHTO   O78 4265   5.609   6.093   2.005 -0.0967 -0.0790  0.0023
   11CHTO  H200 4266   5.701   6.106   2.017  0.0139 -2.1396  1.6101
   11CHTO  C111 4267   5.695   5.855   1.966  0.0105 -0.3779  0.1422
   11CHTO  H215 4268   5.768   5.889   1.891  0.1442 -1.9174 -0.4510
   11CHTO   N19 4269   5.763   5.842   2.093 -0.3798  0.8657 -0.3293
   11CHTO  H207 4270   5.788   5.930   2.151  0.6086  1.4719 -1.6507
   11CHTO  H208 4271   5.718   5.769   2.158 -0.6327 -0.2902 -1.7827
   11CHTO   O74 4272   5.381   6.048   1.837  0.1764 -0.6452 -0.5581
   11CHTO  C115 4273   5.341   6.134   1.699 -0.0879 -0.0285 -0.2453
   11CHTO  H219 4274   5.410   6.111   1.617  1.1799 -2.1706  1.3729
   11CHTO   O76 4275   5.205   6.093   1.653  0.0545 -0.1052  0.6354
   11CHTO  C122 4276   5.106   6.101   1.755 -0.3679  0.0171  0.3990
   11CHTO  H226 4277   5.106   6.010   1.815  1.6546 -0.0268  0.3796
   11CHTO  C126 4278   4.974   6.116   1.677 -0.7313  0.6223  0.2258
   11CHTO   O85 4279   4.962   6.226   1.593  0.3297 -0.0418  0.2384
   11CHTO  H206 4280   4.883   6.222   1.542 -0.4434  2.4325  1.1466
   11CHTO  C121 4281   5.122   6.232   1.852  0.2688 -0.2819  0.4301
   11CHTO  H225 4282   5.021   6.274   1.872  0.6959  1.5982 -1.1717
   11CHTO   O81 4283   5.176   6.200   1.974  0.9528  0.4231  0.0375
   11CHTO  H202 4284   5.258   6.155   1.965  1.3019  0.9932  0.3068
   11CHTO  C119 4285   5.207   6.343   1.782 -0.6317  0.4045 -0.5296
   11CHTO  H223 4286   5.149   6.359   1.691  1.4749  0.3181 -1.9136
   11CHTO  C117 4287   5.349   6.292   1.734  0.6772  0.3309  0.0748
   11CHTO  H221 4288   5.435   6.302   1.801 -0.4530  2.4766  1.2593
   11CHTO   N20 4289   5.395   6.380   1.617  0.6037 -0.2849 -0.0856
   11CHTO  H209 4290   5.307   6.416   1.565  1.2442  0.2135 -0.8268
   11CHTO  H210 4291   5.463   6.453   1.658 -0.1533  0.0328  0.6257
   11CHTO   O80 4292   5.195   6.491   1.854  0.3966  0.1960 -0.7201
   11CHTO  C103 4293   5.268   6.521   1.996 -0.4829  0.5938  0.3978
   11CHTO  H190 4294   5.292   6.432   2.054 -0.3378 -0.3591 -1.1048
   11CHTO  C101 4295   5.416   6.585   1.984  0.2631 -0.1667 -0.2147
   11CHTO  H188 4296   5.411   6.644   1.892 -0.9644  3.0671  1.8543
   11CHTO   O68 4297   5.514   6.481   1.958  0.3330  0.5990  0.8161
   11CHTO  H168 4298   5.597   6.504   1.995 -0.1345  3.5765  0.1107
   11CHTO   C99 4299   5.454   6.681   2.110 -0.5577 -0.6341  0.2902
   11CHTO  H186 4300   5.490   6.619   2.194 -0.2982 -1.5382 -0.4752
   11CHTO   N17 4301   5.567   6.779   2.080 -0.2411 -0.3979  0.1552
   11CHTO  H174 4302   5.649   6.743   2.019  2.3526  0.1237  3.2179
   11CHTO  H175 4303   5.527   6.874   2.047  0.7920  0.0010  0.0154
   11CHTO   C97 4304   5.329   6.750   2.169 -0.6276 -0.1038  0.2355
   11CHTO  H184 4305   5.297   6.829   2.099  0.7884 -0.7594 -1.1760
   11CHTO   O64 4306   5.223   6.656   2.198  0.1209  0.2547 -0.6709
   11CHTO  C104 4307   5.160   6.602   2.083 -0.6449  0.3730  0.4686
   11CHTO  H191 4308   5.109   6.672   2.016 -0.2841  0.3393  0.1598
   11CHTO  C108 4309   5.050   6.503   2.134 -0.2556 -0.0620 -0.3619
   11CHTO   O71 4310   4.958   6.580   2.215  0.4554 -1.0414 -0.1155
   11CHTO  H171 4311   4.902   6.524   2.265  0.1793  0.1450  0.9168
   11CHTO   O62 4312   5.361   6.805   2.294 -0.0549 -0.3303 -0.1190
   11CHTO   C91 4313   5.256   6.867   2.371  0.0183  0.8207  0.8407
   11CHTO  H178 4314   5.154   6.832   2.349  0.6177 -0.6026  0.2288
   11CHTO   C92 4315   5.243   7.019   2.324 -0.3834 -0.0765 -1.1043
   11CHTO  H179 4316   5.226   7.032   2.216  0.4749  1.1314 -1.1048
   11CHTO   O66 4317   5.131   7.072   2.403 -0.4342  0.6169  0.0100
   11CHTO  H166 4318   5.111   7.163   2.390 -1.4804  0.7107  2.0511
   11CHTO   C93 4319   5.375   7.097   2.368 -0.4058  0.4686 -0.1860
   11CHTO  H180 4320   5.334   7.193   2.403 -0.0704  0.2785  0.7309
   11CHTO   N16 4321   5.467   7.141   2.263  0.0344  0.6370 -0.3304
   11CHTO  H172 4322   5.547   7.195   2.311  0.3485  0.6465 -0.8655
   11CHTO  H173 4323   5.432   7.188   2.172  0.6013 -0.7009 -1.2522
   11CHTO   C94 4324   5.456   7.029   2.494  0.0328  0.2866 -0.3240
   11CHTO  H181 4325   5.531   6.958   2.462  0.6883  0.8811 -0.1087
   11CHTO   O61 4326   5.360   6.957   2.573  0.2781 -0.1188 -0.5822
   11CHTO   C95 4327   5.281   6.844   2.525  0.4248 -0.5712  0.0353
   11CHTO  H182 4328   5.337   6.751   2.534 -0.9821 -1.4627 -0.2976
   11CHTO  C106 4329   5.153   6.837   2.614  0.1618 -0.1208  0.0697
   11CHTO   O69 4330   5.101   6.703   2.602  0.4583 -0.2010 -0.2722
   11CHTO  H169 4331   5.084   6.660   2.684 -0.4829 -1.3210 -1.0320
   11CHTO   O63 4332   5.531   7.154   2.586 -0.1293 -0.4385  0.1861
   11CHTO   C96 4333   5.668   7.145   2.637 -0.0062 -0.8208  0.1627
   11CHTO  H183 4334   5.726   7.119   2.549 -1.7619 -0.4234 -1.1506
   11CHTO   C98 4335   5.683   7.041   2.745  0.5921  0.3785  0.6019
   11CHTO  H185 4336   5.597   7.041   2.814  0.6379 -1.4918  0.6658
   11CHTO   O67 4337   5.665   6.914   2.685 -0.3751 -0.0629 -0.5338
   11CHTO  H167 4338   5.718   6.850   2.728  0.7159  1.3118  0.2168
   11CHTO  C102 4339   5.819   7.045   2.835  0.5029 -0.1333 -0.4922
   11CHTO  H189 4340   5.894   7.003   2.766  1.0763  0.6507 -0.3532
   11CHTO   N18 4341   5.819   6.965   2.959  0.0818  0.2671  0.5749
   11CHTO  H176 4342   5.879   6.877   2.946 -0.1097  0.3480 -0.9548
   11CHTO  H177 4343   5.857   7.020   3.044  4.1487  0.7978 -1.4793
   11CHTO  C105 4344   5.859   7.193   2.856  0.4625 -0.1475 -0.7257
   11CHTO  H192 4345   5.799   7.237   2.936  0.1090  0.8319 -1.5160
   11CHTO   O65 4346   5.850   7.271   2.738 -0.1148 -0.3740  0.3157
   11CHTO  C100 4347   5.719   7.287   2.694  0.0818 -0.1132  0.6054
   11CHTO  H187 4348   5.659   7.339   2.771  1.5920  1.0539  1.0323
   11CHTO  C107 4349   5.720   7.389   2.570 -0.2016 -0.4448  0.6035
   11CHTO   O70 4350   5.591   7.423   2.521  0.3054 -0.4096  0.0283
   11CHTO  H170 4351   5.595   7.428   2.428  1.3870 -1.1292  0.0255
   11CHTO   O57 4352   6.022   7.195   2.890  0.3545  0.1400 -0.8056
   11CHTO   C85 4353   6.075   7.314   2.957 -0.1330 -0.5619  0.7970
   11CHTO  H157 4354   5.990   7.386   2.962  1.1337  1.0772 -0.5454
   11CHTO   C83 4355   6.183   7.382   2.865 -0.5631 -0.7855 -0.7256
   11CHTO  H155 4356   6.134   7.416   2.773 -0.2525 -2.4594 -1.5360
   11CHTO   O56 4357   6.274   7.284   2.825  0.2024 -0.0525 -0.0216
   11CHTO  H135 4358   6.225   7.205   2.818  0.3089  0.0635 -2.8400
   11CHTO   C81 4359   6.237   7.507   2.939  0.4324  0.1757 -0.1474
   11CHTO  H153 4360   6.156   7.576   2.960 -0.5075 -0.6317 -1.0984
   11CHTO   N14 4361   6.325   7.592   2.852  0.5207  0.2816  0.1581
   11CHTO  H141 4362   6.428   7.587   2.877  0.8748 -0.1096 -1.2977
   11CHTO  H142 4363   6.297   7.694   2.836  1.2790  0.4247 -0.2505
   11CHTO   C79 4364   6.304   7.462   3.078 -0.3885  0.6760 -0.7192
   11CHTO  H151 4365   6.326   7.555   3.130 -1.3657  0.5445 -0.0416
   11CHTO   O52 4366   6.195   7.397   3.157  0.0030  0.1510 -0.1472
   11CHTO   C86 4367   6.138   7.280   3.095  0.2514 -0.2755 -0.3286
   11CHTO  H158 4368   6.223   7.209   3.095 -1.8226 -2.8569 -2.9659
   11CHTO   C90 4369   6.031   7.213   3.188  1.2067  0.1049 -0.2440
   11CHTO   O60 4370   5.917   7.297   3.207  0.3188 -0.0562 -0.4508
   11CHTO  H138 4371   5.916   7.373   3.153  1.7075  1.3459  1.4218
   11CHTO   O50 4372   6.417   7.380   3.074  0.0721 -0.1076 -0.5561
   11CHTO   C73 4373   6.498   7.312   3.167  0.5602 -0.9412 -0.2255
   11CHTO  H145 4374   6.432   7.259   3.238 -0.1144 -0.5642 -0.5696
   11CHTO   C74 4375   6.602   7.408   3.232 -0.6753 -0.1739  0.3690
   11CHTO  H146 4376   6.543   7.475   3.295 -0.7840  0.5517 -0.4835
   11CHTO   O54 4377   6.677   7.335   3.324  0.0291 -0.0779  0.2772
   11CHTO  H133 4378   6.620   7.290   3.384 -0.2676 -0.7524 -0.4966
   11CHTO   C75 4379   6.684   7.480   3.129  0.9532  0.3211  0.2699
   11CHTO  H147 4380   6.615   7.537   3.066 -1.1563 -1.6670  0.7225
   11CHTO   N13 4381   6.767   7.584   3.190 -0.2373 -0.2702 -0.0985
   11CHTO  H139 4382   6.734   7.594   3.292 -0.8015  0.9095 -0.3894
   11CHTO  H140 4383   6.765   7.673   3.129 -1.3880 -0.0511  0.2478
   11CHTO   C76 4384   6.753   7.378   3.030 -0.1946 -0.7085  0.0723
   11CHTO  H148 4385   6.843   7.335   3.075  0.2168  1.4333  1.3752
   11CHTO   O49 4386   6.662   7.268   2.989  0.0148 -0.2851 -0.0125
   11CHTO   C77 4387   6.587   7.206   3.097  0.7312  0.2072 -0.0935
   11CHTO  H149 4388   6.653   7.163   3.172 -1.2042 -0.4444  1.2767
   11CHTO   C88 4389   6.502   7.091   3.046  0.2825 -1.4809 -0.1055
   11CHTO   O58 4390   6.580   6.987   3.002  0.1071  0.2157  0.4126
   11CHTO  H136 4391   6.564   6.912   3.056 -2.5692  1.1185  0.9870
   11CHTO   O51 4392   6.789   7.454   2.898 -0.4049  0.2439  0.1554
   11CHTO   C78 4393   6.868   7.374   2.794  0.3779 -0.4953 -0.5488
   11CHTO  H150 4394   6.863   7.267   2.823  0.7174  0.4716  3.3437
   11CHTO   C80 4395   7.015   7.419   2.787 -0.6958 -0.3245 -0.2689
   11CHTO  H152 4396   7.011   7.528   2.767  0.0117 -0.7278 -2.7213
   11CHTO   O55 4397   7.060   7.397   2.922 -0.1932  0.2989 -0.1218
   11CHTO  H134 4398   7.074   7.479   2.965 -0.6936  0.0795  0.4507
   11CHTO   C84 4399   7.086   7.341   2.671  0.5035 -0.2741  0.5895
   11CHTO  H156 4400   7.088   7.234   2.693 -0.2966 -0.2658  0.7200
   11CHTO   N15 4401   7.231   7.381   2.655 -0.4150  0.1622 -0.3347
   11CHTO  H143 4402   7.272   7.383   2.754  0.9170 -0.8917 -0.8602
   11CHTO  H144 4403   7.240   7.478   2.611  0.2164 -0.1897 -0.9829
   11CHTO   C87 4404   6.993   7.357   2.535 -0.8654  0.2907 -0.0506
   11CHTO  H159 4405   7.007   7.464   2.520  1.0435  0.1215  0.4350
   11CHTO   O53 4406   6.851   7.323   2.558  0.0620 -0.3168  0.5418
   11CHTO   C82 4407   6.790   7.401   2.661 -0.3010 -0.8549  0.0872
   11CHTO  H154 4408   6.796   7.507   2.636 -1.5474 -1.1581 -1.5094
   11CHTO   C89 4409   6.635   7.355   2.666 -0.2191  0.2786  0.0592
   11CHTO   O59 4410   6.572   7.381   2.537  0.0533  0.4200  0.2430
   11CHTO  H137 4411   6.518   7.458   2.539 -1.1588 -0.4339  1.6075
   11CHTO   O45 4412   7.059   7.269   2.411 -0.1917  0.2182  0.6769
   11CHTO   C67 4413   6.985   7.274   2.289 -0.3473 -0.3239  0.4309
   11CHTO  H124 4414   6.894   7.217   2.306 -0.3706  0.2637  2.3994
   11CHTO   C65 4415   6.952   7.414   2.232 -0.1812 -0.3315 -0.0025
   11CHTO  H122 4416   7.032   7.481   2.264 -0.5155 -0.1376  0.4282
   11CHTO   O44 4417   6.822   7.441   2.291 -0.1837 -0.0573  0.5156
   11CHTO  H102 4418   6.785   7.514   2.245  1.5922 -1.3835 -3.2410
   11CHTO   C63 4419   6.978   7.430   2.075 -0.3141  0.3187 -0.8235
   11CHTO  H120 4420   7.086   7.434   2.063 -0.0381 -0.0642  1.2857
   11CHTO   N11 4421   6.938   7.562   2.027  0.4562  0.2769  0.2701
   11CHTO  H108 4422   7.011   7.606   1.962 -0.9709 -0.0366 -1.5936
   11CHTO  H109 4423   6.894   7.625   2.101  0.1864 -1.4543  1.6199
   11CHTO   C61 4424   6.921   7.303   1.998 -0.0537 -0.4312  0.6241
   11CHTO  H118 4425   6.964   7.311   1.897 -1.2461 -0.6384  0.0949
   11CHTO   O40 4426   6.988   7.188   2.058 -0.0272  0.1076  0.1561
   11CHTO   C68 4427   7.068   7.188   2.181 -0.2188 -0.0205  0.2852
   11CHTO  H125 4428   7.166   7.240   2.174 -1.1125  1.4476 -1.9490
   11CHTO   C72 4429   7.095   7.045   2.239  0.3816  0.3540  0.3653
   11CHTO   O48 4430   7.164   6.954   2.154  0.4437 -0.3116 -0.2200
   11CHTO  H105 4431   7.112   6.922   2.083 -0.9149  0.3830  0.4326
   11CHTO   O38 4432   6.776   7.302   2.003 -0.1885  0.9379  0.2375
   11CHTO   C55 4433   6.714   7.193   1.920 -0.0974  0.5629  0.7174
   11CHTO  H112 4434   6.780   7.105   1.912 -1.5311 -0.3164 -2.3628
   11CHTO   C56 4435   6.689   7.257   1.777 -0.5230  0.2264  0.3117
   11CHTO  H113 4436   6.660   7.361   1.796  1.2378  0.5774  1.1198
   11CHTO   O42 4437   6.811   7.261   1.703  0.0900 -0.0262 -0.0141
   11CHTO  H100 4438   6.811   7.346   1.663 -1.6872 -1.1914 -2.6018
   11CHTO   C57 4439   6.582   7.186   1.682  0.3516  0.2146  0.4054
   11CHTO  H114 4440   6.629   7.106   1.626  0.9606 -1.9630  3.8969
   11CHTO   N10 4441   6.526   7.270   1.573  0.1068 -0.2088 -0.6111
   11CHTO  H106 4442   6.594   7.346   1.536 -1.1711 -0.2001 -2.9942
   11CHTO  H107 4443   6.428   7.314   1.585  0.1965 -0.3119  0.5102
   11CHTO   C58 4444   6.464   7.124   1.764 -0.0227  0.1124  0.2382
   11CHTO  H115 4445   6.390   7.202   1.791 -0.7084  1.0423 -3.8646
   11CHTO   O37 4446   6.510   7.060   1.886  0.1152  0.4661 -0.5375
   11CHTO   C59 4447   6.577   7.147   1.981  0.1233  0.4783 -0.0807
   11CHTO  H116 4448   6.525   7.242   1.995  1.3065  1.2794 -1.0195
   11CHTO   C70 4449   6.603   7.058   2.107  0.0623  0.1494  0.1332
   11CHTO   O46 4450   6.579   7.125   2.232 -0.3632 -0.1113 -0.0737
   11CHTO  H103 4451   6.489   7.122   2.259 -1.1215 -0.3503 -2.4758
   11CHTO   O39 4452   6.389   7.012   1.667 -0.0218 -0.3939 -0.2084
   11CHTO   C60 4453   6.247   7.003   1.674 -0.6819 -0.6264  0.3136
   11CHTO  H117 4454   6.212   7.043   1.769  1.5006  0.3048  0.7706
   11CHTO   C62 4455   6.159   7.087   1.573 -0.0921  0.2613 -0.1233
   11CHTO  H119 4456   6.197   7.190   1.588 -1.7725  0.9834 -0.6826
   11CHTO   O43 4457   6.201   7.062   1.432  0.4466  0.2696 -0.1414
   11CHTO  H101 4458   6.295   7.059   1.424  0.3250 -1.9050 -1.0641
   11CHTO   C66 4459   5.998   7.079   1.607 -0.0115 -0.1822  0.0762
   11CHTO  H123 4460   5.979   7.113   1.709 -1.4014  0.9519 -0.5394
   11CHTO   N12 4461   5.926   7.166   1.503  0.3761  0.4492 -0.5208
   11CHTO  H110 4462   5.837   7.202   1.552  0.8075  0.7943  0.0177
   11CHTO  H111 4463   5.908   7.102   1.418  1.6105 -2.9144  1.6862
   11CHTO   C69 4464   5.961   6.933   1.588  0.4315  0.7188 -0.0070
   11CHTO  H126 4465   5.971   6.906   1.481 -2.0457  0.2938 -0.1550
   11CHTO   O41 4466   6.053   6.833   1.694  0.9451  0.2684 -0.2343
   11CHTO   C64 4467   6.197   6.850   1.669  0.8234 -0.7332 -0.6773
   11CHTO  H121 4468   6.223   6.817   1.566 -1.1987  3.3532 -2.6183
   11CHTO   C71 4469   6.262   6.774   1.785 -0.2766  0.1217  0.3355
   11CHTO   O47 4470   6.249   6.640   1.758  0.0194  0.2755  0.3336
   11CHTO  H104 4471   6.299   6.606   1.687  1.1965 -0.1433  1.3471
   11CHTO   O34 4472   5.819   6.901   1.632 -0.6902  0.0835  0.2810
   11CHTO   C49 4473   5.661   6.898   1.700  0.7537 -0.0877  0.0936
   11CHTO   H91 4474   5.677   6.890   1.808 -1.1346  0.3984  0.4211
   11CHTO   C47 4475   5.582   6.786   1.642  0.5551 -0.0706 -0.8611
   11CHTO   H89 4476   5.483   6.783   1.691 -0.0922 -0.0063 -2.1282
   11CHTO   O33 4477   5.649   6.657   1.653 -0.3722  0.3079 -0.2060
   11CHTO   H70 4478   5.659   6.614   1.570 -1.3016  1.2057 -0.7911
   11CHTO   C45 4479   5.546   6.833   1.489  0.2466 -0.5106 -0.2043
   11CHTO   H87 4480   5.638   6.857   1.434  0.9033 -0.8745  0.7364
   11CHTO    N8 4481   5.477   6.719   1.430 -0.0106 -0.5497  0.5677
   11CHTO   H75 4482   5.547   6.638   1.414  1.1033  0.7010 -1.0448
   11CHTO   H76 4483   5.446   6.745   1.330  0.0848 -0.3608  0.5875
   11CHTO   C43 4484   5.463   6.962   1.489  0.1653 -0.7276  0.3463
   11CHTO   H85 4485   5.439   6.991   1.387  2.8611 -1.5797 -0.5688
   11CHTO   O29 4486   5.543   7.065   1.549  0.3511  0.4563  0.1203
   11CHTO   C50 4487   5.598   7.037   1.681  0.8916 -0.1999  0.2665
   11CHTO   H92 4488   5.677   7.113   1.695  1.0506 -0.2923 -0.1151
   11CHTO   C54 4489   5.501   7.067   1.792  0.5277  0.3924  0.1482
   11CHTO   O36 4490   5.491   7.209   1.804 -0.4095  0.4057  0.2053
   11CHTO   H72 4491   5.428   7.238   1.741  0.3750  0.0365 -0.7578
   11CHTO   O27 4492   5.344   6.947   1.571 -0.0058  0.1219 -0.2865
   11CHTO   C37 4493   5.208   6.957   1.588 -0.4692 -0.1326 -0.2297
   11CHTO   H79 4494   5.173   7.031   1.662 -2.9643 -0.0665 -1.4157
   11CHTO   C38 4495   5.142   7.005   1.458 -0.7475  0.3518 -0.1936
   11CHTO   H80 4496   5.185   6.953   1.371 -0.9634  1.7159 -1.1233
   11CHTO   O31 4497   5.171   7.150   1.447 -0.3182 -0.0622 -0.4105
   11CHTO   H68 4498   5.149   7.197   1.525 -0.7908 -0.9017 -0.0203
   11CHTO   C39 4499   4.989   6.978   1.448 -0.5202 -0.7364 -0.9861
   11CHTO   H81 4500   4.951   7.051   1.520  1.2042 -2.6299  1.9545
   11CHTO    N7 4501   4.938   7.004   1.305  0.5813 -0.2561 -0.4834
   11CHTO   H73 4502   4.840   7.045   1.287  0.6246 -0.5581 -1.4167
   11CHTO   H74 4503   5.011   7.064   1.253 -0.9654  1.0929 -1.1412
   11CHTO   C40 4504   4.950   6.843   1.520  0.3054  0.3722  0.0650
   11CHTO   H82 4505   4.976   6.765   1.449 -0.8710  0.5524 -0.5733
   11CHTO   O26 4506   5.015   6.827   1.642  0.8968  0.0489  0.2443
   11CHTO   C41 4507   5.158   6.819   1.633  0.0826  0.4683 -0.5331
   11CHTO   H83 4508   5.188   6.738   1.565 -0.3095 -0.5588  0.5128
   11CHTO   C52 4509   5.210   6.796   1.774  0.4924 -0.4638 -0.1185
   11CHTO   O35 4510   5.161   6.894   1.884  0.0848 -0.1276  0.5574
   11CHTO   H71 4511   5.221   6.966   1.895 -1.0815  0.7574  1.2737
   11CHTO   O28 4512   4.811   6.826   1.555  0.0727  0.2001  0.2063
   11CHTO   C42 4513   4.740   6.707   1.520  0.4737  0.5670  0.0519
   11CHTO   H84 4514   4.801   6.655   1.447  2.2361  0.0162  1.8498
   11CHTO   C44 4515   4.597   6.731   1.461 -0.0809 -0.0225  0.0800
   11CHTO   H86 4516   4.539   6.778   1.541  1.0574  0.9144  0.3689
   11CHTO   O32 4517   4.605   6.815   1.345  0.1531  0.3022  0.3207
   11CHTO   H69 4518   4.596   6.907   1.363 -0.4644  0.0667  1.2421
   11CHTO   C48 4519   4.523   6.599   1.441  0.6016  0.0854 -0.7479
   11CHTO   H90 4520   4.583   6.543   1.370  0.4197  0.4878 -1.2183
   11CHTO    N9 4521   4.394   6.612   1.364  0.5739  0.4595  0.9073
   11CHTO   H77 4522   4.380   6.525   1.301  3.6044  0.3766  0.2599
   11CHTO   H78 4523   4.391   6.698   1.299  0.6399 -0.4331 -0.3031
   11CHTO   C51 4524   4.513   6.515   1.572 -0.3515 -0.6385  0.3613
   11CHTO   H93 4525   4.452   6.571   1.642 -1.2136  1.3988 -1.9554
   11CHTO   O30 4526   4.647   6.493   1.623 -0.1827 -0.1722  0.2919
   11CHTO   C46 4527   4.728   6.621   1.646  0.7214 -0.2986 -0.0879
   11CHTO   H88 4528   4.681   6.682   1.724  1.3593  1.4351 -1.0234
   11CHTO   C53 4529   4.859   6.576   1.709  0.5886 -0.1349  0.1759
   11CHTO   O72 4530   4.965   6.547   1.612  0.4136 -0.1609 -0.1597
   11CHTO  H199 4531   5.046   6.545   1.659  0.9806  0.4255 -1.0914
   11CHTO   O22 4532   4.473   6.378   1.539 -0.7777  0.1950  0.2434
   11CHTO   C31 4533   4.419   6.290   1.644 -0.1102 -0.7200 -0.2623
   11CHTO   H59 4534   4.481   6.318   1.732  1.3837 -1.6833 -1.0033
   11CHTO   C29 4535   4.268   6.300   1.682  0.2279 -0.3823 -0.1226
   11CHTO   H57 4536   4.209   6.279   1.591 -1.3375 -0.1826  0.8216
   11CHTO   O21 4537   4.241   6.437   1.722  0.4539  0.5791  0.7929
   11CHTO   H37 4538   4.147   6.440   1.721  0.4514  1.1585 -1.8693
   11CHTO   C27 4539   4.221   6.200   1.794  0.7478  0.3169  0.5300
   11CHTO   H55 4540   4.259   6.231   1.892 -0.7243  0.2804  1.1245
   11CHTO    N5 4541   4.072   6.202   1.810  0.2280  0.1246 -0.4174
   11CHTO   H43 4542   4.043   6.291   1.863  0.9458 -0.3508  0.8113
   11CHTO   H44 4543   4.023   6.205   1.714 -0.7961  2.3010  0.1385
   11CHTO   C25 4544   4.277   6.057   1.751 -0.9884 -0.8958  0.1875
   11CHTO   H53 4545   4.223   6.015   1.665  1.8787 -0.8507 -1.6577
   11CHTO   O17 4546   4.415   6.062   1.712 -0.0596 -0.1196 -0.6365
   11CHTO   C32 4547   4.459   6.144   1.608  0.3204 -0.0565 -0.1367
   11CHTO   H60 4548   4.404   6.114   1.519  0.6087 -0.8692 -0.0429
   11CHTO   C36 4549   4.618   6.118   1.593  0.4458  0.6667 -0.2750
   11CHTO   O25 4550   4.668   6.198   1.488  0.9019  0.2654  0.3276
   11CHTO   H40 4551   4.660   6.164   1.401  0.6091 -0.8758  0.7834
   11CHTO   O15 4552   4.250   5.961   1.864 -0.7216  0.2150  0.0789
   11CHTO   C19 4553   4.268   5.817   1.892 -0.2286  0.2543  0.1499
   11CHTO   H47 4554   4.182   5.771   1.841  0.1950 -0.8995  0.4741
   11CHTO   C20 4555   4.404   5.760   1.850  0.4685  0.1729  0.5533
   11CHTO   H48 4556   4.486   5.814   1.899 -0.1072  1.7526 -0.1999
   11CHTO   O19 4557   4.407   5.778   1.707 -0.6924 -0.0071 -0.1489
   11CHTO   H35 4558   4.404   5.868   1.681  0.5537  0.4258  1.1050
   11CHTO   C21 4559   4.424   5.603   1.887  0.0248  0.7822  0.5418
   11CHTO   H49 4560   4.370   5.538   1.818  0.6609 -0.8371  1.5466
   11CHTO    N4 4561   4.563   5.554   1.861  0.4684 -0.0249  0.2833
   11CHTO   H41 4562   4.594   5.467   1.916  2.5094  0.8744  0.6095
   11CHTO   H42 4563   4.635   5.634   1.868  0.0156  0.4977 -0.8731
   11CHTO   C22 4564   4.361   5.577   2.030 -0.8891  0.0141  0.0009
   11CHTO   H50 4565   4.433   5.597   2.109  0.5305 -3.5930 -0.2735
   11CHTO   O14 4566   4.241   5.645   2.060 -0.1426  0.5055 -0.2194
   11CHTO   C23 4567   4.246   5.788   2.045  0.2238  0.2971 -0.0955
   11CHTO   H51 4568   4.332   5.820   2.106 -0.0903  2.0798 -0.5871
   11CHTO   C34 4569   4.118   5.858   2.097  0.1782 -0.1945 -0.3083
   11CHTO   O23 4570   4.090   5.813   2.230  0.1667  0.1130 -0.7466
   11CHTO   H38 4571   4.054   5.727   2.225 -1.0550  0.4906  0.9250
   11CHTO   O16 4572   4.323   5.433   2.030  0.3644  0.1675  0.1339
   11CHTO   C24 4573   4.193   5.388   1.967  0.5208  0.3973  0.5094
   11CHTO   H52 4574   4.154   5.461   1.896 -0.8497 -1.0471 -0.2755
   11CHTO   C26 4575   4.085   5.356   2.076  0.9865  0.4711  0.3966
   11CHTO   H54 4576   4.122   5.284   2.152 -1.7935 -1.7884 -0.3119
   11CHTO   O20 4577   4.061   5.474   2.149 -0.7554 -0.4089  0.5542
   11CHTO   H36 4578   4.143   5.509   2.180 -0.4320 -2.5924  2.3175
   11CHTO   C30 4579   3.956   5.302   2.011 -0.1980 -0.0693 -0.2600
   11CHTO   H58 4580   3.899   5.376   1.954 -2.1444 -0.1482  1.5264
   11CHTO    N6 4581   3.855   5.262   2.109  0.0403 -0.7760  0.4786
   11CHTO   H45 4582   3.785   5.336   2.142  0.2780  0.0101 -0.7462
   11CHTO   H46 4583   3.807   5.168   2.083  0.9091 -1.6847  2.0693
   11CHTO   C33 4584   3.982   5.181   1.917  0.0506  0.0571 -0.2497
   11CHTO   H61 4585   4.029   5.100   1.975  0.3073  0.3318 -0.0737
   11CHTO   O18 4586   4.083   5.223   1.826  0.8273  0.1796 -0.0929
   11CHTO   C28 4587   4.205   5.256   1.881  0.6647  1.2511 -0.7937
   11CHTO   H56 4588   4.247   5.174   1.939  0.6934  1.7212 -0.1446
   11CHTO   C35 4589   4.302   5.275   1.766  0.2631 -0.1695  0.0471
   11CHTO   O24 4590   4.310   5.166   1.680  0.1592  0.1772 -0.6577
   11CHTO   H39 4591   4.359   5.093   1.713 -1.7776 -0.2562  1.3484
   11CHTO    O9 4592   3.867   5.115   1.848 -0.5152 -0.4843  0.0860
   11CHTO   C13 4593   3.807   5.236   1.727 -0.0647 -0.0958 -0.1977
   11CHTO   H26 4594   3.827   5.338   1.765 -1.7982  0.1789  0.0153
   11CHTO   C11 4595   3.656   5.212   1.720  0.8402  0.5463  0.7574
   11CHTO   H24 4596   3.614   5.222   1.821 -1.7862 -1.8256 -0.0339
   11CHTO    O8 4597   3.642   5.077   1.681  0.0116  0.0473  0.2692
   11CHTO    H3 4598   3.553   5.049   1.675 -0.3843  1.4696 -0.5613
   11CHTO    C9 4599   3.593   5.321   1.626  0.2506  0.1303 -0.2445
   11CHTO   H22 4600   3.597   5.415   1.684  1.7673  1.3998 -2.3616
   11CHTO    N2 4601   3.447   5.297   1.601  0.0379  0.2367  0.1388
   11CHTO   H10 4602   3.414   5.356   1.516 -0.4764  0.1764  0.2949
   11CHTO   H11 4603   3.436   5.194   1.573 -0.7437  0.3613 -0.0415
   11CHTO    C7 4604   3.685   5.343   1.496  0.2280  0.4398  0.0213
   11CHTO   H20 4605   3.733   5.441   1.519  2.9106 -0.4648 -1.5055
   11CHTO    O4 4606   3.786   5.241   1.475  0.3234  0.5116 -0.2759
   11CHTO   C14 4607   3.878   5.220   1.583 -0.2495 -0.3186 -0.5937
   11CHTO   H27 4608   3.967   5.287   1.583  0.6644 -1.5244 -0.6507
   11CHTO   C18 4609   3.933   5.079   1.563 -0.2323  0.0635 -0.1688
   11CHTO   O13 4610   3.999   5.059   1.434  0.3096  0.3054 -0.3146
   11CHTO    H7 4611   4.055   5.133   1.418  0.3578  0.8582  2.2018
   11CHTO    O2 4612   3.604   5.354   1.356 -0.1411 -0.5618  0.5550
   11CHTO    C1 4613   3.621   5.482   1.285  0.9699  0.5370 -0.0261
   11CHTO   H14 4614   3.662   5.551   1.362  2.7133 -0.1971 -0.2763
   11CHTO    C2 4615   3.483   5.543   1.230  0.3544  0.1509  0.4609
   11CHTO   H15 4616   3.425   5.461   1.185  0.3462  0.6696 -0.4725
   11CHTO    O6 4617   3.397   5.595   1.336 -0.0800  0.1556  0.1782
   11CHTO    H1 4618   3.333   5.537   1.372 -0.9817 -0.0007 -1.6623
   11CHTO    C3 4619   3.491   5.668   1.124  0.2895  0.3798  0.4487
   11CHTO   H16 4620   3.515   5.764   1.173 -0.7799  0.3013  1.1403
   11CHTO    N1 4621   3.372   5.692   1.044 -0.4326  0.1792 -0.1390
   11CHTO    H8 4622   3.360   5.792   1.005  0.0723 -0.0024 -0.7655
   11CHTO    H9 4623   3.358   5.616   0.969 -0.3368  0.6236 -0.6055
   11CHTO    C4 4624   3.609   5.647   1.021 -0.4868  0.6430  0.0547
   11CHTO   H17 4625   3.582   5.574   0.945  2.6030  0.5813 -1.0799
   11CHTO    O1 4626   3.725   5.602   1.094 -0.0444  0.8607  0.1330
   11CHTO    C5 4627   3.721   5.476   1.161  0.4668 -0.1187 -0.0111
   11CHTO   H18 4628   3.697   5.404   1.083  0.1870  0.6476 -0.6490
   11CHTO   C16 4629   3.870   5.451   1.203  0.1134 -0.2429 -0.0502
   11CHTO   O11 4630   3.900   5.313   1.229 -0.0974 -0.0706 -0.0362
   11CHTO    H5 4631   3.914   5.294   1.320 -1.6485 -0.9307  0.0548
   11CHTO    O3 4632   3.652   5.771   0.964  0.5592 -0.3058 -0.0058
   11CHTO    C6 4633   3.702   5.762   0.831 -0.2969  0.6252  0.2829
   11CHTO   H19 4634   3.727   5.660   0.800 -1.5000  0.4051 -0.0011
   11CHTO    C8 4635   3.600   5.828   0.727  0.3940 -0.0922  0.0758
   11CHTO   H21 4636   3.575   5.929   0.759  0.1310  0.6981 -2.5312
   11CHTO    O7 4637   3.475   5.754   0.726 -0.4215 -0.6774 -0.6769
   11CHTO    H2 4638   3.476   5.687   0.660  1.7638 -0.4096 -0.9552
   11CHTO   C12 4639   3.668   5.830   0.586 -0.1504  0.9834  0.5401
   11CHTO   H25 4640   3.681   5.723   0.562  3.5707  0.7863  2.9409
   11CHTO    N3 4641   3.575   5.899   0.486  1.6509 -0.0066 -0.1784
   11CHTO   H12 4642   3.483   5.842   0.488 -0.2458  2.9358  3.7737
   11CHTO   H13 4643   3.617   5.921   0.389 -1.0545 -1.7356 -1.8247
   11CHTO   C15 4644   3.812   5.897   0.597  0.1264  0.3613  0.6885
   11CHTO   H28 4645   3.801   6.003   0.623 -0.4787  0.4601  0.0368
   11CHTO   O10 4646   3.885   5.882   0.458  0.0258  0.1105  0.4129
   11CHTO    H4 4647   3.951   5.949   0.457 -1.2728  1.4038 -1.3701
   11CHTO    O5 4648   3.896   5.851   0.700  0.5203 -0.3132  0.0461
   11CHTO   C10 4649   3.839   5.837   0.829 -0.9154  0.3533 -0.3651
   11CHTO   H23 4650   3.840   5.938   0.871 -1.5697  0.2538 -0.1097
   11CHTO   C17 4651   3.944   5.758   0.910 -0.3890 -0.1784  0.0294
   11CHTO   O12 4652   4.079   5.808   0.893 -0.1772 -0.2313  0.0161
   11CHTO    H6 4653   4.135   5.765   0.955  0.9327  1.2772  0.0772
   12CHTO  H203 4654   5.133  11.788  -0.009 -1.1900  0.3809  0.8101
   12CHTO   O82 4655   5.160  11.836   0.068  0.0506 -0.2732  0.7897
   12CHTO  C123 4656   5.178  11.749   0.180  0.7121  0.0404  0.5107
   12CHTO  H227 4657   5.194  11.800   0.276  0.6023  0.5290  0.2686
   12CHTO   O77 4658   5.048  11.677   0.187 -0.2110 -0.1845 -0.1905
   12CHTO  C118 4659   5.040  11.586   0.299  0.0144 -0.5363  0.5358
   12CHTO  H222 4660   5.062  11.636   0.394 -0.7250 -3.0600  2.0782
   12CHTO  C125 4661   4.895  11.542   0.306  0.1851 -0.2058  0.2936
   12CHTO   O84 4662   4.813  11.656   0.329  0.5420  0.1525 -0.2084
   12CHTO  H205 4663   4.742  11.659   0.268  1.6378 -2.4690 -1.6991
   12CHTO  C114 4664   5.139  11.474   0.277 -0.3943  0.0980 -0.0857
   12CHTO  H218 4665   5.128  11.437   0.174 -0.7477 -0.1689  0.0458
   12CHTO  C116 4666   5.283  11.528   0.267  0.5024 -0.3528  0.3689
   12CHTO  H220 4667   5.319  11.562   0.367  0.5136  0.1456  0.1962
   12CHTO   O79 4668   5.378  11.418   0.228 -0.6000 -0.3459  0.6695
   12CHTO  H201 4669   5.344  11.345   0.277 -0.7742  0.2020  1.3756
   12CHTO  C120 4670   5.288  11.642   0.157 -0.6965 -0.4086  0.4498
   12CHTO  H224 4671   5.264  11.592   0.061 -0.6225 -2.6399  1.5612
   12CHTO   N21 4672   5.424  11.707   0.155 -0.3721  0.6012  0.0242
   12CHTO  H211 4673   5.426  11.811   0.125 -1.8604  0.6824  0.1304
   12CHTO  H212 4674   5.464  11.704   0.255  0.2526  1.1548 -0.2069
   12CHTO   O75 4675   5.124  11.380   0.385  0.4215 -0.1159 -0.2070
   12CHTO  C112 4676   5.113  11.231   0.321 -0.0814 -0.0325 -0.3984
   12CHTO  H216 4677   5.176  11.214   0.232  1.6413  2.5716  0.2940
   12CHTO   O73 4678   4.977  11.210   0.291  0.3611 -0.3669  0.1315
   12CHTO  C113 4679   4.959  11.085   0.213 -0.8995  0.5587  0.2955
   12CHTO  H217 4680   5.036  11.070   0.135 -1.4456  0.3271 -0.1961
   12CHTO  C124 4681   4.825  11.094   0.138 -0.2950 -0.8492  0.6271
   12CHTO   O83 4682   4.829  10.984   0.041 -0.5885  0.2562 -0.2033
   12CHTO  H204 4683   4.765  10.985  -0.028  0.0525  0.5825 -0.7872
   12CHTO  C109 4684   4.973  10.967   0.317  0.1356 -0.4817 -0.0887
   12CHTO  H213 4685   4.897  10.987   0.395  1.9457  0.8420  1.3791
   12CHTO  C110 4686   5.116  10.973   0.376  0.2139 -0.7473 -0.0204
   12CHTO  H214 4687   5.184  10.952   0.294 -1.7270  1.5257 -2.3046
   12CHTO   O78 4688   5.125  10.876   0.482  0.4000 -0.2960 -0.1983
   12CHTO  H200 4689   5.131  10.788   0.451  0.0849 -0.8497  1.2949
   12CHTO  C111 4690   5.156  11.121   0.422  0.1118  0.3331  0.7751
   12CHTO  H215 4691   5.101  11.142   0.515  1.3138  0.3784  1.4789
   12CHTO   N19 4692   5.308  11.131   0.447  0.2391  0.2203  0.3332
   12CHTO  H207 4693   5.369  11.216   0.418 -1.5364  1.5319  0.3548
   12CHTO  H208 4694   5.366  11.044   0.422  2.0620  1.3942  0.3455
   12CHTO   O74 4695   4.941  10.843   0.247  0.4280  0.0746 -0.1370
   12CHTO  C115 4696   4.839  10.766   0.306 -0.5646 -0.3784 -0.0980
   12CHTO  H219 4697   4.778  10.825   0.374  3.1707  0.5292  2.6411
   12CHTO   O76 4698   4.739  10.722   0.202 -0.2507  0.1301  0.2603
   12CHTO  C122 4699   4.809  10.635   0.102 -0.4464  0.4021 -0.1877
   12CHTO  H226 4700   4.892  10.689   0.057 -0.7885  1.3256  0.2770
   12CHTO  C126 4701   4.708  10.617  -0.018  0.2290 -0.0215  0.2157
   12CHTO   O85 4702   4.653  10.740  -0.063  0.3472  0.3137 -0.1204
   12CHTO  H206 4703   4.607  10.716  -0.141  2.6806  2.0426 -2.1126
   12CHTO  C121 4704   4.868  10.511   0.168  0.1405  0.1824  0.8167
   12CHTO  H225 4705   4.824  10.420   0.123  1.6941  0.6160 -1.6665
   12CHTO   O81 4706   5.014  10.511   0.151  0.3806  0.3935  0.4715
   12CHTO  H202 4707   5.044  10.422   0.158 -0.2427  0.1954  0.7122
   12CHTO  C119 4708   4.844  10.511   0.329  0.2764  0.3987 -0.0873
   12CHTO  H223 4709   4.736  10.525   0.333  0.1710 -0.0993 -1.1269
   12CHTO  C117 4710   4.905  10.643   0.387 -0.0009 -0.4566 -0.0635
   12CHTO  H221 4711   5.014  10.653   0.386  0.0006 -0.3118  0.7243
   12CHTO   N20 4712   4.872  10.663   0.530  0.7149 -0.4069  0.3864
   12CHTO  H209 4713   4.780  10.607   0.544 -0.0247  0.6992  0.0123
   12CHTO  H210 4714   4.943  10.616   0.597  0.3246  0.4534  1.4161
   12CHTO   O80 4715   4.865  10.372   0.404  0.0150  0.4274  0.3675
   12CHTO  C103 4716   4.740  10.277   0.431 -0.1894  0.2155 -0.3688
   12CHTO  H190 4717   4.659  10.333   0.479  0.3100  1.6104 -1.1285
   12CHTO  C101 4718   4.695  10.198   0.300 -0.1442 -0.5751  0.1794
   12CHTO  H188 4719   4.778  10.197   0.229 -0.4178  0.1000 -0.1531
   12CHTO   O68 4720   4.572  10.292   0.227  0.4536  0.0667  0.0703
   12CHTO  H168 4721   4.525  10.249   0.158  2.5336 -0.2434 -1.1969
   12CHTO   C99 4722   4.629  10.048   0.341 -0.1961 -0.0697 -0.0338
   12CHTO  H186 4723   4.527  10.076   0.376  0.8473  2.3693  1.1359
   12CHTO   N17 4724   4.615   9.957   0.218 -0.5441 -0.4892  0.1493
   12CHTO  H174 4725   4.558   9.995   0.134  0.5428  0.2338 -0.2847
   12CHTO  H175 4726   4.571   9.865   0.251 -1.2488 -0.7952 -1.6174
   12CHTO   C97 4727   4.696   9.971   0.460  0.3331  0.5249 -0.0377
   12CHTO  H184 4728   4.790   9.921   0.431 -0.0575  0.2687 -0.8720
   12CHTO   O64 4729   4.714  10.068   0.566  0.7567 -0.2267 -0.4484
   12CHTO  C104 4730   4.803  10.175   0.540 -0.2290 -0.1242  0.9088
   12CHTO  H191 4731   4.903  10.144   0.508  0.2957 -0.8767  3.1820
   12CHTO  C108 4732   4.839  10.250   0.669  0.0437  0.3291 -0.4126
   12CHTO   O71 4733   4.907  10.166   0.762  0.4657  0.1531 -0.0187
   12CHTO  H171 4734   4.863  10.165   0.845 -0.9369  0.6525 -0.7344
   12CHTO   O62 4735   4.601   9.882   0.519 -0.0329 -0.3543  0.6512
   12CHTO   C91 4736   4.635   9.744   0.556  0.5114  0.2566 -0.1870
   12CHTO  H178 4737   4.702   9.714   0.475  1.7701  1.3424  0.4243
   12CHTO   C92 4738   4.514   9.646   0.552  0.0787 -0.2788 -0.0392
   12CHTO  H179 4739   4.457   9.678   0.465  0.6750 -0.3521 -0.4596
   12CHTO   O66 4740   4.569   9.521   0.508  0.5145 -0.0051  0.0704
   12CHTO  H166 4741   4.502   9.456   0.513  0.0454  0.5170  0.7763
   12CHTO   C93 4742   4.435   9.631   0.687 -0.0178  0.4045  0.0414
   12CHTO  H180 4743   4.405   9.526   0.689 -0.9775  0.6577 -0.6347
   12CHTO   N16 4744   4.310   9.707   0.698 -0.0009 -0.5667  0.2240
   12CHTO  H172 4745   4.313   9.813   0.675 -0.2720  0.1191  3.1388
   12CHTO  H173 4746   4.264   9.680   0.792  2.2324 -3.7915  0.4593
   12CHTO   C94 4747   4.523   9.667   0.810 -0.1713 -0.0310  0.0977
   12CHTO  H181 4748   4.522   9.773   0.832  1.7555 -0.1939  1.0627
   12CHTO   O61 4749   4.660   9.627   0.777  0.2867  0.2035 -0.6589
   12CHTO   C95 4750   4.713   9.724   0.688  0.2002 -0.2356  0.3944
   12CHTO  H182 4751   4.723   9.816   0.746  0.3250 -0.5326  0.8462
   12CHTO  C106 4752   4.863   9.680   0.659 -0.0976  0.4155  0.2835
   12CHTO   O69 4753   4.873   9.554   0.588 -0.1155 -0.0719  0.1375
   12CHTO  H169 4754   4.806   9.550   0.522 -1.1126 -0.8599  1.1880
   12CHTO   O63 4755   4.480   9.572   0.943 -0.0897 -0.1881 -0.4283
   12CHTO   C96 4756   4.545   9.581   1.066 -0.4923 -0.0263  0.0187
   12CHTO  H183 4757   4.617   9.663   1.062 -0.6007  0.0398 -0.6507
   12CHTO   C98 4758   4.621   9.450   1.107  0.3993  0.6451 -0.5488
   12CHTO  H185 4759   4.648   9.384   1.023  2.0474  1.3288 -0.5893
   12CHTO   O67 4760   4.748   9.490   1.155  0.0388  0.2149 -0.4105
   12CHTO  H167 4761   4.804   9.420   1.183 -0.0488 -0.1110 -1.0330
   12CHTO  C102 4762   4.545   9.356   1.218 -0.3886 -0.1427 -0.0255
   12CHTO  H189 4763   4.616   9.273   1.236  1.1509  1.3082  0.6771
   12CHTO   N18 4764   4.422   9.282   1.169 -0.8193  0.1936 -0.4711
   12CHTO  H176 4765   4.345   9.358   1.168 -0.5385  0.5799  2.3480
   12CHTO  H177 4766   4.438   9.262   1.064  3.0112  1.9023 -0.3024
   12CHTO  C105 4767   4.512   9.451   1.340  0.5993 -0.3553 -1.0467
   12CHTO  H192 4768   4.425   9.420   1.398 -0.2427 -2.3611 -3.3128
   12CHTO   O65 4769   4.501   9.592   1.309  0.3600  0.7243  0.4302
   12CHTO  C100 4770   4.439   9.626   1.184  0.3916 -0.0710  0.2606
   12CHTO  H187 4771   4.353   9.560   1.166  0.3243 -0.5031  2.0192
   12CHTO  C107 4772   4.413   9.780   1.167  0.7914 -0.2378  0.4852
   12CHTO   O70 4773   4.283   9.821   1.212 -0.2668  0.0261  0.1530
   12CHTO  H170 4774   4.221   9.818   1.142 -1.1923 -1.4465  1.0168
   12CHTO   O57 4775   4.613   9.426   1.417 -0.4782 -0.0644 -0.1868
   12CHTO   C85 4776   4.655   9.515   1.520 -0.6005 -0.2431 -0.2746
   12CHTO  H157 4777   4.574   9.589   1.529  0.8928  1.3378  0.4068
   12CHTO   C83 4778   4.777   9.596   1.473  0.1862 -0.0371 -0.8252
   12CHTO  H155 4779   4.744   9.659   1.391 -0.0186 -0.2438 -0.9016
   12CHTO   O56 4780   4.876   9.511   1.420 -0.5272 -0.3492 -0.2709
   12CHTO  H135 4781   4.892   9.526   1.329 -0.9637  0.3064 -0.2465
   12CHTO   C81 4782   4.841   9.686   1.581 -0.3315 -0.1695  0.6010
   12CHTO  H153 4783   4.767   9.757   1.618 -0.4395 -1.7840  3.6496
   12CHTO   N14 4784   4.958   9.771   1.533 -0.4198 -0.5877  0.1733
   12CHTO  H141 4785   4.988   9.822   1.622 -0.6945 -2.0386  1.1160
   12CHTO  H142 4786   5.038   9.703   1.514  0.0331  0.0961 -0.3967
   12CHTO   C79 4787   4.880   9.597   1.698  0.5948  0.2996 -0.2134
   12CHTO  H151 4788   4.918   9.660   1.778 -0.5253 -0.8548  1.2572
   12CHTO   O52 4789   4.765   9.529   1.757  0.0502  0.0087  0.2700
   12CHTO   C86 4790   4.687   9.449   1.660 -0.0363 -0.2645 -0.0642
   12CHTO  H158 4791   4.754   9.362   1.642 -0.1270 -0.0448 -1.4972
   12CHTO   C90 4792   4.563   9.386   1.733 -0.5959 -0.4232  0.1780
   12CHTO   O60 4793   4.488   9.299   1.649 -0.5920 -0.0221 -0.2891
   12CHTO  H138 4794   4.398   9.290   1.674 -0.4569 -2.8437 -0.6212
   12CHTO   O50 4795   4.987   9.507   1.675  0.0807  0.0349 -0.1145
   12CHTO   C73 4796   5.087   9.449   1.763  0.1618  0.5277 -0.6160
   12CHTO  H145 4797   5.042   9.394   1.847  0.3747  0.6359 -0.4328
   12CHTO   C74 4798   5.184   9.562   1.817  0.5310 -0.3170 -0.4226
   12CHTO  H146 4799   5.118   9.636   1.864  0.7876 -2.1993  3.0378
   12CHTO   O54 4800   5.267   9.509   1.922  0.0729 -0.3377 -0.0212
   12CHTO  H133 4801   5.317   9.440   1.883 -0.6866  0.4666 -2.4999
   12CHTO   C75 4802   5.273   9.621   1.703  0.4741  0.1914 -0.4447
   12CHTO  H147 4803   5.204   9.668   1.633  1.3776  0.6399 -1.0471
   12CHTO   N13 4804   5.361   9.737   1.741  0.2298  0.0983  0.5682
   12CHTO  H139 4805   5.431   9.761   1.662 -0.7120  2.4786  0.4090
   12CHTO  H140 4806   5.308   9.825   1.774 -0.7659 -0.3126  0.0681
   12CHTO   C76 4807   5.349   9.510   1.630 -0.2704 -0.1910 -0.3872
   12CHTO  H148 4808   5.416   9.457   1.698  0.3202  1.6203  0.4622
   12CHTO   O49 4809   5.251   9.420   1.576 -0.9132 -0.5420  0.2569
   12CHTO   C77 4810   5.180   9.347   1.681 -0.2357 -0.1747  0.4328
   12CHTO  H149 4811   5.250   9.297   1.747  1.0622  0.3898 -0.4893
   12CHTO   C88 4812   5.100   9.228   1.626  0.4644  0.1946  0.2817
   12CHTO   O58 4813   5.176   9.146   1.549 -0.3361  0.0503 -0.2702
   12CHTO  H136 4814   5.177   9.177   1.461 -1.0559 -1.7281 -0.9204
   12CHTO   O51 4815   5.432   9.571   1.508  0.4886  0.5556  0.0651
   12CHTO   C78 4816   5.538   9.470   1.455  0.4765  0.5965  0.7644
   12CHTO  H150 4817   5.520   9.363   1.481 -1.1426 -0.0275 -2.5730
   12CHTO   C80 4818   5.686   9.501   1.486  0.7333  0.2812  0.0211
   12CHTO  H152 4819   5.707   9.606   1.456 -0.6539  1.0025  1.4821
   12CHTO   O55 4820   5.703   9.482   1.630 -0.0621 -0.1054  0.0540
   12CHTO  H134 4821   5.793   9.495   1.653 -0.1184  1.7118 -0.7150
   12CHTO   C84 4822   5.784   9.410   1.412 -0.5881 -0.2089 -0.6058
   12CHTO  H156 4823   5.757   9.309   1.442  1.3666 -0.3931  0.6218
   12CHTO   N15 4824   5.933   9.420   1.447 -0.0303  1.0591 -0.3794
   12CHTO  H143 4825   5.993   9.348   1.395 -0.1586  1.5681 -1.2486
   12CHTO  H144 4826   5.939   9.406   1.553  0.7124  1.0198 -0.4253
   12CHTO   C87 4827   5.757   9.420   1.260 -0.3635 -0.2323 -0.0633
   12CHTO  H159 4828   5.778   9.521   1.225 -0.2405  0.1108  0.9784
   12CHTO   O53 4829   5.609   9.381   1.239 -0.0946  0.0709 -0.1344
   12CHTO   C82 4830   5.519   9.468   1.303  0.2721 -0.0495  0.5193
   12CHTO  H154 4831   5.533   9.566   1.257 -0.4750 -0.0827  0.2174
   12CHTO   C89 4832   5.373   9.425   1.258 -0.0384  0.3607  0.2364
   12CHTO   O59 4833   5.277   9.526   1.299 -0.2482 -0.3566 -0.2214
   12CHTO  H137 4834   5.199   9.515   1.248 -0.4457 -2.1553  0.4219
   12CHTO   O45 4835   5.860   9.309   1.173  0.1934 -0.3896  0.3289
   12CHTO   C67 4836   5.879   9.342   1.031 -0.3539 -0.5321 -0.5126
   12CHTO  H124 4837   5.958   9.275   0.997 -0.4232 -1.1142  0.4539
   12CHTO   C65 4838   5.748   9.315   0.945  0.2531  0.2243 -0.6378
   12CHTO  H122 4839   5.663   9.354   1.001  0.0520 -0.6697 -0.3185
   12CHTO   O44 4840   5.744   9.175   0.910 -0.5384 -0.0332  0.1165
   12CHTO  H102 4841   5.824   9.153   0.867 -1.3424 -1.3640 -0.7572
   12CHTO   C63 4842   5.733   9.410   0.823 -0.1317  0.6957 -0.5688
   12CHTO  H120 4843   5.693   9.504   0.862  1.0099  1.1362 -0.4180
   12CHTO   N11 4844   5.634   9.355   0.719  0.4687 -0.6618  0.5371
   12CHTO  H108 4845   5.548   9.320   0.772 -0.7745 -1.4436 -1.8748
   12CHTO  H109 4846   5.611   9.431   0.646 -2.1291 -1.1185  0.8296
   12CHTO   C61 4847   5.876   9.454   0.762 -0.1475  0.0466  0.1884
   12CHTO  H118 4848   5.853   9.525   0.682 -0.0463 -2.0804 -1.7849
   12CHTO   O40 4849   5.952   9.519   0.856 -0.0449  0.2538  0.0554
   12CHTO   C68 4850   5.932   9.488   1.006 -0.2964  0.1604  0.6760
   12CHTO  H125 4851   5.844   9.549   1.033 -1.3897 -0.8478 -0.5714
   12CHTO   C72 4852   6.058   9.522   1.092 -1.0683 -0.2286 -0.1352
   12CHTO   O48 4853   6.167   9.440   1.034  0.3064 -0.1702  0.1597
   12CHTO  H105 4854   6.235   9.499   1.011  0.2083  0.1473  0.6788
   12CHTO   O38 4855   5.947   9.338   0.705 -0.3471  0.0698  0.6111
   12CHTO   C55 4856   6.081   9.298   0.736 -1.1468 -0.7487 -0.2302
   12CHTO  H112 4857   6.092   9.300   0.846 -2.1401  3.6442 -0.0912
   12CHTO   C56 4858   6.194   9.378   0.664  0.1285 -0.0799  0.4633
   12CHTO  H113 4859   6.175   9.380   0.556  1.0228  0.1576  0.3079
   12CHTO   O42 4860   6.183   9.521   0.694 -0.1110 -0.1199  0.0311
   12CHTO  H100 4861   6.148   9.525   0.781 -2.7029 -1.9685 -0.8604
   12CHTO   C57 4862   6.335   9.324   0.707  0.2399 -0.1055  0.6201
   12CHTO  H114 4863   6.356   9.344   0.812  1.4595 -0.7115  0.5009
   12CHTO   N10 4864   6.448   9.386   0.634 -0.3917 -0.9535 -0.2437
   12CHTO  H106 4865   6.527   9.409   0.703  0.0213 -1.5866 -0.5042
   12CHTO  H107 4866   6.487   9.331   0.550 -0.6643 -0.6054 -0.5979
   12CHTO   C58 4867   6.339   9.168   0.680  0.5357  0.6680  0.1820
   12CHTO  H115 4868   6.350   9.139   0.573  0.1341 -0.9183  0.5466
   12CHTO   O37 4869   6.227   9.102   0.736 -0.1459 -0.3883 -0.1445
   12CHTO   C59 4870   6.097   9.152   0.692  0.6304  0.0334 -0.3470
   12CHTO  H116 4871   6.090   9.131   0.585  0.7760 -1.6268 -0.0440
   12CHTO   C70 4872   5.991   9.057   0.757 -0.2424 -0.5941  0.3261
   12CHTO   O46 4873   6.017   8.920   0.742 -0.0190  0.1227  0.3490
   12CHTO  H103 4874   5.937   8.871   0.752  0.0174 -0.0848 -0.4010
   12CHTO   O39 4875   6.464   9.098   0.779 -0.0453 -0.4542  0.3972
   12CHTO   C60 4876   6.509   8.978   0.708  0.2779 -0.3885 -0.9098
   12CHTO  H117 4877   6.442   8.940   0.631  1.7812 -1.3574 -1.7739
   12CHTO   C62 4878   6.651   8.987   0.650  0.5285 -0.0577 -0.8485
   12CHTO  H119 4879   6.648   9.062   0.568 -3.1194 -1.9541 -2.5554
   12CHTO   O43 4880   6.734   9.027   0.767 -0.0241  0.3209 -0.2719
   12CHTO  H101 4881   6.787   8.959   0.805  0.3948  0.6006 -0.3534
   12CHTO   C66 4882   6.688   8.847   0.585 -0.3347 -0.4666 -0.5935
   12CHTO  H123 4883   6.618   8.819   0.506 -0.2310  0.7460 -1.1234
   12CHTO   N12 4884   6.817   8.861   0.507  0.1808 -0.0248  0.3778
   12CHTO  H110 4885   6.824   8.796   0.421 -0.8111  0.4736 -0.0902
   12CHTO  H111 4886   6.900   8.847   0.574 -1.8258 -1.5064  2.5945
   12CHTO   C69 4887   6.682   8.732   0.691  0.6497  0.3883 -0.7064
   12CHTO  H126 4888   6.759   8.741   0.770 -1.8814 -0.1576  1.9038
   12CHTO   O41 4889   6.537   8.732   0.760  0.5815  0.5229  0.0876
   12CHTO   C64 4890   6.503   8.872   0.821  0.0030 -0.1657 -0.3038
   12CHTO  H121 4891   6.576   8.885   0.903 -0.3972  1.6046 -0.2041
   12CHTO   C71 4892   6.367   8.860   0.900 -0.1847 -0.4701  0.7956
   12CHTO   O47 4893   6.366   8.787   1.026  0.1114  0.2360 -0.0731
   12CHTO  H104 4894   6.370   8.854   1.092 -0.0960  0.2017 -0.0257
   12CHTO   O34 4895   6.704   8.592   0.642 -0.0626  0.2486 -0.0401
   12CHTO   C49 4896   6.783   8.469   0.676  0.3422  0.0990 -0.1033
   12CHTO   H91 4897   6.882   8.512   0.690  0.4357  0.2603 -1.2671
   12CHTO   C47 4898   6.775   8.356   0.574 -0.2587 -0.3962  0.3893
   12CHTO   H89 4899   6.837   8.275   0.617  0.0980  0.9896  2.5409
   12CHTO   O33 4900   6.829   8.400   0.451  0.3778 -0.0916  0.2851
   12CHTO   H70 4901   6.877   8.329   0.413 -1.4787 -0.6280 -1.1459
   12CHTO   C45 4902   6.623   8.305   0.560  0.4414 -0.0554 -0.5380
   12CHTO   H87 4903   6.570   8.361   0.481  1.1816 -0.0105 -1.0069
   12CHTO    N8 4904   6.618   8.164   0.521  0.3354  0.6975 -0.1465
   12CHTO   H75 4905   6.574   8.089   0.584  3.3893 -1.8411 -0.9440
   12CHTO   H76 4906   6.705   8.125   0.470 -0.5385 -0.0882 -1.0658
   12CHTO   C43 4907   6.542   8.340   0.697 -0.1116  0.5069  0.4939
   12CHTO   H85 4908   6.516   8.443   0.671  0.6205  0.2810 -1.2351
   12CHTO   O29 4909   6.629   8.327   0.816 -0.4115 -0.0625 -0.2404
   12CHTO   C50 4910   6.740   8.418   0.811 -0.2846  1.0009  0.2575
   12CHTO   H92 4911   6.707   8.502   0.874 -0.6660 -0.3114  1.8526
   12CHTO   C54 4912   6.856   8.352   0.878  0.0166 -0.0632 -0.1075
   12CHTO   O36 4913   6.865   8.379   1.019 -0.1982  0.2797 -0.1211
   12CHTO   H72 4914   6.826   8.307   1.063 -2.0072  0.7668 -0.9032
   12CHTO   O27 4915   6.420   8.280   0.728  0.2604 -0.3410  0.7562
   12CHTO   C37 4916   6.308   8.302   0.813 -0.4853 -0.4309 -0.4788
   12CHTO   H79 4917   6.234   8.220   0.812 -0.1499 -0.7329 -0.7740
   12CHTO   C38 4918   6.355   8.330   0.959 -0.4827 -0.4464  0.7189
   12CHTO   H80 4919   6.432   8.409   0.956  0.0238 -0.9551  0.2051
   12CHTO   O31 4920   6.407   8.211   1.006  0.1309 -0.0867 -0.3707
   12CHTO   H68 4921   6.405   8.208   1.100  0.8260  2.1478 -0.2569
   12CHTO   C39 4922   6.239   8.392   1.042  0.0817  0.4565 -0.0040
   12CHTO   H81 4923   6.178   8.305   1.070  2.0223 -0.9120  0.0373
   12CHTO    N7 4924   6.273   8.442   1.181 -0.0251  0.5101 -0.0691
   12CHTO   H73 4925   6.376   8.416   1.201 -0.9038 -2.7748  0.4249
   12CHTO   H74 4926   6.205   8.439   1.265 -0.3921  1.1114 -0.3435
   12CHTO   C40 4927   6.148   8.497   0.960  0.4072  0.0576 -0.4145
   12CHTO   H82 4928   6.193   8.596   0.960 -2.5858  1.4833  1.4934
   12CHTO   O26 4929   6.124   8.454   0.828 -0.0523  0.1609  0.3723
   12CHTO   C41 4930   6.241   8.430   0.749 -0.4687  0.4754  1.0560
   12CHTO   H83 4931   6.306   8.518   0.765  1.0179 -0.7236  1.7573
   12CHTO   C52 4932   6.196   8.433   0.604 -0.2653  0.4434  0.6056
   12CHTO   O35 4933   6.292   8.426   0.508  0.4786 -0.3580 -0.3678
   12CHTO   H71 4934   6.261   8.390   0.428 -0.8051  0.7556 -0.3919
   12CHTO   O28 4935   6.016   8.514   1.016 -0.3431  0.3372  0.2561
   12CHTO   C42 4936   5.939   8.641   1.023 -0.0972  0.0174 -0.4941
   12CHTO   H84 4937   5.979   8.706   0.945 -1.8920  1.2491 -0.4200
   12CHTO   C44 4938   5.944   8.720   1.155 -0.5320 -0.3094 -0.1051
   12CHTO   H86 4939   5.905   8.659   1.237  0.5914  1.2966  1.6780
   12CHTO   O32 4940   6.078   8.747   1.180 -0.0871  0.5904  0.0845
   12CHTO   H69 4941   6.134   8.676   1.206 -2.1511 -1.5058 -0.9308
   12CHTO   C48 4942   5.863   8.856   1.151  0.3618  0.8775  0.4974
   12CHTO   H90 4943   5.916   8.925   1.085  2.3363 -1.7984 -0.7740
   12CHTO    N9 4944   5.850   8.919   1.288 -0.9387 -0.2590  0.4393
   12CHTO   H77 4945   5.801   8.848   1.354 -1.8824 -0.8016 -0.8203
   12CHTO   H78 4946   5.947   8.953   1.321 -1.2120  1.3645 -0.4038
   12CHTO   C51 4947   5.723   8.828   1.082 -0.4376  0.5866 -0.6269
   12CHTO   H93 4948   5.650   8.780   1.147 -0.0692  1.6908  0.6101
   12CHTO   O30 4949   5.740   8.754   0.959  0.4258 -0.3426 -0.5278
   12CHTO   C46 4950   5.791   8.621   0.986  0.2974  1.0956 -0.8199
   12CHTO   H88 4951   5.745   8.561   1.064  2.5729  0.6632  0.2439
   12CHTO   C53 4952   5.768   8.548   0.853  0.2402  0.8111 -0.8927
   12CHTO   O72 4953   5.809   8.631   0.747  0.2739  0.5331 -0.1576
   12CHTO  H199 4954   5.806   8.582   0.667 -0.1718  0.6786 -0.2331
   12CHTO   O22 4955   5.663   8.951   1.038 -0.7964 -0.1096  0.2658
   12CHTO   C31 4956   5.525   8.964   1.009 -0.3079 -0.2779  0.1836
   12CHTO   H59 4957   5.485   8.860   1.009  0.6110 -0.6418  1.4765
   12CHTO   C29 4958   5.447   9.043   1.120  0.7841  0.9928  0.5517
   12CHTO   H57 4959   5.475   9.149   1.126  1.4259  0.8568 -0.1246
   12CHTO   O21 4960   5.482   8.989   1.249 -0.0907  0.7645 -0.0656
   12CHTO   H37 4961   5.536   8.913   1.243 -1.1653  0.1599 -2.9734
   12CHTO   C27 4962   5.288   9.030   1.091 -0.4232 -0.3981  0.2526
   12CHTO   H55 4963   5.259   8.923   1.092  2.4686 -1.2176 -0.7837
   12CHTO    N5 4964   5.201   9.100   1.192 -0.2622 -0.0202 -0.0566
   12CHTO   H43 4965   5.252   9.114   1.286  0.9903 -0.8668 -0.6035
   12CHTO   H44 4966   5.127   9.033   1.233  0.2044  0.9687  2.5219
   12CHTO   C25 4967   5.253   9.075   0.942  0.5314 -0.7574 -0.5128
   12CHTO   H53 4968   5.276   9.183   0.934  2.6045 -1.2226 -1.2487
   12CHTO   O17 4969   5.337   9.013   0.840  0.3791 -0.0297 -0.0658
   12CHTO   C32 4970   5.478   9.023   0.865  0.5050 -0.1859 -1.1605
   12CHTO   H60 4971   5.497   9.131   0.862 -1.6962  0.2645  0.0854
   12CHTO   C36 4972   5.558   8.957   0.741 -0.3146 -0.5610 -0.0755
   12CHTO   O25 4973   5.507   8.828   0.726 -0.0706  0.0932 -0.1318
   12CHTO   H40 4974   5.554   8.776   0.788  1.1661 -0.1639 -1.2605
   12CHTO   O15 4975   5.095   9.043   0.913  0.3414  0.2355  0.1189
   12CHTO   C19 4976   4.998   9.120   0.843 -0.0348 -0.1902 -0.4274
   12CHTO   H47 4977   4.999   9.219   0.892 -1.7596 -0.5391  0.3304
   12CHTO   C20 4978   5.042   9.121   0.691 -0.0845 -1.0607  0.2730
   12CHTO   H48 4979   5.062   9.018   0.658 -1.1066 -1.3014  0.3911
   12CHTO   O19 4980   5.171   9.180   0.687 -0.2294 -0.1724  0.5793
   12CHTO   H35 4981   5.233   9.163   0.754  1.8666  3.0678 -0.4255
   12CHTO   C21 4982   4.931   9.185   0.599 -0.4032 -0.6660 -0.3653
   12CHTO   H49 4983   4.940   9.293   0.608  1.2635 -0.8690  0.5611
   12CHTO    N4 4984   4.960   9.160   0.455  0.0781  0.4410  0.1736
   12CHTO   H41 4985   4.894   9.231   0.408 -1.4972  0.9569  3.0399
   12CHTO   H42 4986   4.945   9.060   0.419  1.9206 -0.5211  1.9678
   12CHTO   C22 4987   4.791   9.140   0.638  0.5846  0.7259  0.3404
   12CHTO   H50 4988   4.781   9.038   0.602 -0.6598  1.2860 -0.9574
   12CHTO   O14 4989   4.764   9.154   0.777  0.1023 -0.2696  0.3696
   12CHTO   C23 4990   4.852   9.072   0.857 -0.0516  0.5799 -0.6128
   12CHTO   H51 4991   4.842   8.970   0.818  2.6530 -0.2450  0.7692
   12CHTO   C34 4992   4.810   9.073   1.001  0.3891  0.1945  0.0846
   12CHTO   O23 4993   4.703   8.992   1.031 -0.7253  0.3987 -0.2695
   12CHTO   H38 4994   4.629   9.048   1.046 -1.2058  0.5205 -2.8361
   12CHTO   O16 4995   4.685   9.219   0.572 -0.5313  0.1742 -0.4366
   12CHTO   C24 4996   4.519   9.143   0.564  0.2368  0.3193  0.0752
   12CHTO   H52 4997   4.450   9.205   0.506  0.6266  1.1142  0.4523
   12CHTO   C26 4998   4.459   9.130   0.704  0.3916 -0.2919 -0.0276
   12CHTO   H54 4999   4.533   9.075   0.767  1.0736 -0.0475 -0.6105
   12CHTO   O20 5000   4.443   9.266   0.768  0.0681  0.4857 -0.4676
   12CHTO   H36 5001   4.415   9.253   0.857  0.1698 -0.9750 -0.6435
   12CHTO   C30 5002   4.329   9.050   0.693  0.1293  0.4861  0.2501
   12CHTO   H58 5003   4.250   9.104   0.639 -0.1126 -1.0005 -0.9094
   12CHTO    N6 5004   4.276   9.019   0.831  0.4052 -0.0130  0.0410
   12CHTO   H45 5005   4.199   8.943   0.833  1.0571 -0.8262 -3.0828
   12CHTO   H46 5006   4.231   9.110   0.868  0.5025  0.7210 -1.5878
   12CHTO   C33 5007   4.341   8.913   0.614 -1.0402 -0.0175  0.3678
   12CHTO   H61 5008   4.410   8.846   0.668 -0.2228  0.0594 -0.5597
   12CHTO   O18 5009   4.401   8.939   0.487 -0.3764  0.3634 -0.3691
   12CHTO   C28 5010   4.526   9.007   0.486 -0.2405 -0.2521 -0.3204
   12CHTO   H56 5011   4.593   8.941   0.542 -0.5609 -0.5015 -0.2325
   12CHTO   C35 5012   4.564   9.020   0.337  0.0185 -0.4400 -0.4995
   12CHTO   O24 5013   4.677   9.113   0.315 -0.0515 -0.3412  0.5488
   12CHTO   H39 5014   4.668   9.154   0.231 -1.4657  0.7772  1.2301
   12CHTO    O9 5015   4.208   8.848   0.598 -0.5002  0.3075  0.2083
   12CHTO   C13 5016   4.219   8.700   0.527 -0.4803 -0.8262  0.0111
   12CHTO   H26 5017   4.317   8.698   0.475  0.8744  1.4150  2.3090
   12CHTO   C11 5018   4.097   8.677   0.433 -0.0381  0.4747  0.1348
   12CHTO   H24 5019   4.094   8.744   0.346  0.0170  0.1005 -0.1554
   12CHTO    O8 5020   3.974   8.701   0.506 -0.2556 -0.7066 -0.8235
   12CHTO    H3 5021   3.945   8.790   0.498  0.7765 -0.2032  0.9766
   12CHTO    C9 5022   4.092   8.535   0.377 -0.1388  0.9456 -0.1045
   12CHTO   H22 5023   4.185   8.530   0.318  0.2255 -0.5821  0.5664
   12CHTO    N2 5024   3.991   8.511   0.271  0.7474 -0.3526 -0.0010
   12CHTO   H10 5025   4.019   8.424   0.213 -0.6176 -1.0406  0.3442
   12CHTO   H11 5026   3.980   8.596   0.204 -4.6557 -0.1427  0.9093
   12CHTO    C7 5027   4.104   8.428   0.494  0.3122  0.0762  0.1241
   12CHTO   H20 5028   4.141   8.340   0.437  2.5698  0.9496  0.1666
   12CHTO    O4 5029   4.215   8.460   0.580 -0.2139  0.2159 -0.0131
   12CHTO   C14 5030   4.224   8.591   0.638  0.2614 -0.8457  0.0582
   12CHTO   H27 5031   4.325   8.612   0.678 -0.1635  1.5078 -0.0277
   12CHTO   C18 5032   4.125   8.618   0.755 -0.0403 -0.1502 -0.3024
   12CHTO   O13 5033   4.157   8.533   0.862  0.0941  0.5560  0.4976
   12CHTO    H7 5034   4.094   8.559   0.927 -2.7666 -1.5404 -1.3046
   12CHTO    O2 5035   3.968   8.406   0.586 -0.3395  0.2328 -0.1022
   12CHTO    C1 5036   3.905   8.285   0.555 -0.5510 -0.0833  0.3275
   12CHTO   H14 5037   3.939   8.240   0.460 -1.4059 -0.5768  0.2532
   12CHTO    C2 5038   3.744   8.318   0.545  0.6712  0.8192  0.1236
   12CHTO   H15 5039   3.724   8.407   0.606  0.9938  1.1882 -0.3037
   12CHTO    O6 5040   3.717   8.357   0.412 -0.3787 -0.1823 -0.1508
   12CHTO    H1 5041   3.635   8.401   0.417 -0.8941 -1.2422  0.8888
   12CHTO    C3 5042   3.644   8.192   0.585 -1.0336  0.5140 -0.3712
   12CHTO   H16 5043   3.617   8.118   0.508  2.2976  0.2199 -1.2978
   12CHTO    N1 5044   3.507   8.243   0.624  0.2157  0.3112 -0.9945
   12CHTO    H8 5045   3.519   8.289   0.721 -1.7010 -0.4486 -0.3630
   12CHTO    H9 5046   3.479   8.318   0.551  1.9681 -0.9939 -3.0613
   12CHTO    C4 5047   3.720   8.108   0.693 -0.1777 -0.0379 -0.7127
   12CHTO   H17 5048   3.721   8.161   0.788 -1.1746  0.4537 -0.9624
   12CHTO    O1 5049   3.851   8.074   0.649 -0.7072 -0.0207  0.2607
   12CHTO    C5 5050   3.942   8.185   0.660 -0.2780  0.4992 -0.1315
   12CHTO   H18 5051   3.927   8.238   0.754 -1.4511 -1.2314  0.6773
   12CHTO   C16 5052   4.094   8.133   0.644 -0.2702 -0.3914 -0.2449
   12CHTO   O11 5053   4.113   8.021   0.560  0.3160 -0.2822  0.5734
   12CHTO    H5 5054   4.083   8.038   0.473 -0.0813  1.5811  1.0513
   12CHTO    O3 5055   3.657   7.982   0.724  0.1561 -1.0452 -0.0941
   12CHTO    C6 5056   3.716   7.896   0.827  0.3234 -0.2642  0.3255
   12CHTO   H19 5057   3.824   7.910   0.832 -0.0487  2.9745  0.3511
   12CHTO    C8 5058   3.646   7.929   0.956  0.1453 -0.1122 -0.1043
   12CHTO   H21 5059   3.541   7.911   0.933 -0.5891 -1.1655  3.7596
   12CHTO    O7 5060   3.662   8.064   1.002  0.5550 -0.3620 -0.1289
   12CHTO    H2 5061   3.622   8.135   0.954  1.9088 -0.1675 -0.9998
   12CHTO   C12 5062   3.694   7.816   1.055  0.1432 -0.7426  0.4449
   12CHTO   H25 5063   3.801   7.840   1.074  0.5280 -1.8889 -0.2410
   12CHTO    N3 5064   3.619   7.834   1.185  0.5816  0.6772 -0.4459
   12CHTO   H12 5065   3.654   7.756   1.252 -0.0593  2.8209  2.5007
   12CHTO   H13 5066   3.512   7.836   1.180  0.5883  1.6226 -0.2236
   12CHTO   C15 5067   3.686   7.668   0.996  0.2192  0.1359 -0.5047
   12CHTO   H28 5068   3.583   7.633   0.989  0.7658 -1.8210  0.8346
   12CHTO   O10 5069   3.763   7.562   1.076 -0.4684 -0.6218  0.2064
   12CHTO    H4 5070   3.823   7.605   1.135 -1.3034 -1.2499  1.5290
   12CHTO    O5 5071   3.753   7.662   0.872 -0.1600 -0.4138  0.6908
   12CHTO   C10 5072   3.693   7.753   0.777 -0.4054  0.2864  0.4822
   12CHTO   H23 5073   3.584   7.749   0.775 -0.4755 -1.7506  3.8749
   12CHTO   C17 5074   3.753   7.718   0.640  0.1151  0.5351 -0.0205
   12CHTO   O12 5075   3.679   7.599   0.608  0.0329  0.2668 -0.4373
   12CHTO    H6 5076   3.704   7.579   0.520 -0.9909  0.9367 -0.8927
   13CHTO  H203 5077   7.250   4.411  -0.010  0.9889 -1.6863 -2.2525
   13CHTO   O82 5078   7.162   4.377  -0.014  0.3381 -0.4806  0.4308
   13CHTO  C123 5079   7.084   4.469  -0.088  0.8049  0.4432  0.2225
   13CHTO  H227 5080   7.128   4.481  -0.188  2.9036  0.1005  1.0719
   13CHTO   O77 5081   6.956   4.396  -0.093 -0.2228 -0.1258 -0.5026
   13CHTO  C118 5082   6.860   4.468  -0.175  0.1998  0.5104 -0.2513
   13CHTO  H222 5083   6.895   4.488  -0.278  0.4297 -0.5065 -0.3762
   13CHTO  C125 5084   6.752   4.361  -0.182 -0.3978 -0.0227  0.0657
   13CHTO   O84 5085   6.689   4.349  -0.308 -0.7176 -0.5947  0.2476
   13CHTO  H205 5086   6.733   4.281  -0.355  1.7855  2.0053 -1.3687
   13CHTO  C114 5087   6.815   4.600  -0.112  0.2301  0.0847 -0.0046
   13CHTO  H218 5088   6.784   4.574  -0.011  1.7972  1.5583  0.8754
   13CHTO  C116 5089   6.936   4.683  -0.091 -0.6589 -0.3597 -0.2250
   13CHTO  H220 5090   6.965   4.735  -0.185  0.3423 -1.5965 -0.6143
   13CHTO   O79 5091   6.897   4.797  -0.016  0.3868 -0.2330  0.1653
   13CHTO  H201 5092   6.933   4.798   0.071 -0.3069  1.1585  0.4544
   13CHTO  C120 5093   7.061   4.609  -0.020  0.5099  0.1046 -0.1698
   13CHTO  H224 5094   7.033   4.600   0.087  0.3757 -0.2769 -0.2368
   13CHTO   N21 5095   7.180   4.692  -0.026 -0.2042 -0.9740  0.4375
   13CHTO  H211 5096   7.225   4.691   0.072 -1.1161  1.4082  0.9044
   13CHTO  H212 5097   7.151   4.790  -0.059  0.7262 -0.0013  2.4562
   13CHTO   O75 5098   6.707   4.657  -0.188  0.0311  0.4718 -0.0198
   13CHTO  C112 5099   6.578   4.702  -0.095 -0.5218 -0.0030  0.1056
   13CHTO  H216 5100   6.616   4.719   0.007  0.6300 -2.4495  0.1127
   13CHTO   O73 5101   6.490   4.591  -0.102  0.4142 -0.4454 -0.3307
   13CHTO  C113 5102   6.368   4.606  -0.026  0.3077 -0.5441 -0.0019
   13CHTO  H217 5103   6.397   4.618   0.080 -0.6270  0.6228  0.1278
   13CHTO  C124 5104   6.279   4.481  -0.035  0.3038 -0.3414 -0.5119
   13CHTO   O83 5105   6.353   4.365   0.007  0.0382  0.0421  0.1647
   13CHTO  H204 5106   6.362   4.307  -0.066  1.8231  1.1045 -0.4844
   13CHTO  C109 5107   6.291   4.731  -0.069  0.4747 -1.2560  0.0027
   13CHTO  H213 5108   6.255   4.718  -0.172  3.9481  1.1127 -1.6220
   13CHTO  C110 5109   6.379   4.861  -0.074 -0.3113  0.0104  0.3461
   13CHTO  H214 5110   6.396   4.892   0.029  3.5393 -2.8038  0.6479
   13CHTO   O78 5111   6.300   4.967  -0.144 -0.1638  0.2660 -0.4706
   13CHTO  H200 5112   6.223   4.983  -0.093  0.0243  1.4507 -0.5360
   13CHTO  C111 5113   6.520   4.839  -0.147  0.4212  0.3826 -0.1395
   13CHTO  H215 5114   6.504   4.828  -0.255  1.2913  1.4971 -0.3899
   13CHTO   N19 5115   6.614   4.951  -0.131 -0.2694 -0.8864 -0.0386
   13CHTO  H207 5116   6.705   4.936  -0.075 -0.9063 -0.2114  1.2051
   13CHTO  H208 5117   6.555   5.040  -0.112  0.5854  0.3889 -3.0001
   13CHTO   O74 5118   6.177   4.750   0.023  0.3442 -0.4066  0.1624
   13CHTO  C115 5119   6.041   4.846  -0.028  0.7999  0.2554  0.0915
   13CHTO  H219 5120   6.059   4.953  -0.014  0.5514  0.3770 -0.5394
   13CHTO   O76 5121   6.008   4.827  -0.180  0.1950 -0.2036 -0.0016
   13CHTO  C122 5122   5.897   4.893  -0.229  1.0242  0.3840  0.3551
   13CHTO  H226 5123   5.865   4.858  -0.327  2.2950 -1.5650  0.6138
   13CHTO  C126 5124   5.940   5.044  -0.250  0.1457 -0.3084  0.6752
   13CHTO   O85 5125   5.865   5.133  -0.333  0.6541 -0.6902  0.7242
   13CHTO  H206 5126   5.902   5.219  -0.331 -0.1203 -0.2200 -2.6174
   13CHTO  C121 5127   5.761   4.873  -0.141  0.1365  0.0024  0.2017
   13CHTO  H225 5128   5.683   4.944  -0.176  1.2871  1.2403  0.0894
   13CHTO   O81 5129   5.712   4.745  -0.159 -0.2220  0.4859 -0.1858
   13CHTO  H202 5130   5.697   4.717  -0.247 -1.6557  0.1152  0.1528
   13CHTO  C119 5131   5.784   4.890   0.011 -0.0724 -0.0119 -0.0773
   13CHTO  H223 5132   5.803   4.996   0.026  0.9862 -0.2007 -0.0402
   13CHTO  C117 5133   5.912   4.814   0.065  0.1525 -0.2021 -0.4013
   13CHTO  H221 5134   5.903   4.706   0.070  1.3190 -0.5512 -4.4126
   13CHTO   N20 5135   5.945   4.865   0.202 -0.0116  0.3954  0.8392
   13CHTO  H209 5136   5.875   4.832   0.278 -1.0206 -0.6667 -0.5360
   13CHTO  H210 5137   6.036   4.817   0.234 -0.4419 -0.1473  1.2713
   13CHTO   O80 5138   5.637   4.867   0.102 -0.5303  0.0982 -0.0023
   13CHTO  C103 5139   5.556   5.003   0.165 -0.1909 -0.1288  0.5418
   13CHTO  H190 5140   5.491   4.980   0.249 -0.6888 -1.2805 -0.1384
   13CHTO  C101 5141   5.646   5.126   0.218  0.2281  0.2188  0.4532
   13CHTO  H188 5142   5.722   5.152   0.145  2.0621 -0.1143  2.2073
   13CHTO   O68 5143   5.712   5.067   0.349 -0.4572  0.0831 -0.6342
   13CHTO  H168 5144   5.747   4.982   0.332 -0.5039 -0.1072  0.1898
   13CHTO   C99 5145   5.557   5.252   0.248 -0.1910 -0.2026 -0.5587
   13CHTO  H186 5146   5.507   5.235   0.345 -0.1991  0.1319 -0.5033
   13CHTO   N17 5147   5.634   5.378   0.271  0.3173 -0.0434 -0.3959
   13CHTO  H174 5148   5.695   5.370   0.360  0.1615  0.3530 -0.2523
   13CHTO  H175 5149   5.563   5.458   0.284 -1.8050 -2.2686  2.0444
   13CHTO   C97 5150   5.449   5.287   0.136  0.3604  0.3087 -0.3440
   13CHTO  H184 5151   5.499   5.331   0.048  1.2485  0.5154  0.2537
   13CHTO   O64 5152   5.378   5.161   0.106 -0.1754 -0.1320  0.3220
   13CHTO  C104 5153   5.459   5.054   0.050  0.0869 -0.0734 -0.3056
   13CHTO  H191 5154   5.521   5.085  -0.034  0.4180  1.1601  0.3731
   13CHTO  C108 5155   5.360   4.946  -0.004  0.6905 -0.1658 -0.6496
   13CHTO   O71 5156   5.421   4.835  -0.069  0.6249 -0.2430  0.3183
   13CHTO  H171 5157   5.463   4.784  -0.002  1.6311 -1.9369 -1.5477
   13CHTO   O62 5158   5.347   5.376   0.191  0.1302  1.0833  0.3208
   13CHTO   C91 5159   5.277   5.465   0.103 -0.0324  0.0116 -0.4756
   13CHTO  H178 5160   5.284   5.436  -0.002  2.2148 -0.2933 -0.2771
   13CHTO   C92 5161   5.325   5.612   0.108 -0.2511  0.2299 -0.5865
   13CHTO  H179 5162   5.318   5.649   0.212 -0.7365 -1.1108 -0.1329
   13CHTO   O66 5163   5.467   5.605   0.062 -0.2605  0.6645  0.0888
   13CHTO  H166 5164   5.508   5.684   0.094 -1.7486  1.7809 -0.6904
   13CHTO   C93 5165   5.244   5.717   0.020  0.3219 -0.7360 -0.8992
   13CHTO  H180 5166   5.261   5.687  -0.084  1.8667  1.4842 -1.3358
   13CHTO   N16 5167   5.286   5.864   0.037 -0.4689  0.0467 -0.2686
   13CHTO  H172 5168   5.372   5.898  -0.018 -1.0833 -2.7902 -3.1078
   13CHTO  H173 5169   5.298   5.894   0.140 -1.6493 -2.0608  0.5103
   13CHTO   C94 5170   5.090   5.699   0.052  0.1716  0.3918 -0.1932
   13CHTO  H181 5171   5.067   5.719   0.157 -0.3587  2.1138 -0.6108
   13CHTO   O61 5172   5.053   5.556   0.041 -0.4342 -0.1976  0.6788
   13CHTO   C95 5173   5.121   5.470   0.127 -0.6051  0.1737  0.1369
   13CHTO  H182 5174   5.096   5.489   0.231 -1.0974 -0.5090  0.1453
   13CHTO  C106 5175   5.062   5.326   0.095  0.4366 -0.8413 -0.3487
   13CHTO   O69 5176   4.929   5.322   0.148  0.1622 -0.9709  0.4728
   13CHTO  H169 5177   4.938   5.298   0.238 -2.9424  0.0808  1.1097
   13CHTO   O63 5178   5.001   5.782  -0.056  0.1581 -0.1319  0.1221
   13CHTO   C96 5179   4.830   5.742  -0.047  0.0535  0.6527 -0.0673
   13CHTO  H183 5180   4.776   5.821  -0.099 -0.7931  0.5012  0.5707
   13CHTO   C98 5181   4.780   5.741   0.104  0.3260  0.3519 -0.2257
   13CHTO  H185 5182   4.840   5.670   0.162  1.8270  1.1474 -0.7912
   13CHTO   O67 5183   4.822   5.868   0.154  0.0718  0.3796  0.2629
   13CHTO  H167 5184   4.764   5.937   0.129  2.0875  1.9518 -0.2251
   13CHTO  C102 5185   4.618   5.717   0.106  0.6354  0.2906 -0.5597
   13CHTO  H189 5186   4.575   5.799   0.045  0.7877 -0.8506 -2.2381
   13CHTO   N18 5187   4.546   5.725   0.237  0.2970  0.4934  0.0098
   13CHTO  H176 5188   4.564   5.826   0.272  0.3251 -0.5700  3.1592
   13CHTO  H177 5189   4.589   5.658   0.310 -2.7903 -0.9411  0.6045
   13CHTO  C105 5190   4.597   5.584   0.030 -0.0719 -0.2593  0.2901
   13CHTO  H192 5191   4.648   5.508   0.089 -1.1924 -0.1388  1.4341
   13CHTO   O65 5192   4.647   5.590  -0.106  0.1431  0.4630  0.1211
   13CHTO  C100 5193   4.789   5.603  -0.111  0.0591 -0.0552 -0.5457
   13CHTO  H187 5194   4.836   5.531  -0.044 -1.2284 -2.2890 -1.9787
   13CHTO  C107 5195   4.831   5.571  -0.254 -0.9879  0.2113  0.2844
   13CHTO   O70 5196   4.971   5.575  -0.269 -0.5924 -0.1117 -0.4525
   13CHTO  H170 5197   5.008   5.498  -0.306 -0.6144 -0.3695  0.0611
   13CHTO   O57 5198   4.441   5.540   0.024  0.1206  0.6879  0.4497
   13CHTO   C85 5199   4.346   5.600  -0.067  0.8193 -0.0363  0.1206
   13CHTO  H157 5200   4.387   5.697  -0.102  1.9069  0.8072  3.6053
   13CHTO   C83 5201   4.226   5.635   0.027 -0.3251  0.1521 -0.2797
   13CHTO  H155 5202   4.260   5.697   0.109 -1.4502 -0.7717  0.8964
   13CHTO   O56 5203   4.178   5.522   0.097 -0.0944  0.1408 -0.0079
   13CHTO  H135 5204   4.225   5.505   0.176 -3.5894  0.5049  2.2735
   13CHTO   C81 5205   4.120   5.713  -0.049 -1.0943 -0.1102 -0.0931
   13CHTO  H153 5206   4.168   5.803  -0.085  0.2018 -0.9191 -0.3961
   13CHTO   N14 5207   4.017   5.764   0.042 -0.2605  0.0924  0.2636
   13CHTO  H141 5208   3.934   5.810  -0.009 -1.1763 -0.4978  1.1960
   13CHTO  H142 5209   4.053   5.826   0.121  1.7945  0.5434 -1.0109
   13CHTO   C79 5210   4.068   5.642  -0.177 -0.4496 -0.3855 -0.6685
   13CHTO  H151 5211   4.020   5.719  -0.237  1.3694  1.8863  0.7013
   13CHTO   O52 5212   4.184   5.594  -0.255 -0.3087 -0.7256 -0.2603
   13CHTO   C86 5213   4.279   5.515  -0.179  0.1518 -0.1126  0.2057
   13CHTO  H158 5214   4.207   5.439  -0.141 -2.4047  1.5547 -1.1419
   13CHTO   C90 5215   4.383   5.448  -0.274  0.0603 -0.6013 -0.8086
   13CHTO   O60 5216   4.480   5.375  -0.211  0.0931  0.1175  0.3713
   13CHTO  H138 5217   4.559   5.426  -0.209  1.0133 -1.2524  0.5684
   13CHTO   O50 5218   3.973   5.534  -0.158 -0.4699 -0.3111  0.3473
   13CHTO   C73 5219   3.863   5.461  -0.214 -0.6907 -0.1415 -0.3986
   13CHTO  H145 5220   3.872   5.445  -0.323  1.5678 -1.3338 -0.0787
   13CHTO   C74 5221   3.722   5.530  -0.176 -0.1394  0.3776 -0.0748
   13CHTO  H146 5222   3.738   5.634  -0.210 -2.8280  0.6885 -0.4947
   13CHTO   O54 5223   3.620   5.473  -0.260  0.8713  0.0436  0.4538
   13CHTO  H133 5224   3.659   5.464  -0.345 -1.5961  1.1353 -0.8120
   13CHTO   C75 5225   3.705   5.520  -0.016  0.4055 -0.1059  0.4261
   13CHTO  H147 5226   3.792   5.572   0.028 -0.6477  2.0163  0.0311
   13CHTO   N13 5227   3.595   5.596   0.045 -0.0788  0.1340  0.5851
   13CHTO  H139 5228   3.616   5.702   0.037 -1.4032  0.5331  2.1232
   13CHTO  H140 5229   3.574   5.566   0.146 -0.0298 -1.0201  0.2565
   13CHTO   C76 5230   3.712   5.365   0.018  0.4863 -0.0091  0.4942
   13CHTO  H148 5231   3.636   5.318  -0.043 -0.1636 -0.0402  1.3242
   13CHTO   O49 5232   3.839   5.311  -0.010 -0.0797  0.1786  0.3497
   13CHTO   C77 5233   3.878   5.319  -0.149  0.1530 -0.0211  0.3238
   13CHTO  H149 5234   3.812   5.254  -0.207 -0.5244 -0.1515  1.2254
   13CHTO   C88 5235   4.018   5.253  -0.156  0.2472 -0.5495  0.1813
   13CHTO   O58 5236   4.081   5.245  -0.291  0.2751  0.5942  0.1070
   13CHTO  H136 5237   4.071   5.157  -0.322  0.5035  0.7319 -0.3618
   13CHTO   O51 5238   3.683   5.324   0.186 -0.4722 -0.1311 -0.8320
   13CHTO   C78 5239   3.810   5.332   0.298  0.1575 -0.1673 -0.0774
   13CHTO  H150 5240   3.769   5.314   0.400 -2.8212  1.9309 -0.8234
   13CHTO   C80 5241   3.891   5.465   0.297 -0.0440 -0.2093 -0.4308
   13CHTO  H152 5242   3.934   5.481   0.196  0.6397  1.2091  0.0793
   13CHTO   O55 5243   3.794   5.567   0.327  0.6138 -0.4666  0.1345
   13CHTO  H134 5244   3.827   5.646   0.287 -0.7254 -0.4065 -0.9004
   13CHTO   C84 5245   4.009   5.451   0.401 -0.3883  0.4362  0.5059
   13CHTO  H156 5246   3.970   5.415   0.496 -2.6071  0.8666 -0.2207
   13CHTO   N15 5247   4.094   5.575   0.424  0.3226  0.3093 -0.0416
   13CHTO  H143 5248   4.087   5.640   0.340 -2.0612 -0.2188 -0.2928
   13CHTO  H144 5249   4.196   5.543   0.435  0.6305  0.5450 -2.0629
   13CHTO   C87 5250   4.086   5.323   0.360 -0.0436  0.1252  0.0682
   13CHTO  H159 5251   4.119   5.330   0.256 -0.1578 -0.9130 -0.0414
   13CHTO   O53 5252   4.001   5.210   0.373 -0.5732  0.5300  0.1661
   13CHTO   C82 5253   3.900   5.209   0.273 -0.2953 -1.0584 -0.0913
   13CHTO  H154 5254   3.938   5.199   0.171  2.1606 -2.1423  0.8969
   13CHTO   C89 5255   3.817   5.086   0.305  0.3341 -0.0205  0.5010
   13CHTO   O59 5256   3.894   4.962   0.297  0.8283 -0.6551  0.6402
   13CHTO  H137 5257   3.917   4.942   0.208 -1.8114  1.0705 -0.4945
   13CHTO   O45 5258   4.204   5.296   0.462 -0.2202 -0.0463 -0.1933
   13CHTO   C67 5259   4.333   5.292   0.406  0.1435 -0.1158  0.5421
   13CHTO  H124 5260   4.329   5.271   0.299  3.3803 -0.1938  0.3760
   13CHTO   C65 5261   4.414   5.415   0.420 -0.4438 -0.5321 -0.8165
   13CHTO  H122 5262   4.341   5.489   0.388  1.9717  1.4218 -1.9073
   13CHTO   O44 5263   4.532   5.406   0.345  0.7520  0.6440  0.0390
   13CHTO  H102 5264   4.562   5.494   0.331  2.9906  0.0659  0.9113
   13CHTO   C63 5265   4.432   5.432   0.576 -0.7249 -0.1860 -0.8075
   13CHTO  H120 5266   4.331   5.422   0.617 -0.0351 -0.1151  0.9607
   13CHTO   N11 5267   4.465   5.567   0.619  0.1956  0.1924  0.7731
   13CHTO  H108 5268   4.405   5.626   0.553  1.1645  0.4499  0.1172
   13CHTO  H109 5269   4.451   5.582   0.724 -1.3065 -2.6151  1.0296
   13CHTO   C61 5270   4.520   5.319   0.640  1.2454  1.2281  0.5302
   13CHTO  H118 5271   4.502   5.323   0.749 -1.4279  0.0418  0.1705
   13CHTO   O40 5272   4.479   5.186   0.597 -0.1086  0.0554 -0.4392
   13CHTO   C68 5273   4.410   5.167   0.472 -0.1780  0.1343 -0.4355
   13CHTO  H125 5274   4.322   5.100   0.487 -1.1170  1.0493 -1.7344
   13CHTO   C72 5275   4.505   5.095   0.381 -0.2496  0.0654 -0.4833
   13CHTO   O48 5276   4.467   5.064   0.244 -0.5451  0.8436 -0.1948
   13CHTO  H105 5277   4.408   5.127   0.205 -1.0571 -0.5615 -1.7952
   13CHTO   O38 5278   4.657   5.339   0.612  0.2348  0.4068 -0.1791
   13CHTO   C55 5279   4.744   5.313   0.726 -0.4472  0.6449  0.7301
   13CHTO  H112 5280   4.734   5.210   0.764  1.0999 -0.0333 -0.6534
   13CHTO   C56 5281   4.722   5.421   0.846  0.7635  0.5449  0.2880
   13CHTO  H113 5282   4.690   5.515   0.797  1.5115  0.8671  0.4126
   13CHTO   O42 5283   4.596   5.397   0.927 -0.4326 -0.4587  0.2490
   13CHTO  H100 5284   4.621   5.326   0.983  3.0583  0.6615  0.2753
   13CHTO   C57 5285   4.849   5.437   0.946  0.6420 -0.4116 -0.2300
   13CHTO  H114 5286   4.841   5.356   1.020  0.1983 -1.0518 -0.9635
   13CHTO   N10 5287   4.856   5.563   1.024 -0.1422 -0.1927 -0.1829
   13CHTO  H106 5288   4.923   5.546   1.107 -0.6763 -0.6083  0.1692
   13CHTO  H107 5289   4.758   5.601   1.050  0.5208  0.0636  2.0140
   13CHTO   C58 5290   4.984   5.424   0.869  0.2055 -0.2779  0.0820
   13CHTO  H115 5291   5.003   5.522   0.819  0.1616  0.3572  1.2803
   13CHTO   O37 5292   4.987   5.320   0.770 -0.3582  0.3032 -0.3456
   13CHTO   C59 5293   4.892   5.326   0.662  0.0090 -0.2648  0.2933
   13CHTO  H116 5294   4.890   5.413   0.597 -0.2438 -2.2349 -2.4255
   13CHTO   C70 5295   4.922   5.196   0.582 -0.0384  0.9967  0.1507
   13CHTO   O46 5296   4.848   5.192   0.459 -0.1448 -0.0633 -0.1648
   13CHTO  H103 5297   4.865   5.112   0.413  1.4250 -0.9232  1.8205
   13CHTO   O39 5298   5.111   5.387   0.971  0.1689 -0.2366 -0.6123
   13CHTO   C60 5299   5.231   5.464   0.956 -0.0556  0.3478 -0.6395
   13CHTO  H117 5300   5.232   5.494   0.851 -1.1591 -1.6818 -1.2595
   13CHTO   C62 5301   5.238   5.590   1.048  0.3498 -0.1652 -0.0398
   13CHTO  H119 5302   5.176   5.669   1.002  0.8125  0.3751  0.2508
   13CHTO   O43 5303   5.196   5.550   1.179 -0.8525 -0.8127  0.2359
   13CHTO  H101 5304   5.242   5.585   1.254 -1.3623 -0.7277  0.5155
   13CHTO   C66 5305   5.386   5.658   1.049  0.3593 -0.2020 -0.0045
   13CHTO  H123 5306   5.406   5.693   0.947  0.6907 -1.2290 -0.2993
   13CHTO   N12 5307   5.402   5.774   1.138 -0.3200  0.2097  0.2089
   13CHTO  H110 5308   5.343   5.859   1.106  3.0645  2.4114 -0.4921
   13CHTO  H111 5309   5.412   5.761   1.245  0.4432  0.5345  0.1801
   13CHTO   C69 5310   5.486   5.543   1.089 -0.1541  0.0250 -0.4989
   13CHTO  H126 5311   5.467   5.506   1.192 -0.3786 -2.1717 -1.2939
   13CHTO   O41 5312   5.469   5.440   0.987  0.4888  0.5302 -0.2485
   13CHTO   C64 5313   5.349   5.365   0.975  0.1183 -0.0951  0.8724
   13CHTO  H121 5314   5.332   5.309   1.070  2.2286 -1.3482  0.5416
   13CHTO   C71 5315   5.366   5.271   0.859 -0.2650  0.5111  0.2643
   13CHTO   O47 5316   5.458   5.166   0.893 -0.1641 -0.3058 -0.4206
   13CHTO  H104 5317   5.544   5.204   0.887 -0.7559  0.8955 -1.4755
   13CHTO   O34 5318   5.641   5.598   1.081  0.1449 -0.1229 -0.1147
   13CHTO   C49 5319   5.768   5.598   1.130 -0.1206  0.7353  0.2371
   13CHTO   H91 5320   5.804   5.497   1.107 -0.8188  0.6339 -0.4211
   13CHTO   C47 5321   5.772   5.610   1.283  0.6011  0.6221 -0.2342
   13CHTO   H89 5322   5.879   5.586   1.296  0.2334 -1.3766 -0.7171
   13CHTO   O33 5323   5.698   5.503   1.345 -0.9653 -0.1868  0.2393
   13CHTO   H70 5324   5.619   5.494   1.295  1.1802 -0.6570 -3.2409
   13CHTO   C45 5325   5.741   5.759   1.330  0.3771  0.4684 -0.6708
   13CHTO   H87 5326   5.633   5.769   1.344  0.7584  1.5203  1.9899
   13CHTO    N8 5327   5.804   5.791   1.465  0.4518  0.3014  0.0618
   13CHTO   H75 5328   5.770   5.886   1.502  0.2463  0.4299 -0.4571
   13CHTO   H76 5329   5.912   5.795   1.463  0.4951 -0.9298 -1.0310
   13CHTO   C43 5330   5.775   5.868   1.217 -0.2829  0.6988  0.2073
   13CHTO   H85 5331   5.684   5.871   1.157  0.0919  0.1557 -0.3920
   13CHTO   O29 5332   5.886   5.823   1.140 -0.2027  0.2075 -0.6158
   13CHTO   C50 5333   5.864   5.702   1.060 -0.0805 -0.0945  0.3450
   13CHTO   H92 5334   5.821   5.723   0.961 -1.7249  0.2596  1.1161
   13CHTO   C54 5335   5.991   5.633   1.022 -0.4501  0.0944 -0.3582
   13CHTO   O36 5336   6.060   5.682   0.910 -0.6216 -0.1910 -0.2934
   13CHTO   H72 5337   6.153   5.683   0.905 -0.6250 -0.9680 -0.4468
   13CHTO   O27 5338   5.793   6.005   1.255 -0.0978  0.4424  0.1319
   13CHTO   C37 5339   5.787   6.148   1.239 -0.0782  0.4383  0.7016
   13CHTO   H79 5340   5.689   6.168   1.193 -0.5867  0.4004  1.7609
   13CHTO   C38 5341   5.801   6.225   1.372 -0.2231  0.3640 -0.6311
   13CHTO   H80 5342   5.891   6.190   1.426  0.2203  2.9275  0.3604
   13CHTO   O31 5343   5.687   6.188   1.453  0.1311 -0.0201 -0.4960
   13CHTO   H68 5344   5.686   6.098   1.481  0.3995  0.1476  0.0688
   13CHTO   C39 5345   5.790   6.379   1.344 -0.5233 -0.7889 -0.7414
   13CHTO   H81 5346   5.691   6.397   1.302  0.7170  3.0116 -2.2508
   13CHTO    N7 5347   5.808   6.462   1.462  0.3039 -0.1891 -0.2847
   13CHTO   H73 5348   5.901   6.517   1.460 -0.5907  1.3418 -0.2274
   13CHTO   H74 5349   5.720   6.524   1.472  0.6641  0.5390 -1.4278
   13CHTO   C40 5350   5.887   6.434   1.228  0.2600 -0.0856 -0.0960
   13CHTO   H82 5351   5.987   6.455   1.266  0.9063 -1.1382 -1.1528
   13CHTO   O26 5352   5.892   6.330   1.122 -0.6010 -0.3381  0.1553
   13CHTO   C41 5353   5.904   6.192   1.141 -0.4519 -0.2224 -0.0687
   13CHTO   H83 5354   6.000   6.179   1.194  0.3507  0.8669 -1.2228
   13CHTO   C52 5355   5.901   6.121   1.000 -0.1109 -0.1027  0.1521
   13CHTO   O35 5356   5.769   6.099   0.931  0.0625 -0.7298 -0.1347
   13CHTO   H71 5357   5.772   6.068   0.842  0.2481 -1.5196  0.1462
   13CHTO   O28 5358   5.827   6.555   1.177  0.6602  0.3445  0.5864
   13CHTO   C42 5359   5.892   6.656   1.089  0.6111  0.8308 -0.1459
   13CHTO   H84 5360   5.983   6.604   1.059  0.8063  1.2357 -0.2566
   13CHTO   C44 5361   5.936   6.782   1.163  0.2404 -0.0429 -0.6793
   13CHTO   H86 5362   5.850   6.816   1.220 -0.7619  0.2195 -2.3237
   13CHTO   O32 5363   6.036   6.736   1.255 -0.7874 -0.3898 -0.1650
   13CHTO   H69 5364   6.112   6.697   1.215 -0.3800  1.3152 -1.0838
   13CHTO   C48 5365   5.987   6.896   1.072 -1.1165  0.1025  0.1026
   13CHTO   H90 5366   6.069   6.849   1.017 -0.6714  0.0362  0.8239
   13CHTO    N9 5367   6.024   7.023   1.148 -0.4393  0.1230  0.1596
   13CHTO   H77 5368   6.078   6.994   1.237  0.3347 -2.8872 -1.2179
   13CHTO   H78 5369   6.071   7.095   1.083 -0.0141 -0.4852 -0.2199
   13CHTO   C51 5370   5.876   6.913   0.967  0.4370  0.5070 -0.1031
   13CHTO   H93 5371   5.779   6.931   1.013  0.9379  1.2701  0.6751
   13CHTO   O30 5372   5.879   6.791   0.883  0.5223  0.6586 -0.3077
   13CHTO   C46 5373   5.809   6.683   0.964  0.0844  0.5910  0.6679
   13CHTO   H88 5374   5.706   6.705   0.991 -0.6636  0.9302 -2.2349
   13CHTO   C53 5375   5.806   6.554   0.876 -0.6836  0.2835 -0.0843
   13CHTO   O72 5376   5.938   6.514   0.830 -0.5499  0.0716 -0.5665
   13CHTO  H199 5377   5.925   6.437   0.779 -1.5878 -1.0541  1.3701
   13CHTO   O22 5378   5.891   7.017   0.872  0.0929 -0.2638  0.1114
   13CHTO   C31 5379   5.792   7.080   0.786 -0.2510 -0.2089 -0.2681
   13CHTO   H59 5380   5.845   7.155   0.724 -1.0902  0.7756  0.1970
   13CHTO   C29 5381   5.727   6.976   0.692  0.8793 -0.0354  0.3062
   13CHTO   H57 5382   5.683   6.900   0.759  1.8202 -2.5050 -1.7970
   13CHTO   O21 5383   5.822   6.902   0.607  0.1246  0.0830 -0.1868
   13CHTO   H37 5384   5.788   6.882   0.522  0.8048  0.1650 -0.4787
   13CHTO   C27 5385   5.604   7.033   0.607  0.1400 -0.1323 -0.2564
   13CHTO   H55 5386   5.643   7.095   0.525 -0.6974  1.0493  0.2281
   13CHTO    N5 5387   5.515   6.930   0.546 -0.3290  0.2717  0.6820
   13CHTO   H43 5388   5.414   6.936   0.581 -0.9699  1.0633 -1.2094
   13CHTO   H44 5389   5.532   6.915   0.440  0.0970  2.2057  0.4556
   13CHTO   C25 5390   5.517   7.135   0.692  0.3379 -0.1066 -0.7432
   13CHTO   H53 5391   5.443   7.087   0.758  1.4726  1.5225  1.7745
   13CHTO   O17 5392   5.603   7.223   0.765  0.2190 -0.1706  0.0137
   13CHTO   C32 5393   5.684   7.160   0.865  0.1332  0.0023 -0.5139
   13CHTO   H60 5394   5.624   7.085   0.917  0.8596  0.2125  0.6611
   13CHTO   C36 5395   5.746   7.271   0.961 -0.6854  0.4500  0.0739
   13CHTO   O25 5396   5.648   7.361   1.000 -0.3731 -0.4416  0.2696
   13CHTO   H40 5397   5.622   7.336   1.087 -0.0091 -1.3727  0.1175
   13CHTO   O15 5398   5.416   7.227   0.597  0.2432  0.4655  0.3468
   13CHTO   C19 5399   5.288   7.284   0.645 -0.1916  0.4166  0.3121
   13CHTO   H47 5400   5.280   7.236   0.744 -0.4831 -3.0425 -1.2945
   13CHTO   C20 5401   5.299   7.443   0.651  0.4113 -0.9339  0.0591
   13CHTO   H48 5402   5.349   7.482   0.561  1.5950 -0.8705  0.7352
   13CHTO   O19 5403   5.385   7.469   0.756 -0.1369 -0.4801 -0.8408
   13CHTO   H35 5404   5.345   7.467   0.840  1.4024 -0.6795 -0.1006
   13CHTO   C21 5405   5.160   7.510   0.679 -0.1148  0.3580 -0.6866
   13CHTO   H49 5406   5.141   7.502   0.786  0.0932 -1.2839 -0.7644
   13CHTO    N4 5407   5.163   7.655   0.649 -0.5096 -0.3265 -0.6701
   13CHTO   H41 5408   5.220   7.670   0.558 -0.4630  0.7179 -0.4787
   13CHTO   H42 5409   5.064   7.696   0.634  0.8811  3.7322  0.4697
   13CHTO   C22 5410   5.036   7.446   0.605 -0.1407  0.0058 -0.6000
   13CHTO   H50 5411   5.022   7.468   0.499 -1.2622 -0.0905 -0.4717
   13CHTO   O14 5412   5.041   7.301   0.625 -0.5024 -0.0500 -0.1168
   13CHTO   C23 5413   5.160   7.241   0.566  0.0405  0.5089  0.8918
   13CHTO   H51 5414   5.162   7.268   0.460 -1.1677 -0.0854  0.7088
   13CHTO   C34 5415   5.150   7.086   0.582  0.0363  0.1651  0.1760
   13CHTO   O23 5416   5.138   7.043   0.719 -0.0526  0.3194 -0.0153
   13CHTO   H38 5417   5.204   7.086   0.771  0.3612 -0.7474  0.3478
   13CHTO   O16 5418   4.912   7.466   0.682  0.7191  0.3612  0.0798
   13CHTO   C24 5419   4.764   7.461   0.588 -0.1920 -0.1111  0.0828
   13CHTO   H52 5420   4.785   7.444   0.482 -3.0936  2.3913 -0.9517
   13CHTO   C26 5421   4.687   7.589   0.619  0.0186 -0.0122  0.3914
   13CHTO   H54 5422   4.689   7.604   0.729 -0.0399  2.4022  0.0972
   13CHTO   O20 5423   4.760   7.700   0.573  0.2157  0.3706 -0.0326
   13CHTO   H36 5424   4.785   7.681   0.484 -1.7809 -1.8758 -0.1789
   13CHTO   C30 5425   4.539   7.586   0.572 -0.0869 -0.1482  0.3384
   13CHTO   H58 5426   4.533   7.572   0.463 -3.1769  2.7207  0.0588
   13CHTO    N6 5427   4.471   7.716   0.603  0.2974 -0.3853 -0.0113
   13CHTO   H45 5428   4.416   7.744   0.515  0.6989 -0.8671 -0.4193
   13CHTO   H46 5429   4.402   7.696   0.684 -1.2864  0.1598 -1.2078
   13CHTO   C33 5430   4.472   7.460   0.633  0.1933  0.1270 -0.2509
   13CHTO   H61 5431   4.470   7.466   0.743  0.8068 -2.4345 -0.0652
   13CHTO   O18 5432   4.547   7.345   0.593  0.0793 -0.0648 -0.0624
   13CHTO   C28 5433   4.685   7.342   0.638 -0.2648 -0.0412 -0.3193
   13CHTO   H56 5434   4.685   7.343   0.747  2.5424  0.0117 -0.2712
   13CHTO   C35 5435   4.742   7.202   0.598  1.0605 -0.0805 -0.6522
   13CHTO   O24 5436   4.753   7.169   0.459 -0.6789  0.6600  0.7361
   13CHTO   H39 5437   4.835   7.129   0.441 -2.2271 -2.6919  0.7266
   13CHTO    O9 5438   4.336   7.450   0.592 -0.0195  0.0049 -0.1283
   13CHTO   C13 5439   4.263   7.340   0.676  0.1034 -0.4928  0.8529
   13CHTO   H26 5440   4.334   7.300   0.751  1.4512  0.7282  0.2548
   13CHTO   C11 5441   4.212   7.225   0.582 -0.8644  0.6036 -0.0393
   13CHTO   H24 5442   4.300   7.178   0.534 -0.5147  0.9149  0.3004
   13CHTO    O8 5443   4.132   7.284   0.484 -0.0094  0.2506  0.2098
   13CHTO    H3 5444   4.185   7.322   0.417 -1.0340 -0.3802 -0.9616
   13CHTO    C9 5445   4.150   7.120   0.675 -0.2951  0.2641  0.1582
   13CHTO   H22 5446   4.229   7.084   0.742 -0.5320 -1.8731 -0.6639
   13CHTO    N2 5447   4.116   6.992   0.599 -0.2503  0.5180  0.6085
   13CHTO   H10 5448   4.031   7.011   0.537  0.4833  0.9231 -0.2853
   13CHTO   H11 5449   4.203   6.952   0.548  0.5685  2.0320  0.7929
   13CHTO    C7 5450   4.036   7.195   0.761  0.1919 -1.1804 -0.1122
   13CHTO   H20 5451   4.065   7.170   0.865  0.0938  0.1087  0.2323
   13CHTO    O4 5452   4.018   7.338   0.730  0.5217 -0.1238  0.4111
   13CHTO   C14 5453   4.143   7.411   0.755 -0.7107 -0.1242  0.1854
   13CHTO   H27 5454   4.164   7.417   0.864 -0.5553 -0.6021  0.1840
   13CHTO   C18 5455   4.101   7.559   0.713  0.0366  0.3680  0.1544
   13CHTO   O13 5456   4.061   7.630   0.832  0.6228 -0.0763  0.1579
   13CHTO    H7 5457   3.968   7.646   0.836  0.9220  1.3260  3.0739
   13CHTO    O2 5458   3.892   7.118   0.750 -0.2692 -0.9399 -0.0653
   13CHTO    C1 5459   3.829   7.088   0.881 -0.3271  0.5619 -0.7542
   13CHTO   H14 5460   3.901   7.115   0.962 -1.1354  0.9790 -0.1754
   13CHTO    C2 5461   3.789   6.932   0.913  0.1128  0.1713 -0.6856
   13CHTO   H15 5462   3.725   6.901   0.829  0.2239  0.5332 -0.9045
   13CHTO    O6 5463   3.911   6.850   0.914  0.0650 -0.4623  0.2980
   13CHTO    H1 5464   3.936   6.831   0.826 -3.6635 -1.4969 -0.6189
   13CHTO    C3 5465   3.713   6.925   1.051 -0.3295  0.4835 -0.1430
   13CHTO   H16 5466   3.792   6.935   1.127 -0.0363 -1.8652 -0.0853
   13CHTO    N1 5467   3.654   6.784   1.074 -0.7309 -0.2883  0.5560
   13CHTO    H8 5468   3.579   6.781   1.151 -1.8671 -0.9198 -0.5529
   13CHTO    H9 5469   3.624   6.736   0.981  1.9060  1.0750 -1.0503
   13CHTO    C4 5470   3.602   7.037   1.071 -0.0690 -0.1887  1.1801
   13CHTO   H17 5471   3.508   7.012   1.021 -0.0700  0.1658  1.0051
   13CHTO    O1 5472   3.656   7.168   1.027  0.1719  0.0228  0.4438
   13CHTO    C5 5473   3.702   7.174   0.898 -0.1501 -0.4211 -0.4747
   13CHTO   H18 5474   3.615   7.128   0.850  0.2376 -2.2245  0.4956
   13CHTO   C16 5475   3.720   7.322   0.846  0.0631 -0.7774  0.4299
   13CHTO   O11 5476   3.594   7.388   0.871  0.2089 -0.6632 -0.0484
   13CHTO    H5 5477   3.602   7.446   0.945  1.5110  1.1728 -1.5724
   13CHTO    O3 5478   3.567   7.044   1.211 -1.1885  0.4176 -0.3213
   13CHTO    C6 5479   3.438   7.107   1.233 -0.2264 -0.0973 -0.4215
   13CHTO   H19 5480   3.398   7.158   1.146 -1.6010 -1.4528 -0.6074
   13CHTO    C8 5481   3.343   6.998   1.277  0.0752 -0.7538  0.1690
   13CHTO   H21 5482   3.386   6.951   1.365  2.5255  1.9296  0.4925
   13CHTO    O7 5483   3.332   6.905   1.167 -1.0368  0.0230 -0.5997
   13CHTO    H2 5484   3.282   6.938   1.095 -2.3899 -0.7170 -0.0090
   13CHTO   C12 5485   3.201   7.061   1.324  0.1591  0.3074 -0.2668
   13CHTO   H25 5486   3.157   7.099   1.229  2.5305 -2.6094 -2.6615
   13CHTO    N3 5487   3.110   6.955   1.376 -0.5499  0.3769 -0.0681
   13CHTO   H12 5488   3.101   6.957   1.484 -1.1484  1.3826 -0.1368
   13CHTO   H13 5489   3.019   6.949   1.317  0.3237  0.4354 -1.4331
   13CHTO   C15 5490   3.219   7.185   1.422 -0.3811  0.1074  1.4057
   13CHTO   H28 5491   3.265   7.166   1.519  0.5078  1.8127  1.3509
   13CHTO   O10 5492   3.088   7.280   1.452 -0.0460 -0.0207 -0.2893
   13CHTO    H4 5493   3.057   7.314   1.370  1.0376 -1.1852 -1.2020
   13CHTO    O5 5494   3.309   7.274   1.355 -0.2274 -0.5534  0.0259
   13CHTO   C10 5495   3.443   7.217   1.342 -0.6987  0.3074  0.5182
   13CHTO   H23 5496   3.485   7.181   1.436  2.8119  0.7939 -0.7768
   13CHTO   C17 5497   3.532   7.333   1.303 -0.6042 -0.1500  0.2819
   13CHTO   O12 5498   3.666   7.309   1.275  0.1374 -0.4124  0.4162
   13CHTO    H6 5499   3.671   7.242   1.209  2.9979  0.1153  0.0317
   14CHTO  H203 5500   5.760   4.276   3.261 -3.0005  2.1427  3.4861
   14CHTO   O82 5501   5.808   4.355   3.246 -0.7197  0.1889 -0.2541
   14CHTO  C123 5502   5.738   4.478   3.222 -0.6709 -0.3083  0.4668
   14CHTO  H227 5503   5.815   4.556   3.209 -1.7421  0.8054  0.7215
   14CHTO   O77 5504   5.686   4.463   3.089  0.4569  0.1047 -0.0456
   14CHTO  C118 5505   5.618   4.576   3.027 -0.5269 -0.2351 -0.9471
   14CHTO  H222 5506   5.681   4.662   3.000 -0.1712 -0.7851 -1.9244
   14CHTO  C125 5507   5.564   4.518   2.896  0.1816  0.4641  0.5074
   14CHTO   O84 5508   5.671   4.504   2.801  0.1559 -0.4019  0.1187
   14CHTO  H205 5509   5.639   4.507   2.712 -1.4363  0.2257  0.6914
   14CHTO  C114 5510   5.495   4.617   3.119 -0.2270 -0.1082  0.6411
   14CHTO  H218 5511   5.425   4.533   3.110 -1.4081  1.0448 -1.3872
   14CHTO  C116 5512   5.531   4.634   3.272  0.4244 -0.1548 -0.4711
   14CHTO  H220 5513   5.569   4.738   3.284 -2.6029  1.1577 -1.8825
   14CHTO   O79 5514   5.407   4.621   3.349  0.3585  0.4118 -0.0939
   14CHTO  H201 5515   5.370   4.700   3.384  0.3506 -0.4793  1.9844
   14CHTO  C120 5516   5.628   4.516   3.323  0.3549  0.3813  0.5056
   14CHTO  H224 5517   5.567   4.428   3.352  0.1660  1.0953  2.3166
   14CHTO   N21 5518   5.684   4.563   3.450 -0.4909  0.9772  0.3559
   14CHTO  H211 5519   5.692   4.671   3.447 -0.3673  0.9138 -2.4310
   14CHTO  H212 5520   5.777   4.513   3.472 -2.2334 -1.5811  2.1664
   14CHTO   O75 5521   5.435   4.722   3.042 -0.1116 -0.5834  0.2831
   14CHTO  C112 5522   5.277   4.730   3.055  0.0236  0.3615 -0.4291
   14CHTO  H216 5523   5.247   4.703   3.157  0.1598  1.1466 -0.1787
   14CHTO   O73 5524   5.224   4.633   2.954 -0.5385 -0.3411 -0.4095
   14CHTO  C113 5525   5.082   4.609   2.951  0.0006  0.4031  0.2718
   14CHTO  H217 5526   5.071   4.563   3.051 -0.8773  0.5596  0.2498
   14CHTO  C124 5527   5.048   4.510   2.835  0.3073  0.1142 -0.2387
   14CHTO   O83 5528   5.128   4.537   2.722 -0.5157 -0.0501  0.6756
   14CHTO  H204 5529   5.089   4.488   2.652  1.0792  0.0967 -0.3374
   14CHTO  C109 5530   5.018   4.747   2.928  0.1372 -0.1904  0.1918
   14CHTO  H213 5531   5.037   4.782   2.826 -0.6379 -0.2798  0.0141
   14CHTO  C110 5532   5.066   4.854   3.034 -0.5353 -0.5174  0.0667
   14CHTO  H214 5533   5.036   4.827   3.136 -1.5044  0.2639 -0.0015
   14CHTO   O78 5534   4.986   4.970   3.008 -0.0330  0.1863  0.3758
   14CHTO  H200 5535   5.042   5.045   3.009 -1.4702  1.2894 -0.3969
   14CHTO  C111 5536   5.222   4.870   3.024 -0.2963 -0.4930 -0.1495
   14CHTO  H215 5537   5.252   4.896   2.921 -0.2860  0.4844  0.0885
   14CHTO   N19 5538   5.276   4.973   3.118  0.0225 -0.4967 -0.1515
   14CHTO  H207 5539   5.365   4.938   3.167  0.4702  1.3368  0.3990
   14CHTO  H208 5540   5.214   4.968   3.205  0.2148  1.4342  0.1180
   14CHTO   O74 5541   4.873   4.735   2.946 -0.0920 -0.1078 -0.5735
   14CHTO  C115 5542   4.769   4.828   2.846  0.2767 -0.3927 -0.3795
   14CHTO  H219 5543   4.719   4.908   2.901  1.2806  0.3317 -0.5104
   14CHTO   O76 5544   4.852   4.909   2.726 -0.0328  0.8084  0.1336
   14CHTO  C122 5545   4.774   4.998   2.641  0.1519 -0.6459 -0.0895
   14CHTO  H226 5546   4.842   5.039   2.566  0.1212 -0.5639 -0.0725
   14CHTO  C126 5547   4.720   5.126   2.720 -1.0224 -0.0609 -0.0076
   14CHTO   O85 5548   4.635   5.209   2.639  0.0345 -0.8884 -0.1741
   14CHTO  H206 5549   4.680   5.270   2.585  0.8372 -0.4749  0.9349
   14CHTO  C121 5550   4.657   4.905   2.569  0.4579  0.5526 -0.8410
   14CHTO  H225 5551   4.587   4.972   2.517  1.5521  2.3074 -0.0829
   14CHTO   O81 5552   4.729   4.819   2.476  0.7152  0.5242 -0.1807
   14CHTO  H202 5553   4.773   4.746   2.516 -2.0367 -1.1417 -0.0634
   14CHTO  C119 5554   4.569   4.821   2.676 -0.3362 -0.2444 -0.3130
   14CHTO  H223 5555   4.521   4.900   2.734  0.1580  0.2336 -0.5491
   14CHTO  C117 5556   4.653   4.734   2.782  0.1355  0.2575 -0.0721
   14CHTO  H221 5557   4.701   4.645   2.742 -1.1642  0.5866 -2.4536
   14CHTO   N20 5558   4.562   4.681   2.892 -0.2782  0.7128 -0.1346
   14CHTO  H209 5559   4.481   4.627   2.844  1.1464 -0.4474 -1.3095
   14CHTO  H210 5560   4.534   4.753   2.967  2.2624  0.4078  1.1520
   14CHTO   O80 5561   4.440   4.753   2.615  0.7548 -0.2012  0.1974
   14CHTO  C103 5562   4.341   4.830   2.497  0.0127  0.1125 -0.9153
   14CHTO  H190 5563   4.388   4.927   2.486  1.0609 -0.2347  0.3370
   14CHTO  C101 5564   4.321   4.755   2.359  0.5838 -0.1007  0.8589
   14CHTO  H188 5565   4.292   4.655   2.391  0.4738 -0.1660  0.5490
   14CHTO   O68 5566   4.464   4.744   2.276 -0.2509 -0.0512  0.4277
   14CHTO  H168 5567   4.525   4.703   2.335 -2.0940 -0.6816  1.9611
   14CHTO   C99 5568   4.209   4.822   2.266 -0.5391  0.2751 -0.9388
   14CHTO  H186 5569   4.225   4.928   2.239  1.3200  0.8398  2.1050
   14CHTO   N17 5570   4.196   4.753   2.132 -0.1260  0.4006 -0.0581
   14CHTO  H174 5571   4.135   4.811   2.064  1.3740  1.3377 -0.6375
   14CHTO  H175 5572   4.167   4.649   2.138  2.7156 -0.4525 -0.4190
   14CHTO   C97 5573   4.079   4.822   2.353 -0.3002 -0.3407  0.1500
   14CHTO  H184 5574   4.047   4.719   2.376  0.7733 -0.5834  0.5836
   14CHTO   O64 5575   4.107   4.902   2.470  0.1550 -0.3025 -0.4966
   14CHTO  C104 5576   4.192   4.845   2.565 -0.5862 -0.3482 -0.2569
   14CHTO  H191 5577   4.147   4.748   2.587  1.8250 -1.0968  1.6377
   14CHTO  C108 5578   4.199   4.922   2.696  0.0180  0.4586  0.1279
   14CHTO   O71 5579   4.278   4.855   2.801 -0.0756  0.5119  0.8222
   14CHTO  H171 5580   4.370   4.853   2.789 -0.1423  0.9842  0.2315
   14CHTO   O62 5581   3.966   4.881   2.283  0.0671  0.3157  0.0015
   14CHTO   C91 5582   3.830   4.848   2.314  1.3274 -0.9743  0.2998
   14CHTO  H178 5583   3.828   4.750   2.362 -0.4767 -0.1335  2.0231
   14CHTO   C92 5584   3.766   4.829   2.172  0.0304  0.5232 -0.2656
   14CHTO  H179 5585   3.815   4.891   2.095  0.8389 -0.9742 -0.9746
   14CHTO   O66 5586   3.811   4.699   2.133  0.0757 -0.1803 -0.5753
   14CHTO  H166 5587   3.754   4.628   2.157 -0.5141  0.4885  0.0157
   14CHTO   C93 5588   3.611   4.843   2.165 -0.0855 -0.4445 -0.1301
   14CHTO  H180 5589   3.564   4.758   2.216  0.4237 -1.2804 -1.0116
   14CHTO   N16 5590   3.555   4.835   2.032 -0.0172 -0.6036  0.6647
   14CHTO  H172 5591   3.611   4.882   1.953  1.0693 -0.4600  1.5037
   14CHTO  H173 5592   3.539   4.732   2.001  1.1536 -0.1369 -1.5895
   14CHTO   C94 5593   3.582   4.972   2.246  0.4476 -0.1107  0.3442
   14CHTO  H181 5594   3.636   5.058   2.207 -0.0788 -0.6426 -1.6310
   14CHTO   O61 5595   3.618   4.950   2.381 -0.0572  0.0863  0.1567
   14CHTO   C95 5596   3.759   4.955   2.408 -0.1734  0.5167  0.9227
   14CHTO  H182 5597   3.801   5.053   2.386  1.9083 -0.7410 -0.9660
   14CHTO  C106 5598   3.788   4.920   2.564 -0.5961 -0.0603  0.7725
   14CHTO   O69 5599   3.712   5.016   2.640 -0.6943  0.8020  0.7157
   14CHTO  H169 5600   3.623   5.008   2.611  0.0463 -0.3523 -1.4107
   14CHTO   O63 5601   3.421   5.019   2.242 -0.1516  0.1702 -0.1366
   14CHTO   C96 5602   3.415   5.155   2.332 -0.2504  1.0345  0.5574
   14CHTO  H183 5603   3.517   5.186   2.352 -0.4495  1.7784  0.4264
   14CHTO   C98 5604   3.325   5.145   2.455 -0.2416 -0.2844 -0.0841
   14CHTO  H185 5605   3.224   5.120   2.419 -0.1859  1.5251 -1.5670
   14CHTO   O67 5606   3.373   5.039   2.537 -0.1266  0.5319  0.0240
   14CHTO  H167 5607   3.301   5.000   2.584 -0.6360  1.2852 -0.1118
   14CHTO  C102 5608   3.322   5.287   2.531  0.4531 -0.0212 -0.1002
   14CHTO  H189 5609   3.427   5.320   2.541  0.8463 -0.9659 -1.0431
   14CHTO   N18 5610   3.257   5.290   2.666 -0.0830  0.2423 -0.3641
   14CHTO  H176 5611   3.297   5.204   2.717  0.0777 -0.0327 -0.9472
   14CHTO  H177 5612   3.277   5.385   2.713  0.4481  0.9139 -1.9399
   14CHTO  C105 5613   3.274   5.407   2.444 -0.2144 -0.1026  0.2644
   14CHTO  H192 5614   3.168   5.393   2.423 -0.1310 -0.0435 -0.2036
   14CHTO   O65 5615   3.342   5.403   2.315 -0.2453  0.3924  0.3775
   14CHTO  C100 5616   3.351   5.277   2.245 -0.4320  0.0275 -0.2593
   14CHTO  H187 5617   3.247   5.252   2.220 -0.5038  0.5895 -0.5438
   14CHTO  C107 5618   3.421   5.297   2.111 -0.6726  0.3740 -0.4761
   14CHTO   O70 5619   3.357   5.394   2.029  0.0410  0.3077  0.0988
   14CHTO  H170 5620   3.264   5.395   2.041 -0.2509  0.4709 -1.9774
   14CHTO   O57 5621   3.315   5.549   2.530 -0.4505 -0.4243  0.4169
   14CHTO   C85 5622   3.249   5.679   2.511  0.5769  0.3757 -0.0788
   14CHTO  H157 5623   3.148   5.635   2.498 -0.3962  3.0956 -2.2418
   14CHTO   C83 5624   3.305   5.754   2.384  0.7060  0.2357 -1.3776
   14CHTO  H155 5625   3.288   5.692   2.296  0.2134 -0.5100 -0.7644
   14CHTO   O56 5626   3.444   5.779   2.395  0.2803 -0.0597  0.4571
   14CHTO  H135 5627   3.477   5.791   2.309 -2.5007  2.1806 -0.3753
   14CHTO   C81 5628   3.214   5.878   2.369 -0.2867 -0.7982 -0.1289
   14CHTO  H153 5629   3.111   5.847   2.354 -0.8243  1.3116 -0.8872
   14CHTO   N14 5630   3.254   5.960   2.249  0.5959 -0.4517 -0.0063
   14CHTO  H141 5631   3.211   6.058   2.248 -1.8367 -1.4650  1.6666
   14CHTO  H142 5632   3.228   5.909   2.159 -1.0036 -1.2910  0.9187
   14CHTO   C79 5633   3.218   5.975   2.495 -0.2894 -0.1869 -0.4365
   14CHTO  H151 5634   3.146   6.056   2.480 -1.9951 -1.6437 -0.3084
   14CHTO   O52 5635   3.180   5.899   2.621  0.2494  0.7250  0.6165
   14CHTO   C86 5636   3.259   5.773   2.633  0.2732  0.3234 -0.4964
   14CHTO  H158 5637   3.366   5.798   2.653  0.6197 -1.0685 -0.5440
   14CHTO   C90 5638   3.208   5.704   2.760  0.2633 -0.9606  0.1037
   14CHTO   O60 5639   3.281   5.594   2.800  0.7987  0.1741  0.1245
   14CHTO  H138 5640   3.355   5.613   2.855  0.5176 -0.3341  0.6916
   14CHTO   O50 5641   3.340   6.047   2.515  0.4036 -0.1038 -0.4817
   14CHTO   C73 5642   3.363   6.154   2.607 -1.1028 -0.0849  0.1267
   14CHTO  H145 5643   3.292   6.133   2.688  0.9551 -1.9200  1.4974
   14CHTO   C74 5644   3.328   6.292   2.540  0.4977 -1.1268 -0.0232
   14CHTO  H146 5645   3.223   6.294   2.509  0.5463  0.2956 -0.1428
   14CHTO   O54 5646   3.327   6.389   2.645  0.4710  0.4314  0.3296
   14CHTO  H133 5647   3.294   6.474   2.622 -0.8594  0.4336  2.1426
   14CHTO   C75 5648   3.430   6.328   2.416  0.0734  0.1378 -0.2557
   14CHTO  H147 5649   3.410   6.253   2.338  0.7310  0.2361 -0.5229
   14CHTO   N13 5650   3.406   6.464   2.365 -0.7169  0.3323 -0.5167
   14CHTO  H139 5651   3.419   6.542   2.439  2.1526 -1.5480  1.0661
   14CHTO  H140 5652   3.475   6.483   2.284 -0.6032 -1.7041 -0.9240
   14CHTO   C76 5653   3.585   6.307   2.468 -0.4237 -0.9224  0.2632
   14CHTO  H148 5654   3.611   6.394   2.529 -0.0011 -0.5204 -0.4853
   14CHTO   O49 5655   3.603   6.187   2.549  0.2566  0.0250 -0.3050
   14CHTO   C77 5656   3.509   6.158   2.663  0.2109 -0.2550  0.1772
   14CHTO  H149 5657   3.516   6.244   2.730  0.5576  0.9364 -1.3582
   14CHTO   C88 5658   3.535   6.025   2.733 -0.7553 -0.4561  0.5066
   14CHTO   O58 5659   3.669   6.039   2.790 -0.3602  0.3692  0.0173
   14CHTO  H136 5660   3.729   6.065   2.722 -1.0567 -2.0356 -1.5848
   14CHTO   O51 5661   3.685   6.285   2.338  0.5433  0.3072 -0.2121
   14CHTO   C78 5662   3.871   6.291   2.363  0.3504  0.0442  0.4812
   14CHTO  H150 5663   3.902   6.315   2.467  0.0426  0.9479  0.3755
   14CHTO   C80 5664   3.929   6.396   2.267  0.5594  0.3075 -0.6857
   14CHTO  H152 5665   3.909   6.366   2.163  0.0569 -0.0769 -0.4797
   14CHTO   O55 5666   3.867   6.524   2.293  0.4919 -0.9152  0.0343
   14CHTO  H134 5667   3.903   6.559   2.373  0.3354 -1.3886  0.3143
   14CHTO   C84 5668   4.085   6.401   2.289  0.7085 -0.2670 -0.5631
   14CHTO  H156 5669   4.107   6.439   2.389 -1.1075  0.3288 -0.3750
   14CHTO   N15 5670   4.138   6.504   2.190  0.8121  0.1846 -0.4386
   14CHTO  H143 5671   4.096   6.600   2.212 -0.4578 -0.5466  0.3941
   14CHTO  H144 5672   4.245   6.509   2.193  0.7878  0.0126  1.8922
   14CHTO   C87 5673   4.146   6.260   2.268  0.3604 -0.2269  0.9265
   14CHTO  H159 5674   4.137   6.233   2.163 -0.6940  2.7437  0.1987
   14CHTO   O53 5675   4.063   6.150   2.361  0.1448 -0.3159  0.3335
   14CHTO   C82 5676   3.923   6.150   2.334  0.2294 -0.0777  0.0872
   14CHTO  H154 5677   3.912   6.133   2.227  2.4696 -0.6465 -0.0837
   14CHTO   C89 5678   3.860   6.032   2.409 -0.2216 -0.3153 -0.9712
   14CHTO   O59 5679   3.863   6.039   2.557  0.4641  0.0982 -0.0259
   14CHTO  H137 5680   3.791   6.086   2.596 -1.2680 -2.9612  0.6708
   14CHTO   O45 5681   4.308   6.255   2.312  0.7527 -0.2293  0.5627
   14CHTO   C67 5682   4.356   6.124   2.267  0.8761  0.0014  0.2519
   14CHTO  H124 5683   4.282   6.046   2.247  1.8539 -0.4805 -1.6056
   14CHTO   C65 5684   4.423   6.166   2.131 -0.4682  1.6337  0.1829
   14CHTO  H122 5685   4.355   6.233   2.077 -0.7709  0.8753 -0.3962
   14CHTO   O44 5686   4.440   6.044   2.055  0.0650  0.5224  0.3066
   14CHTO  H102 5687   4.353   6.013   2.035 -0.6316  1.0995  2.3383
   14CHTO   C63 5688   4.554   6.247   2.152  0.2077 -0.3016 -0.0355
   14CHTO  H120 5689   4.528   6.335   2.211  2.2667  0.0712  0.3501
   14CHTO   N11 5690   4.624   6.303   2.030  0.3413  0.2244 -0.2875
   14CHTO  H108 5691   4.699   6.234   1.995  0.9076 -1.0579  3.2624
   14CHTO  H109 5692   4.562   6.344   1.953 -0.4838 -0.4877 -0.0078
   14CHTO   C61 5693   4.648   6.165   2.247  0.6439 -0.0808  0.2457
   14CHTO  H118 5694   4.743   6.216   2.266 -0.2448  1.9599 -0.6827
   14CHTO   O40 5695   4.581   6.142   2.377 -0.4783 -0.0752  0.0085
   14CHTO   C68 5696   4.456   6.064   2.374 -0.3348 -0.2779  0.0183
   14CHTO  H125 5697   4.405   6.076   2.472 -0.6349  1.3052 -0.3102
   14CHTO   C72 5698   4.478   5.914   2.349  0.0896 -0.3969  0.4579
   14CHTO   O48 5699   4.530   5.843   2.460 -0.3036  0.2734 -0.7658
   14CHTO  H105 5700   4.503   5.754   2.447  0.1496  0.0237 -0.0378
   14CHTO   O38 5701   4.684   6.039   2.193 -0.1764  0.0116  0.7518
   14CHTO   C55 5702   4.823   6.013   2.183 -0.1127  0.8664 -0.3316
   14CHTO  H112 5703   4.872   6.109   2.161  0.4659  0.7458  0.4016
   14CHTO   C56 5704   4.839   5.906   2.066  0.8879  0.0676 -0.8801
   14CHTO  H113 5705   4.766   5.829   2.096 -0.3312  1.4016 -0.4075
   14CHTO   O42 5706   4.785   5.965   1.944 -0.1479 -0.1301 -0.5498
   14CHTO  H100 5707   4.788   6.058   1.931 -0.7181 -0.0735 -0.3010
   14CHTO   C57 5708   4.987   5.853   2.043 -0.1607 -0.3079 -0.6610
   14CHTO  H114 5709   5.036   5.942   2.004 -0.8679  0.0435 -0.7629
   14CHTO   N10 5710   4.996   5.742   1.951 -0.0186  0.4366  0.3308
   14CHTO  H106 5711   5.071   5.758   1.875 -0.8550  2.1503 -0.1564
   14CHTO  H107 5712   4.900   5.732   1.904  0.1122  1.8503 -0.2774
   14CHTO   C58 5713   5.052   5.819   2.184  0.2918  0.6757  0.3763
   14CHTO  H115 5714   5.003   5.729   2.227 -1.6175  0.8183 -1.3903
   14CHTO   O37 5715   5.038   5.934   2.273 -0.1045  0.1013  0.1982
   14CHTO   C59 5716   4.899   5.955   2.311  0.3669 -0.0466 -0.1614
   14CHTO  H116 5717   4.860   5.863   2.354 -2.1833  1.6065  1.2081
   14CHTO   C70 5718   4.899   6.052   2.432  0.3110  0.3564 -0.2195
   14CHTO   O46 5719   5.004   6.153   2.425  0.0605 -0.2545  0.2690
   14CHTO  H103 5720   5.084   6.128   2.467  1.0590  1.0976 -0.7484
   14CHTO   O39 5721   5.209   5.799   2.166  0.2111  0.2059 -0.5954
   14CHTO   C60 5722   5.271   5.707   2.259  0.8565  0.8065 -0.1223
   14CHTO  H117 5723   5.220   5.693   2.354 -0.2163 -1.4661 -1.0015
   14CHTO   C62 5724   5.288   5.565   2.199 -0.0915 -0.3064  0.3616
   14CHTO  H119 5725   5.187   5.521   2.187 -0.3732  0.9106 -2.1815
   14CHTO   O43 5726   5.331   5.580   2.062  0.3439 -0.1848  0.4867
   14CHTO  H101 5727   5.333   5.498   2.016 -3.3116 -0.1808  0.1344
   14CHTO   C66 5728   5.392   5.478   2.297 -0.3028 -0.2482 -0.2282
   14CHTO  H123 5729   5.340   5.465   2.392 -0.2882 -1.4639 -0.3762
   14CHTO   N12 5730   5.409   5.344   2.243 -0.0096  0.0090 -0.6330
   14CHTO  H110 5731   5.334   5.284   2.293  0.0668 -0.0792 -0.6232
   14CHTO  H111 5732   5.511   5.317   2.268 -1.0537 -1.1461  2.6975
   14CHTO   C69 5733   5.518   5.565   2.316 -0.6830 -0.3167  0.5060
   14CHTO  H126 5734   5.554   5.578   2.211  0.2158 -0.4027  0.8041
   14CHTO   O41 5735   5.475   5.692   2.388 -0.0260 -0.3879  0.0605
   14CHTO   C64 5736   5.410   5.773   2.291  0.4639 -0.4673  0.0516
   14CHTO  H121 5737   5.474   5.776   2.200  0.5064  2.8655  0.1143
   14CHTO   C71 5738   5.387   5.908   2.359  0.7618 -0.6271  0.0279
   14CHTO   O47 5739   5.344   6.014   2.271  0.2163  0.3041 -0.2355
   14CHTO  H104 5740   5.347   6.096   2.316  2.2048  0.0295  0.2328
   14CHTO   O34 5741   5.622   5.505   2.389 -0.0351 -0.3804  0.4577
   14CHTO   C49 5742   5.775   5.453   2.395  0.2669  0.6523 -0.1043
   14CHTO   H91 5743   5.762   5.355   2.350 -0.4448  0.2473  0.9829
   14CHTO   C47 5744   5.812   5.439   2.543  0.0159 -0.4299  0.1300
   14CHTO   H89 5745   5.898   5.370   2.534 -0.3719 -1.0599  1.1105
   14CHTO   O33 5746   5.715   5.365   2.613  0.5580 -0.6556 -0.1148
   14CHTO   H70 5747   5.745   5.295   2.667  1.7514 -0.9566 -1.1320
   14CHTO   C45 5748   5.834   5.581   2.619  0.1575  0.3482  0.5561
   14CHTO   H87 5749   5.748   5.596   2.686 -1.4051  0.5665 -1.4561
   14CHTO    N8 5750   5.960   5.574   2.701  0.1492 -0.5718  0.0842
   14CHTO   H75 5751   5.948   5.611   2.802 -2.9166  0.5165 -0.6065
   14CHTO   H76 5752   5.977   5.468   2.714 -1.4019 -0.8094  0.3299
   14CHTO   C43 5753   5.830   5.706   2.512  0.0181  0.2641  0.2161
   14CHTO   H85 5754   5.724   5.721   2.488 -0.1359  1.7286  1.7252
   14CHTO   O29 5755   5.906   5.670   2.397  0.2414 -0.0846 -0.0818
   14CHTO   C50 5756   5.880   5.547   2.324  0.1102 -0.4875  0.2684
   14CHTO   H92 5757   5.833   5.580   2.230 -1.3592  1.3425  1.5992
   14CHTO   C54 5758   6.010   5.474   2.290 -0.3088 -0.3676  0.1550
   14CHTO   O36 5759   6.099   5.550   2.195 -0.0929 -0.3916 -0.2525
   14CHTO   H72 5760   6.130   5.628   2.237 -1.9814  0.0270  0.4452
   14CHTO   O27 5761   5.888   5.824   2.570 -0.3835  0.0169 -0.0261
   14CHTO   C37 5762   5.829   5.955   2.588 -0.6224  0.1157 -0.2556
   14CHTO   H79 5763   5.914   6.007   2.633  0.2752 -0.6567 -1.0363
   14CHTO   C38 5764   5.779   6.014   2.451 -0.5102  0.2564  0.3158
   14CHTO   H80 5765   5.701   5.950   2.408  0.8926 -1.9868  0.9883
   14CHTO   O31 5766   5.894   6.014   2.366 -0.1106  0.5600  0.2631
   14CHTO   H68 5767   5.860   6.014   2.278 -3.3208  0.6987  1.4412
   14CHTO   C39 5768   5.718   6.163   2.471 -0.1805  0.2164  0.2928
   14CHTO   H81 5769   5.803   6.222   2.505  0.5085  0.6836 -2.1478
   14CHTO    N7 5770   5.667   6.226   2.346 -0.0483 -0.7338  0.2381
   14CHTO   H73 5771   5.606   6.154   2.292 -0.3967 -1.2263  1.2740
   14CHTO   H74 5772   5.616   6.318   2.370  1.8596  0.3203  0.3020
   14CHTO   C40 5773   5.604   6.150   2.588 -0.5412 -0.1627 -0.1213
   14CHTO   H82 5774   5.514   6.098   2.555 -0.1254 -0.6596 -0.4857
   14CHTO   O26 5775   5.665   6.086   2.705 -0.5526 -0.3001  0.3612
   14CHTO   C41 5776   5.715   5.948   2.691 -0.2976  0.0734 -0.3281
   14CHTO   H83 5777   5.629   5.898   2.644 -1.4364  2.0170 -0.3436
   14CHTO   C52 5778   5.753   5.884   2.831 -0.2340 -0.2956  0.7974
   14CHTO   O35 5779   5.831   5.952   2.889  0.3167 -0.1673 -0.1551
   14CHTO   H71 5780   5.921   5.924   2.887  0.7485  1.2291 -0.9440
   14CHTO   O28 5781   5.569   6.285   2.633 -0.0343  0.3973 -0.7489
   14CHTO   C42 5782   5.437   6.302   2.693  0.2352  0.3347  0.2537
   14CHTO   H84 5783   5.444   6.407   2.724 -0.0921  0.5759 -0.4707
   14CHTO   C44 5784   5.395   6.224   2.817 -0.8770  0.8799 -0.2034
   14CHTO   H86 5785   5.387   6.118   2.792 -0.4060  0.9773 -0.7592
   14CHTO   O32 5786   5.503   6.234   2.915 -0.6354  0.2934 -0.1918
   14CHTO   H69 5787   5.501   6.157   2.969  0.3808  0.3489 -0.0582
   14CHTO   C48 5788   5.247   6.262   2.881 -0.0007  0.0230 -0.3180
   14CHTO   H90 5789   5.267   6.364   2.912 -3.5512  0.7074 -0.0653
   14CHTO    N9 5790   5.212   6.192   3.008 -0.4103 -0.0666 -0.1004
   14CHTO   H77 5791   5.306   6.191   3.062 -0.5057  1.4122  0.0990
   14CHTO   H78 5792   5.175   6.092   2.987 -0.8630  0.5446 -2.3239
   14CHTO   C51 5793   5.136   6.267   2.771  0.2914 -0.5469 -0.0155
   14CHTO   H93 5794   5.111   6.166   2.739  0.3369 -0.8113  0.7661
   14CHTO   O30 5795   5.182   6.346   2.657 -0.7569  0.3957 -0.3491
   14CHTO   C46 5796   5.320   6.297   2.595 -0.8867  0.5547 -0.1860
   14CHTO   H88 5797   5.297   6.196   2.558  0.3959 -0.4625  1.7215
   14CHTO   C53 5798   5.362   6.393   2.474  0.1077  0.1942 -0.3236
   14CHTO   O72 5799   5.275   6.353   2.369 -0.1233 -0.4020  0.0161
   14CHTO  H199 5800   5.251   6.262   2.376  0.7680 -0.8069 -1.8976
   14CHTO   O22 5801   5.015   6.335   2.812  0.3294 -0.1966 -0.0520
   14CHTO   C31 5802   4.884   6.270   2.776  0.4652 -0.3037  0.2417
   14CHTO   H59 5803   4.908   6.185   2.710  0.2866  0.1215 -0.3705
   14CHTO   C29 5804   4.807   6.212   2.894 -1.1475  0.6474 -0.5182
   14CHTO   H57 5805   4.788   6.293   2.967  1.4925 -0.9746  2.0745
   14CHTO   O21 5806   4.889   6.116   2.957  0.5117 -0.2744  0.0296
   14CHTO   H37 5807   4.841   6.036   2.966  1.6292 -1.5110 -3.7543
   14CHTO   C27 5808   4.666   6.154   2.845 -0.2885  0.8215 -0.3462
   14CHTO   H55 5809   4.688   6.071   2.777 -0.6012  1.3277 -1.0670
   14CHTO    N5 5810   4.582   6.101   2.959  0.2089 -0.0973 -0.0828
   14CHTO   H43 5811   4.626   6.120   3.055  0.1685  0.2495 -0.1326
   14CHTO   H44 5812   4.475   6.111   2.943  0.2994  1.3394  0.1557
   14CHTO   C25 5813   4.588   6.260   2.753  0.2146 -0.0471 -0.4813
   14CHTO   H53 5814   4.558   6.334   2.828  0.7715 -2.6877  2.4399
   14CHTO   O17 5815   4.675   6.307   2.641  0.2577 -0.4720 -0.2997
   14CHTO   C32 5816   4.793   6.372   2.689  0.6399  0.1853 -0.2353
   14CHTO   H60 5817   4.769   6.455   2.756 -0.9648  0.0133 -0.5920
   14CHTO   C36 5818   4.863   6.431   2.570  0.5258  0.1038 -0.1958
   14CHTO   O25 5819   4.782   6.525   2.485  0.0820  0.3527 -0.1249
   14CHTO   H40 5820   4.695   6.537   2.518  0.5755 -0.0759  1.4202
   14CHTO   O15 5821   4.467   6.197   2.682  0.2784  0.2187  0.0376
   14CHTO   C19 5822   4.331   6.234   2.679  0.0466 -0.0172 -0.8494
   14CHTO   H47 5823   4.301   6.222   2.574 -0.9614  1.0182 -0.6897
   14CHTO   C20 5824   4.238   6.150   2.773  0.3320  0.6888  0.8480
   14CHTO   H48 5825   4.268   6.154   2.878  1.5643 -0.3539  0.5499
   14CHTO   O19 5826   4.257   6.012   2.733  0.0839  0.2664  0.1340
   14CHTO   H35 5827   4.173   5.972   2.727  0.1787 -0.0599  0.9832
   14CHTO   C21 5828   4.086   6.201   2.770 -0.4683  1.1833 -0.4120
   14CHTO   H49 5829   4.041   6.177   2.674 -2.8048 -1.5208  1.2826
   14CHTO    N4 5830   4.001   6.136   2.876  0.3645  0.5963 -0.0688
   14CHTO   H41 5831   3.949   6.046   2.847 -1.2987  0.9858  1.5559
   14CHTO   H42 5832   3.929   6.203   2.922  1.1413  1.1243  0.3865
   14CHTO   C22 5833   4.082   6.357   2.783 -0.4239  0.1447  0.2087
   14CHTO   H50 5834   4.132   6.386   2.875  2.3613  0.4229 -1.3304
   14CHTO   O14 5835   4.165   6.415   2.677 -0.0645  0.2528  0.2616
   14CHTO   C23 5836   4.306   6.381   2.696 -0.1607  0.4744 -0.7421
   14CHTO   H51 5837   4.339   6.414   2.795 -0.2324  2.6089 -1.3866
   14CHTO   C34 5838   4.386   6.460   2.598  0.4463 -0.3155  0.1771
   14CHTO   O23 5839   4.356   6.597   2.626  0.5538  0.0959 -0.3544
   14CHTO   H38 5840   4.400   6.621   2.706  0.6817 -0.1770 -0.3414
   14CHTO   O16 5841   3.956   6.419   2.761  0.0799 -0.0301  0.2368
   14CHTO   C24 5842   3.928   6.591   2.769  0.4721  1.0390 -0.2658
   14CHTO   H52 5843   3.835   6.616   2.820  0.8110 -2.1541  2.0121
   14CHTO   C26 5844   3.917   6.638   2.622  0.1443  0.4665 -0.1180
   14CHTO   H54 5845   4.007   6.601   2.567  0.1654  1.4988 -0.7949
   14CHTO   O20 5846   3.796   6.580   2.558  0.4152 -0.3058  0.3009
   14CHTO   H36 5847   3.787   6.486   2.563 -0.6958 -0.2148  0.2105
   14CHTO   C30 5848   3.927   6.788   2.597  0.3852  0.0080  1.5894
   14CHTO   H58 5849   3.836   6.840   2.629 -0.9978 -0.2979 -1.7317
   14CHTO    N6 5850   3.938   6.824   2.450  0.1794  0.3889  0.5780
   14CHTO   H45 5851   3.849   6.874   2.414  2.0297  3.0073 -0.5525
   14CHTO   H46 5852   4.020   6.889   2.424 -0.6588  1.6675  1.0712
   14CHTO   C33 5853   4.043   6.852   2.678  0.3929 -0.5369 -0.1262
   14CHTO   H61 5854   4.142   6.822   2.640  1.3226  2.2867 -0.0133
   14CHTO   O18 5855   4.028   6.817   2.820 -0.1705  0.2874 -0.3694
   14CHTO   C28 5856   4.039   6.670   2.832  0.2785  0.0545  0.6245
   14CHTO   H56 5857   4.137   6.641   2.795 -0.5053 -0.4198 -1.1223
   14CHTO   C35 5858   4.037   6.650   2.985  0.2614 -0.5254  0.1768
   14CHTO   O24 5859   4.165   6.688   3.031  0.2899 -0.5281 -0.5899
   14CHTO   H39 5860   4.167   6.781   3.044 -0.3940 -0.3854 -1.4667
   14CHTO    O9 5861   4.044   6.996   2.659  0.6036  0.3447  0.4312
   14CHTO   C13 5862   4.200   7.052   2.670  0.1146  0.4338  0.0280
   14CHTO   H26 5863   4.269   6.992   2.607 -0.7605 -1.3017  0.7120
   14CHTO   C11 5864   4.239   7.039   2.824  0.5202 -0.1469  0.3232
   14CHTO   H24 5865   4.232   6.933   2.853 -0.5054  0.2657  1.6539
   14CHTO    O8 5866   4.133   7.105   2.899  0.1421  0.1934  0.6759
   14CHTO    H3 5867   4.056   7.052   2.907 -1.2091  2.1653  1.3070
   14CHTO    C9 5868   4.377   7.101   2.836  0.5676  0.2409  0.1754
   14CHTO   H22 5869   4.439   7.037   2.771  0.6302  0.6916 -0.2142
   14CHTO    N2 5870   4.446   7.086   2.971 -0.3895  0.2850 -0.3476
   14CHTO   H10 5871   4.398   7.150   3.043 -1.5666 -0.4063 -0.5037
   14CHTO   H11 5872   4.437   6.984   3.004 -1.0773 -0.0990 -1.6524
   14CHTO    C7 5873   4.383   7.249   2.777 -0.3001 -0.6641  0.8520
   14CHTO   H20 5874   4.450   7.229   2.690 -0.9468  0.0776  0.1664
   14CHTO    O4 5875   4.259   7.288   2.725 -0.0234  0.1784 -0.1215
   14CHTO   C14 5876   4.212   7.205   2.621 -0.2474 -0.1430 -1.0377
   14CHTO   H27 5877   4.273   7.218   2.530 -0.8551  0.1835 -1.3994
   14CHTO   C18 5878   4.070   7.268   2.594  0.4612 -0.4974 -0.0116
   14CHTO   O13 5879   4.011   7.218   2.471  0.3624  0.3552  0.1575
   14CHTO    H7 5880   3.965   7.280   2.418  1.7202  1.4480  0.2390
   14CHTO    O2 5881   4.430   7.368   2.880 -0.1024  0.3933 -0.4468
   14CHTO    C1 5882   4.524   7.449   2.814  0.2683 -0.1423  0.1408
   14CHTO   H14 5883   4.517   7.425   2.706 -0.2004  0.6228 -0.0003
   14CHTO    C2 5884   4.674   7.424   2.863 -0.6722  0.6458  0.0148
   14CHTO   H15 5885   4.682   7.422   2.973  1.9269 -0.3230 -0.1451
   14CHTO    O6 5886   4.714   7.301   2.806 -0.7717 -0.1545  0.0171
   14CHTO    H1 5887   4.669   7.228   2.845 -1.9950  0.3288 -0.4607
   14CHTO    C3 5888   4.780   7.532   2.811  0.3212 -0.4877  0.2869
   14CHTO   H16 5889   4.802   7.518   2.704  1.1723  1.6168  0.1594
   14CHTO    N1 5890   4.910   7.531   2.883  0.3039 -0.3613 -0.9759
   14CHTO    H8 5891   4.900   7.520   2.990 -0.8078 -0.0786 -1.0442
   14CHTO    H9 5892   4.969   7.450   2.843 -1.8945 -1.6356 -1.6724
   14CHTO    C4 5893   4.710   7.665   2.818  0.8957 -0.1629  0.4002
   14CHTO   H17 5894   4.699   7.685   2.924  0.4415 -1.8142  0.6814
   14CHTO    O1 5895   4.582   7.665   2.755  0.2903  0.0743 -0.3572
   14CHTO    C5 5896   4.482   7.594   2.828 -0.2095 -0.0234 -0.3795
   14CHTO   H18 5897   4.496   7.629   2.930  0.8591  1.3771 -0.9897
   14CHTO   C16 5898   4.345   7.624   2.778 -0.4582  0.5346  0.4951
   14CHTO   O11 5899   4.335   7.573   2.645  0.2327 -0.1336  0.3850
   14CHTO    H5 5900   4.259   7.611   2.605  0.6046 -1.0288 -1.2677
   14CHTO    O3 5901   4.780   7.772   2.748  0.2390 -0.4190  0.3761
   14CHTO    C6 5902   4.750   7.899   2.807  0.2551  0.2757 -0.3238
   14CHTO   H19 5903   4.652   7.902   2.855 -0.9787  2.0882 -2.8426
   14CHTO    C8 5904   4.871   7.940   2.901  1.0872 -0.5795  0.3889
   14CHTO   H21 5905   4.962   7.919   2.846 -0.1912 -2.3240 -1.1272
   14CHTO    O7 5906   4.847   7.847   3.007  0.2441 -0.0490  0.0026
   14CHTO    H2 5907   4.869   7.891   3.087 -0.3319  1.3991 -0.6021
   14CHTO   C12 5908   4.862   8.090   2.945 -0.0654 -0.8755  0.2175
   14CHTO   H25 5909   4.784   8.089   3.024 -1.4067 -0.8914 -1.0613
   14CHTO    N3 5910   4.990   8.125   3.013  0.0215  0.3349  0.2554
   14CHTO   H12 5911   5.023   8.046   3.079  3.6332  0.4344 -1.3002
   14CHTO   H13 5912   5.073   8.136   2.944  1.7658 -1.0867  2.0518
   14CHTO   C15 5913   4.821   8.193   2.840  0.8927  0.7023  0.0108
   14CHTO   H28 5914   4.899   8.228   2.773 -0.0922 -0.0387 -1.5625
   14CHTO   O10 5915   4.752   8.310   2.895  0.1558  0.0698 -0.0660
   14CHTO    H4 5916   4.796   8.335   2.975  0.3766 -1.6407  0.3706
   14CHTO    O5 5917   4.715   8.132   2.758 -0.7102 -0.4298 -0.0668
   14CHTO   C10 5918   4.735   8.009   2.692 -0.7410 -0.3666 -0.2028
   14CHTO   H23 5919   4.821   8.005   2.626 -0.0193  2.0891  0.5197
   14CHTO   C17 5920   4.612   7.980   2.602  0.3282  0.0146 -0.4897
   14CHTO   O12 5921   4.626   7.863   2.520  0.2544  0.6567 -0.3164
   14CHTO    H6 5922   4.589   7.879   2.435 -2.8603 -0.6873  0.7012
   15CHTO  H203 5923   5.272   5.090   2.475  0.7311  0.0280 -0.7700
   15CHTO   O82 5924   5.250   5.124   2.391 -0.0050 -0.0353 -0.6058
   15CHTO  C123 5925   5.241   5.015   2.300  0.4650  0.2915  0.1994
   15CHTO  H227 5926   5.180   5.044   2.214  0.2168 -4.3592 -1.3392
   15CHTO   O77 5927   5.373   4.976   2.274  0.6015 -0.3778  0.2753
   15CHTO  C118 5928   5.389   4.883   2.164 -0.1130  0.2226  0.3131
   15CHTO  H222 5929   5.354   4.932   2.072  0.1447 -0.1773 -0.0029
   15CHTO  C125 5930   5.550   4.861   2.140 -0.0154  0.0226 -0.4872
   15CHTO   O84 5931   5.640   4.973   2.166  0.4199 -0.1278  0.0318
   15CHTO  H205 5932   5.633   5.038   2.098  0.2503 -0.5350 -0.3465
   15CHTO  C114 5933   5.318   4.746   2.194  0.2082 -0.3270 -0.4317
   15CHTO  H218 5934   5.375   4.695   2.271  0.2189  1.1929  0.5884
   15CHTO  C116 5935   5.173   4.768   2.251 -0.0879 -0.4857 -0.1627
   15CHTO  H220 5936   5.103   4.796   2.170  1.0355  0.8708 -0.6750
   15CHTO   O79 5937   5.110   4.649   2.290  0.4410 -0.2287 -0.4625
   15CHTO  H201 5938   5.028   4.675   2.328 -0.0018 -1.9802 -0.1512
   15CHTO  C120 5939   5.174   4.880   2.360  0.2944 -0.3006 -0.0709
   15CHTO  H224 5940   5.227   4.846   2.451  2.1555  0.4115 -0.8759
   15CHTO   N21 5941   5.034   4.913   2.400  0.5713  0.4166 -0.4108
   15CHTO  H211 5942   4.960   4.900   2.323  0.2432 -0.1222 -0.0082
   15CHTO  H212 5943   5.038   5.014   2.439  1.0116 -0.3789  1.6391
   15CHTO   O75 5944   5.322   4.678   2.068 -0.1176  0.1131  0.3329
   15CHTO  C112 5945   5.367   4.516   2.083  0.6879  0.3703  0.0151
   15CHTO  H216 5946   5.360   4.488   2.189 -1.8126 -1.7184 -0.6362
   15CHTO   O73 5947   5.497   4.499   2.034  0.3051 -0.0857  0.0873
   15CHTO  C113 5948   5.543   4.370   2.068 -0.5398  1.3064  0.3869
   15CHTO  H217 5949   5.540   4.346   2.176 -0.0870  1.0882  0.3535
   15CHTO  C124 5950   5.690   4.369   2.029 -0.1771 -0.7523 -0.0440
   15CHTO   O83 5951   5.766   4.461   2.102 -0.0071 -0.2412  0.0956
   15CHTO  H204 5952   5.850   4.460   2.061  0.3425 -0.8923  0.8086
   15CHTO  C109 5953   5.465   4.259   1.999  0.1549 -0.6812 -0.0668
   15CHTO  H213 5954   5.489   4.263   1.892  1.3740  0.3599  0.2365
   15CHTO  C110 5955   5.311   4.276   2.009  0.6139 -0.3246 -0.8772
   15CHTO  H214 5956   5.287   4.252   2.112  1.5420  2.2515 -0.0307
   15CHTO   O78 5957   5.240   4.197   1.912  0.4679  0.0004  0.0145
   15CHTO  H200 5958   5.179   4.245   1.858 -0.3895 -1.4250 -0.3019
   15CHTO  C111 5959   5.273   4.426   1.991  0.0301  0.2408  0.0038
   15CHTO  H215 5960   5.289   4.458   1.887 -0.9797  1.2432  0.1365
   15CHTO   N19 5961   5.131   4.456   2.025 -0.2549  0.0417 -0.5522
   15CHTO  H207 5962   5.093   4.400   2.109 -0.2670  0.1219 -0.5051
   15CHTO  H208 5963   5.063   4.447   1.941  0.4100 -2.0757 -0.9124
   15CHTO   O74 5964   5.512   4.125   2.042 -0.2039  0.4311  0.7082
   15CHTO  C115 5965   5.532   4.015   1.925  0.0405  0.1611 -0.3805
   15CHTO  H219 5966   5.465   4.033   1.840  1.2676 -2.4830 -1.9860
   15CHTO   O76 5967   5.660   4.028   1.866 -0.2585 -0.2169  0.6221
   15CHTO  C122 5968   5.769   3.958   1.933  0.4556  0.3429 -0.3767
   15CHTO  H226 5969   5.779   3.994   2.036 -2.0182  0.7419 -0.2475
   15CHTO  C126 5970   5.908   3.996   1.862  0.0597  0.0544  0.5375
   15CHTO   O85 5971   6.021   3.932   1.917  0.4287 -0.3969 -0.1868
   15CHTO  H206 5972   6.082   3.999   1.940 -0.8782  0.2132  1.5837
   15CHTO  C121 5973   5.746   3.800   1.930  0.1175 -0.9225 -0.6603
   15CHTO  H225 5974   5.811   3.753   1.853  0.1989  0.3935 -1.4115
   15CHTO   O81 5975   5.780   3.765   2.067  0.2209  0.1515 -0.8242
   15CHTO  H202 5976   5.781   3.672   2.076 -1.1472  0.1412 -0.8225
   15CHTO  C119 5977   5.599   3.764   1.901  0.8575  0.5036  0.3771
   15CHTO  H223 5978   5.586   3.784   1.795 -1.6570 -0.4353  0.4638
   15CHTO  C117 5979   5.506   3.864   1.976 -0.7352 -0.2234  0.3174
   15CHTO  H221 5980   5.518   3.883   2.083  3.6748 -1.3021  0.1001
   15CHTO   N20 5981   5.360   3.830   1.965 -0.1352 -0.1269  0.5669
   15CHTO  H209 5982   5.345   3.759   1.886  0.2454 -0.0850  0.4542
   15CHTO  H210 5983   5.329   3.782   2.056 -0.1962 -0.2541  0.4790
   15CHTO   O80 5984   5.555   3.602   1.914  0.4558  0.4653 -0.3282
   15CHTO  C103 5985   5.565   3.510   1.783  0.0818 -1.0327 -0.7750
   15CHTO  H190 5986   5.518   3.416   1.810 -0.0356 -1.1236 -1.2911
   15CHTO  C101 5987   5.488   3.562   1.657 -0.4389 -0.1143  0.5556
   15CHTO  H188 5988   5.532   3.655   1.620 -0.8748  0.4441  1.4088
   15CHTO   O68 5989   5.331   3.585   1.714  0.0774  0.1914  0.0985
   15CHTO  H168 5990   5.326   3.646   1.785 -1.1803  1.9480 -1.4413
   15CHTO   C99 5991   5.492   3.452   1.541 -0.5283 -0.4482  0.0974
   15CHTO  H186 5992   5.437   3.362   1.575 -1.8388 -1.2350 -3.9223
   15CHTO   N17 5993   5.431   3.499   1.406  0.0962 -0.4658  0.1738
   15CHTO  H174 5994   5.437   3.607   1.404 -2.1179 -0.3071  0.1849
   15CHTO  H175 5995   5.491   3.466   1.323  1.1851 -0.5091  0.9740
   15CHTO   C97 5996   5.637   3.412   1.518  0.0820 -0.0217  0.1099
   15CHTO  H184 5997   5.698   3.488   1.467  0.2889  1.1699  2.0988
   15CHTO   O64 5998   5.701   3.377   1.646 -0.2594  0.2401 -0.3084
   15CHTO  C104 5999   5.711   3.485   1.742 -0.2968 -0.6655  0.2268
   15CHTO  H191 6000   5.750   3.572   1.689 -0.7983 -0.4947  0.1337
   15CHTO  C108 6001   5.802   3.462   1.858 -0.1163  0.0087 -0.6288
   15CHTO   O71 6002   5.935   3.497   1.821  0.1943  0.3246  0.2269
   15CHTO  H171 6003   5.940   3.590   1.819  0.7141  0.2838 -0.3727
   15CHTO   O62 6004   5.639   3.283   1.449 -0.0898 -0.3513 -0.4803
   15CHTO   C91 6005   5.762   3.249   1.387  0.0003  0.2001 -0.0588
   15CHTO  H178 6006   5.816   3.336   1.351 -1.2428  1.1928  0.4164
   15CHTO   C92 6007   5.739   3.177   1.260  0.7216  0.0974 -0.5300
   15CHTO  H179 6008   5.672   3.227   1.189  1.6574  0.6664 -1.0238
   15CHTO   O66 6009   5.865   3.172   1.193 -0.2189  0.0518 -0.7278
   15CHTO  H166 6010   5.869   3.159   1.100  2.9012  2.3614 -1.0022
   15CHTO   C93 6011   5.698   3.025   1.283  0.5544 -0.0262 -0.5236
   15CHTO  H180 6012   5.726   2.970   1.191  0.7559 -0.7598 -0.0297
   15CHTO   N16 6013   5.550   3.002   1.293 -0.6718  0.1587  0.9560
   15CHTO  H172 6014   5.497   3.078   1.236  0.1500 -0.3183 -0.4746
   15CHTO  H173 6015   5.521   3.000   1.397 -0.7558  0.4832  0.9404
   15CHTO   C94 6016   5.772   2.955   1.403 -0.0027  0.8902  0.3450
   15CHTO  H181 6017   5.711   2.947   1.493 -1.0583 -1.0769 -0.5117
   15CHTO   O61 6018   5.888   3.036   1.440 -0.2083 -0.8321  0.2554
   15CHTO   C95 6019   5.855   3.168   1.485  0.5196 -0.2977 -0.8336
   15CHTO  H182 6020   5.791   3.158   1.573  1.1596 -0.1041 -0.3404
   15CHTO  C106 6021   5.987   3.244   1.520 -0.5497 -0.5775 -0.0818
   15CHTO   O69 6022   6.061   3.255   1.398  0.2530  0.3440  0.0518
   15CHTO  H169 6023   6.137   3.306   1.418  0.7480 -1.1627  2.1929
   15CHTO   O63 6024   5.831   2.814   1.350  0.0030 -0.1120  0.5986
   15CHTO   C96 6025   5.937   2.739   1.453 -0.0882 -0.3306  0.5867
   15CHTO  H183 6026   5.933   2.791   1.548  1.2206 -0.5413  0.7634
   15CHTO   C98 6027   6.080   2.721   1.389  0.7619  0.6421 -0.1344
   15CHTO  H185 6028   6.070   2.696   1.282  2.8963 -0.9570 -0.0003
   15CHTO   O67 6029   6.156   2.847   1.391 -0.0775  0.3916  0.5595
   15CHTO  H167 6030   6.125   2.912   1.451  0.0053 -0.8965  2.0477
   15CHTO  C102 6031   6.164   2.603   1.466 -0.0318 -1.3391 -0.1347
   15CHTO  H189 6032   6.190   2.648   1.563 -1.2551  1.7336 -1.1407
   15CHTO   N18 6033   6.289   2.559   1.403 -0.8091  0.1940  0.2106
   15CHTO  H176 6034   6.363   2.634   1.424 -0.8027  0.4293 -0.6369
   15CHTO  H177 6035   6.324   2.464   1.442 -2.3637 -0.8404 -0.8618
   15CHTO  C105 6036   6.076   2.475   1.491 -0.3269 -0.5748 -0.5547
   15CHTO  H192 6037   6.055   2.428   1.395  0.2526  1.7083 -1.8393
   15CHTO   O65 6038   5.946   2.513   1.554 -0.0012  0.3160 -0.7250
   15CHTO  C100 6039   5.862   2.601   1.484  0.0573 -0.1675 -0.0510
   15CHTO  H187 6040   5.841   2.553   1.387 -1.1305  0.9454 -0.3587
   15CHTO  C107 6041   5.732   2.617   1.566 -0.0124 -0.1689  0.5731
   15CHTO   O70 6042   5.639   2.510   1.556 -0.2838 -0.0872 -0.1211
   15CHTO  H170 6043   5.679   2.432   1.590  1.4903  0.5556 -0.6815
   15CHTO   O57 6044   6.166   2.356   1.577  0.1709 -0.0026  0.1767
   15CHTO   C85 6045   6.086   2.249   1.624 -0.7450 -0.7464 -1.2116
   15CHTO  H157 6046   5.990   2.301   1.641  0.4627  1.1149  0.0671
   15CHTO   C83 6047   6.144   2.199   1.765 -0.1165 -0.5889  0.2237
   15CHTO  H155 6048   6.136   2.288   1.826 -1.3153  0.5336 -1.5147
   15CHTO   O56 6049   6.278   2.166   1.754  0.0226  0.0801  0.1542
   15CHTO  H135 6050   6.304   2.114   1.827  0.9657 -0.2106 -0.3791
   15CHTO   C81 6051   6.046   2.087   1.821 -0.1219 -0.5888  0.5658
   15CHTO  H153 6052   5.948   2.133   1.837  0.8285  1.2023  1.4119
   15CHTO   N14 6053   6.079   2.044   1.958  0.2053  0.0769 -0.1397
   15CHTO  H141 6054   6.099   2.127   2.022  0.6195 -0.6099  0.6314
   15CHTO  H142 6055   6.001   1.984   2.002  0.9909 -1.4439 -0.7768
   15CHTO   C79 6056   6.034   1.971   1.716  0.0186  0.3204  0.3985
   15CHTO  H151 6057   5.960   1.899   1.753 -1.1558 -0.5575 -3.4513
   15CHTO   O52 6058   5.997   2.017   1.585  0.1046 -1.0181 -0.3180
   15CHTO   C86 6059   6.071   2.126   1.530 -0.1028 -0.6179 -0.1103
   15CHTO  H158 6060   6.178   2.096   1.532  0.1467  0.2828  0.8560
   15CHTO   C90 6061   6.037   2.160   1.383  0.6308 -0.1806  0.7462
   15CHTO   O60 6062   5.901   2.132   1.355 -0.0398 -0.0738  0.3478
   15CHTO  H138 6063   5.885   2.044   1.326 -5.0348 -0.0650  2.6766
   15CHTO   O50 6064   6.146   1.879   1.706  0.1752 -0.3690 -0.8185
   15CHTO   C73 6065   6.155   1.750   1.648  0.2165  0.0013  0.4755
   15CHTO  H145 6066   6.084   1.736   1.565  1.9662  0.0367 -1.0616
   15CHTO   C74 6067   6.132   1.636   1.760 -0.0028  0.1758  0.6320
   15CHTO  H146 6068   6.032   1.638   1.805 -0.3855  0.3828 -0.2188
   15CHTO   O54 6069   6.129   1.517   1.683  0.1651 -0.0866  0.5097
   15CHTO  H133 6070   6.090   1.446   1.731 -1.2084  1.0561  1.1214
   15CHTO   C75 6071   6.253   1.638   1.867 -0.1936  0.4156 -0.7059
   15CHTO  H147 6072   6.248   1.726   1.933  4.2568  0.3688 -0.1977
   15CHTO   N13 6073   6.256   1.521   1.961 -0.1534 -0.2559  0.3095
   15CHTO  H139 6074   6.269   1.428   1.908 -2.1739 -0.0815 -0.5701
   15CHTO  H140 6075   6.341   1.524   2.027  0.1426 -1.2214 -0.0183
   15CHTO   C76 6076   6.393   1.647   1.787  0.3254 -1.2587  0.4306
   15CHTO  H148 6077   6.398   1.553   1.732  0.9060  0.4985 -2.5997
   15CHTO   O49 6078   6.393   1.759   1.690 -0.5115  0.5849 -0.1418
   15CHTO   C77 6079   6.294   1.745   1.585 -0.2355 -0.1260 -0.2330
   15CHTO  H149 6080   6.304   1.644   1.544 -0.5750  0.3201 -1.4406
   15CHTO   C88 6081   6.321   1.846   1.464  0.0777 -0.3283 -1.0722
   15CHTO   O58 6082   6.255   1.789   1.359 -0.1958  0.6051  0.6981
   15CHTO  H136 6083   6.259   1.852   1.289 -1.3447 -0.9450 -0.8109
   15CHTO   O51 6084   6.522   1.680   1.893  0.5567  0.0071  0.3090
   15CHTO   C78 6085   6.660   1.605   1.850  0.1564  0.7788 -0.6296
   15CHTO  H150 6086   6.663   1.568   1.745  0.0073  0.2201 -0.4387
   15CHTO   C80 6087   6.685   1.484   1.941 -0.1800 -0.1259 -0.2865
   15CHTO  H152 6088   6.671   1.523   2.044 -2.2032  3.3274 -1.7755
   15CHTO   O55 6089   6.579   1.397   1.908  0.2966 -0.2799 -0.1687
   15CHTO  H134 6090   6.531   1.372   1.984 -2.8052  0.9831 -1.6040
   15CHTO   C84 6091   6.828   1.418   1.925  0.0999  0.5772  0.1853
   15CHTO  H156 6092   6.831   1.385   1.821  0.8272 -0.1655  0.4346
   15CHTO   N15 6093   6.867   1.301   2.004  0.1841 -0.2277  0.1763
   15CHTO  H143 6094   6.817   1.213   1.972 -0.4814  0.2030  0.0343
   15CHTO  H144 6095   6.859   1.314   2.110 -0.4697 -0.2361  0.1265
   15CHTO   C87 6096   6.930   1.537   1.928 -0.1457 -0.0099 -0.0533
   15CHTO  H159 6097   6.932   1.587   2.025  0.2383 -1.2081  0.5578
   15CHTO   O53 6098   6.899   1.635   1.818 -0.5302 -0.5026  0.0399
   15CHTO   C82 6099   6.777   1.702   1.865 -0.0820  0.6294  0.2889
   15CHTO  H154 6100   6.791   1.743   1.965  0.3954  1.7921 -0.2411
   15CHTO   C89 6101   6.743   1.821   1.768  0.1337 -0.0988  0.0531
   15CHTO   O59 6102   6.837   1.927   1.772  0.4272 -0.1140 -0.0179
   15CHTO  H137 6103   6.909   1.907   1.829 -0.3453 -0.4285  0.8577
   15CHTO   O45 6104   7.097   1.489   1.904  0.0061  0.3226  0.1954
   15CHTO   C67 6105   7.180   1.604   1.915 -0.4349  0.2607 -0.8392
   15CHTO  H124 6106   7.121   1.695   1.915  0.7377  1.0996  2.6965
   15CHTO   C65 6107   7.258   1.598   2.047 -0.2698 -0.5538 -0.0432
   15CHTO  H122 6108   7.269   1.495   2.078 -0.5013 -0.5940 -0.0946
   15CHTO   O44 6109   7.182   1.674   2.153 -0.1687 -0.1101 -0.5587
   15CHTO  H102 6110   7.204   1.661   2.243 -1.1310  0.1032 -0.2938
   15CHTO   C63 6111   7.406   1.645   2.028  0.4731 -0.4328 -0.3040
   15CHTO  H120 6112   7.459   1.560   1.984 -1.9535 -2.0029 -0.2737
   15CHTO   N11 6113   7.489   1.657   2.150 -0.3538 -0.3022  0.5570
   15CHTO  H108 6114   7.535   1.564   2.176 -3.4192 -1.9045  0.4759
   15CHTO  H109 6115   7.438   1.702   2.232  1.1346 -1.4445  2.1637
   15CHTO   C61 6116   7.421   1.763   1.928  0.9118 -0.4802  0.0823
   15CHTO  H118 6117   7.527   1.771   1.901  1.0895  0.1912  0.9823
   15CHTO   O40 6118   7.349   1.739   1.806  0.1211  0.3000 -0.2964
   15CHTO   C68 6119   7.273   1.611   1.796  0.0625  0.3298 -0.0117
   15CHTO  H125 6120   7.340   1.523   1.788 -1.5283 -0.7874 -1.5074
   15CHTO   C72 6121   7.197   1.627   1.657  0.2054  0.3155  0.1007
   15CHTO   O48 6122   7.280   1.597   1.542  0.0061  0.3514  0.2865
   15CHTO  H105 6123   7.258   1.659   1.474  1.6519 -0.1235 -0.7193
   15CHTO   O38 6124   7.376   1.894   1.986  0.4279  0.7023  0.0248
   15CHTO   C55 6125   7.392   2.015   1.905 -0.5600  0.3829 -0.1394
   15CHTO  H112 6126   7.417   1.989   1.802 -1.4484  1.7285 -0.7126
   15CHTO   C56 6127   7.500   2.110   1.974 -0.3009  0.0304  0.6667
   15CHTO  H113 6128   7.476   2.100   2.081 -2.2656  3.4243  0.5833
   15CHTO   O42 6129   7.636   2.062   1.954 -0.4832  0.0766 -0.2589
   15CHTO  H100 6130   7.652   2.058   1.862  2.7043 -1.2964  0.2662
   15CHTO   C57 6131   7.486   2.260   1.933 -0.2183 -0.5119  0.2897
   15CHTO  H114 6132   7.522   2.254   1.830  1.1905 -2.2596  0.8644
   15CHTO   N10 6133   7.571   2.352   2.013 -0.6133 -0.1635  0.2892
   15CHTO  H106 6134   7.621   2.301   2.093  0.1090  1.7660  1.1078
   15CHTO  H107 6135   7.645   2.398   1.949  0.0176  1.6226  2.2506
   15CHTO   C58 6136   7.341   2.302   1.930 -0.2124 -0.3758 -0.1029
   15CHTO  H115 6137   7.305   2.307   2.035  0.7665  0.9751  0.1833
   15CHTO   O37 6138   7.263   2.209   1.854  0.3431  0.4555 -0.2752
   15CHTO   C59 6139   7.254   2.074   1.903 -0.5466 -0.4248  0.0186
   15CHTO  H116 6140   7.228   2.078   2.009 -1.5634  1.7433 -0.2893
   15CHTO   C70 6141   7.159   1.996   1.811  0.1431  0.7388  0.2913
   15CHTO   O46 6142   7.202   1.986   1.677  0.1288  0.0844 -0.1885
   15CHTO  H103 6143   7.251   1.907   1.668 -1.4718 -0.9975  0.3247
   15CHTO   O39 6144   7.312   2.472   1.857  0.1068 -0.2643  0.2767
   15CHTO   C60 6145   7.246   2.479   1.729 -0.3030  0.1196 -0.4559
   15CHTO  H117 6146   7.264   2.384   1.678  1.5189  1.6459 -2.8070
   15CHTO   C62 6147   7.093   2.514   1.734 -0.1472  0.0574  0.0703
   15CHTO  H119 6148   7.037   2.438   1.793 -0.0932  0.6381  0.8812
   15CHTO   O43 6149   7.081   2.638   1.802 -0.2648 -0.6342 -0.3089
   15CHTO  H101 6150   7.045   2.708   1.751  0.0311 -0.4012 -0.1969
   15CHTO   C66 6151   7.023   2.527   1.583  0.0971  0.1797  0.6272
   15CHTO  H123 6152   7.034   2.431   1.532  1.9161 -0.3020  1.8993
   15CHTO   N12 6153   6.876   2.554   1.590 -0.1502  0.6653 -1.0261
   15CHTO  H110 6154   6.847   2.642   1.536 -2.0338  1.5452  1.3328
   15CHTO  H111 6155   6.859   2.566   1.696 -1.1244  1.1786 -1.2385
   15CHTO   C69 6156   7.105   2.629   1.516 -0.8722 -0.0834 -0.6038
   15CHTO  H126 6157   7.097   2.726   1.569  0.4347  1.3744 -3.0169
   15CHTO   O41 6158   7.262   2.589   1.500 -0.1037 -0.7257 -0.0571
   15CHTO   C64 6159   7.328   2.584   1.640  0.6986  0.6226  0.3991
   15CHTO  H121 6160   7.326   2.682   1.692 -1.4450  0.0862  1.3349
   15CHTO   C71 6161   7.479   2.551   1.624 -0.1649 -0.1578 -0.3130
   15CHTO   O47 6162   7.550   2.637   1.534 -0.3294  0.2127  0.5760
   15CHTO  H104 6163   7.545   2.607   1.445  2.4316  0.4228  0.3045
   15CHTO   O34 6164   7.058   2.642   1.385  0.1145 -0.4084 -0.0663
   15CHTO   C49 6165   7.051   2.703   1.239  0.3940 -0.2418  0.5579
   15CHTO   H91 6166   7.119   2.636   1.187 -1.7650 -1.8706 -0.2266
   15CHTO   C47 6167   7.088   2.853   1.223  0.3629  0.4503 -0.5112
   15CHTO   H89 6168   7.080   2.878   1.115 -0.0807  1.5902 -0.2207
   15CHTO   O33 6169   7.220   2.879   1.269 -0.5564 -0.5363  0.3474
   15CHTO   H70 6170   7.247   2.963   1.237 -3.8031  0.0723 -0.9099
   15CHTO   C45 6171   6.975   2.938   1.297  0.3332 -0.8013 -0.0387
   15CHTO   H87 6172   6.979   2.902   1.401  0.5610  1.5523  0.8023
   15CHTO    N8 6173   7.009   3.084   1.290 -0.3779  0.5081  0.2123
   15CHTO   H75 6174   6.992   3.138   1.382  0.5026  2.0045 -0.4916
   15CHTO   H76 6175   6.982   3.141   1.201  1.1841  3.0553  1.3178
   15CHTO   C43 6176   6.831   2.907   1.239  0.3349 -0.8100  1.0342
   15CHTO   H85 6177   6.764   2.958   1.309 -1.7664  0.2817 -1.7161
   15CHTO   O29 6178   6.806   2.761   1.239  0.1779 -0.0524  0.3955
   15CHTO   C50 6179   6.907   2.677   1.190  0.4942  0.5461 -0.4054
   15CHTO   H92 6180   6.868   2.583   1.232  1.6711 -0.6524 -1.9631
   15CHTO   C54 6181   6.884   2.671   1.036  0.6162 -0.6063  0.2985
   15CHTO   O36 6182   6.928   2.556   0.972  0.4454 -0.2177  0.0058
   15CHTO   H72 6183   7.005   2.577   0.922  1.5537 -1.4878  1.1602
   15CHTO   O27 6184   6.799   2.965   1.114  0.2073  0.0048 -0.5319
   15CHTO   C37 6185   6.711   3.035   1.026  0.6635 -0.0693 -0.1505
   15CHTO   H79 6186   6.674   2.972   0.944  2.0864  0.9767 -1.6476
   15CHTO   C38 6187   6.576   3.072   1.103  0.3456 -0.2172  0.0329
   15CHTO   H80 6188   6.595   3.136   1.190  0.8487  1.6487 -1.4135
   15CHTO   O31 6189   6.505   2.961   1.147  0.2372  0.2586 -0.5337
   15CHTO   H68 6190   6.560   2.884   1.141  1.3524  1.1166 -1.7297
   15CHTO   C39 6191   6.479   3.157   1.008 -0.6494  0.3851  0.0937
   15CHTO   H81 6192   6.441   3.085   0.935 -0.0037 -3.2367  3.1130
   15CHTO    N7 6193   6.363   3.223   1.082 -0.7593 -0.1063 -0.4809
   15CHTO   H73 6194   6.265   3.207   1.039 -0.6793  0.8537 -1.0503
   15CHTO   H74 6195   6.383   3.329   1.093 -2.7484  0.4626 -1.8971
   15CHTO   C40 6196   6.560   3.267   0.926 -0.7695  0.4074 -0.4093
   15CHTO   H82 6197   6.577   3.354   0.990  2.3230  0.3214 -1.0407
   15CHTO   O26 6198   6.681   3.218   0.865 -0.5096  0.1255  0.4356
   15CHTO   C41 6199   6.773   3.171   0.964 -0.7083 -0.5022  0.2754
   15CHTO   H83 6200   6.787   3.254   1.034 -0.3102 -0.7041  0.4395
   15CHTO   C52 6201   6.907   3.123   0.893 -0.3436 -0.2791  0.8930
   15CHTO   O35 6202   6.972   3.240   0.803  1.1735  0.1176  0.1786
   15CHTO   H71 6203   6.952   3.321   0.847  0.9108  0.6687 -0.9267
   15CHTO   O28 6204   6.494   3.323   0.815 -0.3082 -0.7014 -0.0758
   15CHTO   C42 6205   6.499   3.458   0.769 -0.8781 -0.4653  0.0297
   15CHTO   H84 6206   6.501   3.439   0.662  1.4511 -0.5244  0.0712
   15CHTO   C44 6207   6.628   3.542   0.805 -0.7404  0.1240  0.2604
   15CHTO   H86 6208   6.642   3.530   0.913 -0.1290 -3.4887 -0.1654
   15CHTO   O32 6209   6.741   3.474   0.745 -0.0413  0.3769  0.4046
   15CHTO   H69 6210   6.825   3.496   0.781  0.0054  0.5702  0.1710
   15CHTO   C48 6211   6.611   3.700   0.772  0.0602  0.3184  0.8687
   15CHTO   H90 6212   6.609   3.717   0.665 -0.7812  1.4703  1.0565
   15CHTO    N9 6213   6.732   3.778   0.828 -0.2007  0.0894  0.3080
   15CHTO   H77 6214   6.821   3.732   0.789 -0.1857 -2.0008  2.6750
   15CHTO   H78 6215   6.729   3.793   0.935 -2.1606 -0.4577  0.3587
   15CHTO   C51 6216   6.472   3.748   0.835 -0.3335  0.2788 -0.2117
   15CHTO   H93 6217   6.478   3.728   0.942  0.2895  0.7468 -0.1610
   15CHTO   O30 6218   6.370   3.670   0.768  0.7743 -0.4283 -0.3818
   15CHTO   C46 6219   6.367   3.533   0.807 -0.7183 -0.1139  0.2399
   15CHTO   H88 6220   6.338   3.519   0.911  0.9988 -1.1385  0.6076
   15CHTO   C53 6221   6.247   3.476   0.721  0.5434 -0.3537  0.2223
   15CHTO   O72 6222   6.129   3.541   0.761 -0.2064 -0.5770  0.2542
   15CHTO  H199 6223   6.057   3.481   0.755  1.6509 -2.8202 -0.4550
   15CHTO   O22 6224   6.439   3.885   0.813 -0.7391 -0.2210  0.2936
   15CHTO   C31 6225   6.338   3.967   0.882 -0.0078 -0.7276  0.0031
   15CHTO   H59 6226   6.338   4.071   0.843  0.4653 -0.2969  1.1512
   15CHTO   C29 6227   6.194   3.913   0.863 -0.3993  0.3716  0.8417
   15CHTO   H57 6228   6.192   3.805   0.884 -0.1304 -0.2327 -1.9497
   15CHTO   O21 6229   6.154   3.920   0.724  0.4725 -0.0455  0.3355
   15CHTO   H37 6230   6.188   3.842   0.684 -0.4632  0.0130 -0.5762
   15CHTO   C27 6231   6.087   3.990   0.951 -0.7611 -0.0543 -0.3973
   15CHTO   H55 6232   6.075   4.092   0.912  0.4842  0.5208  0.6517
   15CHTO    N5 6233   5.951   3.921   0.946  0.5552 -0.2862 -0.9686
   15CHTO   H43 6234   5.929   3.838   1.011  0.0818  0.5451 -0.0450
   15CHTO   H44 6235   5.878   3.999   0.963 -1.5119 -1.9146 -2.1194
   15CHTO   C25 6236   6.134   4.013   1.099  1.0451  0.5165 -0.2248
   15CHTO   H53 6237   6.127   3.921   1.159 -0.2595  1.7192  1.5054
   15CHTO   O17 6238   6.270   4.065   1.101  0.4173 -0.0166 -0.4945
   15CHTO   C32 6239   6.364   3.978   1.034  0.4487 -0.1154 -0.0213
   15CHTO   H60 6240   6.342   3.877   1.071  1.4236 -1.0667 -1.9639
   15CHTO   C36 6241   6.506   4.036   1.070  0.0354  0.2309 -0.1900
   15CHTO   O25 6242   6.524   4.049   1.208  0.6635  0.1909 -0.3785
   15CHTO   H40 6243   6.466   4.113   1.244 -1.6413 -1.8462 -0.3575
   15CHTO   O15 6244   6.058   4.128   1.141  0.4343  0.2325 -0.4786
   15CHTO   C19 6245   6.060   4.253   1.217 -0.8641  0.9017  0.0963
   15CHTO   H47 6246   6.156   4.246   1.271 -1.3385  4.0910  1.4673
   15CHTO   C20 6247   6.060   4.376   1.126  0.3643 -0.5151 -0.7460
   15CHTO   H48 6248   5.967   4.386   1.067 -0.4094 -0.3291  0.4843
   15CHTO   O19 6249   6.162   4.366   1.024 -0.5142  0.2377 -0.2778
   15CHTO   H35 6250   6.133   4.307   0.956 -2.4267 -0.1538  0.8604
   15CHTO   C21 6251   6.087   4.508   1.213 -0.1262  0.7481 -0.1655
   15CHTO   H49 6252   6.189   4.497   1.249  0.0718  0.4526 -0.8190
   15CHTO    N4 6253   6.087   4.632   1.131 -0.3448 -0.0710  0.0631
   15CHTO   H41 6254   5.988   4.668   1.108  0.0665 -0.5050 -2.5332
   15CHTO   H42 6255   6.136   4.712   1.185 -0.1568 -0.6854  0.8083
   15CHTO   C22 6256   5.986   4.520   1.330  0.0348 -0.1682  0.2203
   15CHTO   H50 6257   5.888   4.549   1.292 -0.6978  1.1580  2.9812
   15CHTO   O14 6258   5.960   4.394   1.395  0.3122 -0.4282  0.1589
   15CHTO   C23 6259   5.949   4.276   1.317 -0.5514  0.0111 -0.0896
   15CHTO   H51 6260   5.852   4.285   1.266  0.1233  0.1020 -1.3967
   15CHTO   C34 6261   5.945   4.158   1.409  0.2833 -0.5021  0.7572
   15CHTO   O23 6262   5.836   4.159   1.500 -0.0310  0.0129  0.3204
   15CHTO   H38 6263   5.817   4.077   1.544  0.9075 -0.5704 -0.3559
   15CHTO   O16 6264   6.035   4.605   1.437 -0.0781  0.0441  0.7517
   15CHTO   C24 6265   6.144   4.544   1.560 -0.0750  0.0318 -0.5369
   15CHTO   H52 6266   6.187   4.446   1.537  1.1241  0.2398  0.7116
   15CHTO   C26 6267   6.062   4.524   1.692  0.3033 -0.5669  0.8205
   15CHTO   H54 6268   6.015   4.620   1.725 -1.9985 -2.3254  2.8503
   15CHTO   O20 6269   5.948   4.445   1.664  0.5594  0.1148  0.0025
   15CHTO   H36 6270   5.878   4.447   1.726  1.2345 -2.5095  0.9145
   15CHTO   C30 6271   6.148   4.485   1.811  0.2191  0.4828  0.2613
   15CHTO   H58 6272   6.189   4.385   1.797 -0.4135  0.3222 -0.4939
   15CHTO    N6 6273   6.074   4.476   1.938 -0.0310  0.2770 -0.5598
   15CHTO   H45 6274   6.052   4.574   1.976  1.1317  0.4687 -0.3730
   15CHTO   H46 6275   6.115   4.414   2.017 -1.2113  1.3336  0.9180
   15CHTO   C33 6276   6.268   4.586   1.825  0.2302  0.1206 -0.3122
   15CHTO   H61 6277   6.233   4.687   1.850 -1.2254 -0.3395 -0.4272
   15CHTO   O18 6278   6.332   4.596   1.696  0.5575  0.0622 -0.2107
   15CHTO   C28 6279   6.258   4.635   1.586 -0.3040 -0.1265 -0.3588
   15CHTO   H56 6280   6.219   4.737   1.595 -0.1296 -0.0072 -0.8934
   15CHTO   C35 6281   6.341   4.647   1.458  0.5826  0.3875  0.6673
   15CHTO   O24 6282   6.445   4.747   1.471  0.5317 -0.7517  0.2741
   15CHTO   H39 6283   6.506   4.712   1.533 -0.4471 -2.1240  0.4878
   15CHTO    O9 6284   6.372   4.556   1.927 -0.2941  0.0210 -0.0720
   15CHTO   C13 6285   6.490   4.662   1.931  0.0997 -0.5090 -0.1755
   15CHTO   H26 6286   6.438   4.758   1.912 -0.9942 -1.1172 -0.2962
   15CHTO   C11 6287   6.599   4.639   1.817  0.8477  0.4605  0.6502
   15CHTO   H24 6288   6.562   4.668   1.718  3.3353  2.4721  0.2554
   15CHTO    O8 6289   6.638   4.500   1.818  1.0696 -0.2332  0.4902
   15CHTO    H3 6290   6.730   4.485   1.825  0.9804 -0.8212  0.4016
   15CHTO    C9 6291   6.714   4.738   1.847  0.4913 -0.7534  0.2096
   15CHTO   H22 6292   6.670   4.837   1.866  1.0646 -0.2615 -0.9701
   15CHTO    N2 6293   6.810   4.749   1.736  0.3222 -0.3000  0.3025
   15CHTO   H10 6294   6.905   4.701   1.750  0.2994 -0.5733 -0.4894
   15CHTO   H11 6295   6.820   4.856   1.720  0.4158 -0.3885 -0.2319
   15CHTO    C7 6296   6.793   4.679   1.978  0.7399  0.1226  0.0105
   15CHTO   H20 6297   6.847   4.766   2.020  2.3756 -0.4020 -0.9686
   15CHTO    O4 6298   6.695   4.627   2.075 -0.2357 -0.6640 -0.0121
   15CHTO   C14 6299   6.557   4.671   2.080  0.0728 -0.1842 -0.6126
   15CHTO   H27 6300   6.565   4.778   2.110 -1.8695 -0.5625  1.3588
   15CHTO   C18 6301   6.479   4.603   2.192  0.1411  0.3648 -0.4197
   15CHTO   O13 6302   6.349   4.653   2.222  0.2506 -0.0950  0.0908
   15CHTO    H7 6303   6.364   4.717   2.289 -0.0182 -0.6818  0.7058
   15CHTO    O2 6304   6.908   4.555   1.942 -0.5612  0.2742  0.4534
   15CHTO    C1 6305   6.979   4.514   2.059 -1.2204  0.1387 -0.0788
   15CHTO   H14 6306   6.925   4.548   2.150 -0.4706  1.7466 -0.2207
   15CHTO    C2 6307   7.128   4.568   2.063 -0.0282 -0.3395  0.9347
   15CHTO   H15 6308   7.172   4.540   1.966  0.5067  0.0191  1.0709
   15CHTO    O6 6309   7.111   4.708   2.074  0.1010  0.2969 -0.3005
   15CHTO    H1 6310   7.186   4.752   2.107 -0.0524 -0.3081  0.8899
   15CHTO    C3 6311   7.214   4.492   2.184 -0.2844 -0.4009 -0.9452
   15CHTO   H16 6312   7.181   4.532   2.281 -0.5235  3.1101 -2.4097
   15CHTO    N1 6313   7.357   4.534   2.178  0.0010 -0.2139  0.3065
   15CHTO    H8 6314   7.359   4.642   2.177  0.1562 -0.2197  0.0303
   15CHTO    H9 6315   7.410   4.494   2.264  0.4033 -1.8575 -0.6841
   15CHTO    C4 6316   7.187   4.336   2.187 -0.7344 -0.5522  0.0451
   15CHTO   H17 6317   7.247   4.298   2.105  0.6693 -0.8908  1.2195
   15CHTO    O1 6318   7.047   4.307   2.179 -0.0945 -0.1862  0.0487
   15CHTO    C5 6319   6.980   4.361   2.062 -0.0275  0.0366  0.4911
   15CHTO   H18 6320   7.028   4.329   1.969  2.3030 -0.8821  1.9676
   15CHTO   C16 6321   6.836   4.297   2.066 -0.0327  0.2961  0.0465
   15CHTO   O11 6322   6.831   4.159   2.022  0.5776 -0.1740  0.2871
   15CHTO    H5 6323   6.881   4.104   2.080  2.3772  1.1905  0.0820
   15CHTO    O3 6324   7.239   4.271   2.307 -0.4567  0.1700  0.4084
   15CHTO    C6 6325   7.246   4.124   2.280  0.1838 -1.1805 -0.5063
   15CHTO   H19 6326   7.177   4.099   2.198 -0.1917  0.8297 -0.8210
   15CHTO    C8 6327   7.395   4.081   2.269 -0.1594  0.9456  0.1548
   15CHTO   H21 6328   7.444   4.111   2.362 -0.1916  2.4254 -0.2961
   15CHTO    O7 6329   7.452   4.154   2.160  0.8111 -0.3600  0.6617
   15CHTO    H2 6330   7.438   4.109   2.079  0.1387 -0.1362  0.6491
   15CHTO   C12 6331   7.412   3.926   2.251 -0.4876 -0.3271 -0.0341
   15CHTO   H25 6332   7.355   3.904   2.158  1.7724 -0.0938 -1.5092
   15CHTO    N3 6333   7.550   3.878   2.222  0.0369  1.0313  0.3861
   15CHTO   H12 6334   7.553   3.770   2.212  0.9993  0.9454  1.5315
   15CHTO   H13 6335   7.616   3.919   2.297 -0.1050 -1.0829  1.6996
   15CHTO   C15 6336   7.335   3.851   2.366  0.0230  0.6638  0.8164
   15CHTO   H28 6337   7.392   3.834   2.457 -0.9039 -0.3249  1.2323
   15CHTO   O10 6338   7.282   3.712   2.321  0.1687 -0.1230  0.1834
   15CHTO    H4 6339   7.318   3.651   2.383  1.2208 -0.7879 -1.0651
   15CHTO    O5 6340   7.200   3.906   2.396 -0.2062 -0.1340 -0.4106
   15CHTO   C10 6341   7.195   4.053   2.411 -0.9843  0.3753  0.6494
   15CHTO   H23 6342   7.261   4.073   2.495  0.7842  2.5505 -1.1969
   15CHTO   C17 6343   7.055   4.076   2.462 -1.0188 -0.1644  0.3831
   15CHTO   O12 6344   7.031   4.009   2.584 -0.3956 -0.0903 -0.3525
   15CHTO    H6 6345   7.083   4.050   2.649 -0.3791 -0.8910  0.1492
   16CHTO  H203 6346   4.920   4.235   0.866  1.1025  0.8874  0.8735
   16CHTO   O82 6347   4.957   4.150   0.884 -0.6436 -0.0482  0.0799
   16CHTO  C123 6348   5.005   4.142   1.016 -0.4904  1.1473 -0.2353
   16CHTO  H227 6349   4.926   4.167   1.087  0.0174 -1.7164  1.4311
   16CHTO   O77 6350   5.037   3.999   1.028 -0.4914 -0.3540 -0.1168
   16CHTO  C118 6351   5.097   3.960   1.158  0.0625  0.3498 -0.1111
   16CHTO  H222 6352   5.027   3.979   1.240  0.4542  0.8919  0.0991
   16CHTO  C125 6353   5.124   3.807   1.151  0.2927 -0.5744  0.3251
   16CHTO   O84 6354   5.006   3.734   1.136  0.3475 -0.1931  0.2848
   16CHTO  H205 6355   4.997   3.716   1.044  0.7982 -0.6463  0.3237
   16CHTO  C114 6356   5.228   4.040   1.175  0.1875  0.2432  0.2498
   16CHTO  H218 6357   5.300   4.010   1.098  1.5418  2.0133  0.7866
   16CHTO  C116 6358   5.202   4.193   1.170  0.3303 -0.1974 -0.2611
   16CHTO  H220 6359   5.134   4.220   1.254  0.0848 -3.5241  0.7004
   16CHTO   O79 6360   5.337   4.250   1.182 -0.2358 -0.0548 -0.3616
   16CHTO  H201 6361   5.358   4.293   1.102 -1.7029  0.3541 -0.5311
   16CHTO  C120 6362   5.135   4.224   1.031 -0.9778  0.0567  0.1206
   16CHTO  H224 6363   5.206   4.191   0.953  0.4762  0.5575  1.2000
   16CHTO   N21 6364   5.110   4.371   1.027  0.0920  0.2819 -0.7609
   16CHTO  H211 6365   5.116   4.401   0.923 -0.0041  1.0979 -0.5360
   16CHTO  H212 6366   5.014   4.395   1.068  0.0863 -0.7826 -0.1445
   16CHTO   O75 6367   5.280   3.996   1.298 -0.5517  0.1059 -0.3689
   16CHTO  C112 6368   5.439   3.957   1.301 -0.4203  0.1206  0.0374
   16CHTO  H216 6369   5.489   4.049   1.268  0.3378  0.2889  1.5992
   16CHTO   O73 6370   5.462   3.850   1.212  0.0587  0.4715  0.6044
   16CHTO  C113 6371   5.602   3.817   1.191 -0.5183  0.4222 -0.4091
   16CHTO  H217 6372   5.652   3.903   1.142  3.6209 -1.0102  1.1644
   16CHTO  C124 6373   5.605   3.692   1.099  0.8566 -0.0425 -0.0933
   16CHTO   O83 6374   5.530   3.714   0.981 -0.1436 -0.3580 -0.0358
   16CHTO  H204 6375   5.574   3.671   0.910  0.6636 -0.8737  0.7679
   16CHTO  C109 6376   5.672   3.784   1.328  0.3829  0.3282 -0.5232
   16CHTO  H213 6377   5.638   3.685   1.360  0.1706 -0.1044 -2.0119
   16CHTO  C110 6378   5.640   3.894   1.434  0.1989  0.3435 -0.5661
   16CHTO  H214 6379   5.686   3.989   1.409  1.9494 -0.4226 -0.3103
   16CHTO   O78 6380   5.689   3.857   1.565 -0.1067  0.7435  0.1680
   16CHTO  H200 6381   5.780   3.837   1.551  0.1068  1.9888 -0.3128
   16CHTO  C111 6382   5.484   3.918   1.447  0.1136 -0.7148 -0.3149
   16CHTO  H215 6383   5.434   3.825   1.478 -2.0205  0.1513 -1.0412
   16CHTO   N19 6384   5.442   4.026   1.545 -0.0111 -0.2169  0.2285
   16CHTO  H207 6385   5.520   4.077   1.600 -2.5960  2.7959  1.2902
   16CHTO  H208 6386   5.363   4.091   1.509  2.3110  1.2922 -2.3630
   16CHTO   O74 6387   5.811   3.783   1.309 -0.1721  0.3289 -0.4583
   16CHTO  C115 6388   5.882   3.667   1.358 -0.3182 -0.1638  0.4671
   16CHTO  H219 6389   5.836   3.619   1.445  3.5165 -1.1174  2.0832
   16CHTO   O76 6390   5.885   3.551   1.253 -0.3401 -0.1449 -0.0594
   16CHTO  C122 6391   5.974   3.580   1.145  0.0136 -0.2168  0.4123
   16CHTO  H226 6392   5.943   3.677   1.107 -0.5114  0.1452  1.7637
   16CHTO  C126 6393   5.956   3.479   1.028 -0.0243 -0.9330  0.0898
   16CHTO   O85 6394   5.831   3.481   0.970  0.2659 -0.2048 -0.2887
   16CHTO  H206 6395   5.812   3.558   0.920  1.5696 -0.2893 -0.9399
   16CHTO  C121 6396   6.124   3.578   1.206  0.3966  0.0032  0.2141
   16CHTO  H225 6397   6.173   3.480   1.188 -3.4015 -1.9046 -0.2795
   16CHTO   O81 6398   6.193   3.678   1.131  0.1362  0.4159 -0.2934
   16CHTO  H202 6399   6.193   3.648   1.043 -2.2167 -0.6677  0.0380
   16CHTO  C119 6400   6.131   3.600   1.355 -0.2812 -0.1367  0.0756
   16CHTO  H223 6401   6.090   3.514   1.408 -2.3402 -0.1261 -1.4618
   16CHTO  C117 6402   6.029   3.713   1.402 -0.3098  0.0982  0.4907
   16CHTO  H221 6403   6.044   3.813   1.362 -1.3227  0.2858  0.5804
   16CHTO   N20 6404   6.034   3.740   1.555  0.1001 -0.2410 -0.4325
   16CHTO  H209 6405   5.954   3.807   1.583  1.5777  2.1708 -1.7833
   16CHTO  H210 6406   6.030   3.642   1.600 -1.3754 -0.6532 -1.4339
   16CHTO   O80 6407   6.294   3.619   1.419 -0.6865 -0.5459  0.7520
   16CHTO  C103 6408   6.393   3.490   1.409  0.2789 -0.7934  0.1090
   16CHTO  H190 6409   6.346   3.404   1.362  2.7739 -2.3116  0.3315
   16CHTO  C101 6410   6.513   3.526   1.321 -0.4464  0.1331 -0.1005
   16CHTO  H188 6411   6.563   3.617   1.354 -1.5146  0.3037  1.0633
   16CHTO   O68 6412   6.469   3.551   1.194  0.1245 -0.0716  0.3506
   16CHTO  H168 6413   6.517   3.499   1.133  0.5200  1.0295 -0.2954
   16CHTO   C99 6414   6.626   3.408   1.328  0.3945  0.0246  0.0734
   16CHTO  H186 6415   6.590   3.317   1.275 -0.8807  1.4416 -1.5312
   16CHTO   N17 6416   6.760   3.444   1.261  0.5557 -0.0551 -0.1630
   16CHTO  H174 6417   6.773   3.381   1.174 -1.8293  1.3966 -1.6117
   16CHTO  H175 6418   6.764   3.551   1.254 -3.4383  0.3002  1.5445
   16CHTO   C97 6419   6.647   3.367   1.478 -0.5821 -0.2311 -1.1247
   16CHTO  H184 6420   6.702   3.441   1.538  1.2930 -2.4362 -0.0306
   16CHTO   O64 6421   6.517   3.336   1.537 -0.4353  0.1450 -0.1942
   16CHTO  C104 6422   6.428   3.445   1.554 -0.4058 -0.3426 -0.0183
   16CHTO  H191 6423   6.484   3.523   1.607 -0.4082 -0.2619 -0.1345
   16CHTO  C108 6424   6.317   3.398   1.649  0.2656 -0.2225  0.1236
   16CHTO   O71 6425   6.225   3.498   1.675  0.9245 -0.1408 -0.1264
   16CHTO  H171 6426   6.195   3.485   1.764  1.2730 -1.7109 -0.2253
   16CHTO   O62 6427   6.722   3.248   1.492  0.0592 -0.3826 -0.0718
   16CHTO   C91 6428   6.745   3.191   1.620 -0.1070  0.3166  0.3717
   16CHTO  H178 6429   6.687   3.251   1.691 -1.3613 -0.5092  0.0531
   16CHTO   C92 6430   6.888   3.204   1.667  0.2262  0.5879 -0.0779
   16CHTO  H179 6431   6.959   3.166   1.592  0.9629  2.5549 -0.4060
   16CHTO   O66 6432   6.915   3.342   1.685  0.1552 -0.7012 -0.2309
   16CHTO  H166 6433   6.996   3.354   1.730 -0.0703 -1.3460  0.3640
   16CHTO   C93 6434   6.916   3.123   1.798  0.9043 -0.1148  0.3718
   16CHTO  H180 6435   6.877   3.182   1.882 -2.9840  1.3072 -2.2977
   16CHTO   N16 6436   7.060   3.103   1.833 -0.2027  0.1400  0.4810
   16CHTO  H172 6437   7.108   3.200   1.824  1.1165 -0.5615 -0.1342
   16CHTO  H173 6438   7.075   3.065   1.933 -1.6432 -0.6547  0.3987
   16CHTO   C94 6439   6.843   2.983   1.801 -0.1043 -0.9924  0.4164
   16CHTO  H181 6440   6.894   2.908   1.740  0.2507 -2.3875  2.3728
   16CHTO   O61 6441   6.714   2.995   1.742 -0.1149 -0.1873 -0.0628
   16CHTO   C95 6442   6.709   3.036   1.610 -0.0544  0.0636  0.1656
   16CHTO  H182 6443   6.781   2.978   1.552  0.2691 -0.2990  0.9174
   16CHTO  C106 6444   6.567   3.008   1.555 -0.3151 -0.5353  0.1389
   16CHTO   O69 6445   6.548   2.869   1.531  0.5995  0.0600 -0.0643
   16CHTO  H169 6446   6.499   2.836   1.603 -0.5212  0.8499 -0.4380
   16CHTO   O63 6447   6.827   2.936   1.962  0.1694  0.0817  0.0716
   16CHTO   C96 6448   6.696   2.851   2.008  0.2265 -0.6191 -0.3977
   16CHTO  H183 6449   6.724   2.799   2.099  1.5082  1.5827  0.5055
   16CHTO   C98 6450   6.643   2.746   1.897 -0.0538 -0.1839  0.0374
   16CHTO  H185 6451   6.669   2.788   1.798  0.1832  0.5688  0.4192
   16CHTO   O67 6452   6.713   2.619   1.904 -0.2876  0.4954  0.4353
   16CHTO  H167 6453   6.798   2.617   1.865 -0.7271  2.7746 -0.7145
   16CHTO  C102 6454   6.485   2.715   1.901 -0.0861 -0.0966 -0.2796
   16CHTO  H189 6455   6.469   2.640   1.980  0.2916  0.5910  0.4604
   16CHTO   N18 6456   6.431   2.652   1.781  0.3661 -0.5605 -0.6535
   16CHTO  H176 6457   6.373   2.717   1.718 -1.2881 -2.2945 -0.9831
   16CHTO  H177 6458   6.386   2.555   1.795 -1.1538  0.2433  0.0906
   16CHTO  C105 6459   6.411   2.845   1.953  0.7089 -0.4465  0.0563
   16CHTO  H192 6460   6.418   2.918   1.872  1.4577 -1.0413 -0.4238
   16CHTO   O65 6461   6.464   2.898   2.077  0.0721  0.3615  0.3333
   16CHTO  C100 6462   6.592   2.954   2.061  0.0847  0.4455 -0.1984
   16CHTO  H187 6463   6.573   3.029   1.983 -0.4719 -0.7252 -1.2120
   16CHTO  C107 6464   6.637   3.037   2.182 -0.8333  0.3375  0.4680
   16CHTO   O70 6465   6.546   3.149   2.188  0.3404  0.1037 -0.2057
   16CHTO  H170 6466   6.557   3.192   2.270  0.2710 -0.7836  0.2791
   16CHTO   O57 6467   6.244   2.812   1.960 -0.2360  0.4470 -0.8614
   16CHTO   C85 6468   6.151   2.908   1.917  0.5293  0.5842 -0.0596
   16CHTO  H157 6469   6.182   2.953   1.820  0.6492 -2.9196 -1.7314
   16CHTO   C83 6470   6.156   3.024   2.020 -0.0499  0.0480 -0.6260
   16CHTO  H155 6471   6.259   3.059   2.021 -0.1734  0.4006  1.0669
   16CHTO   O56 6472   6.123   2.972   2.150 -0.1153 -0.2208  0.4623
   16CHTO  H135 6473   6.192   2.915   2.177 -0.0011 -1.0193 -1.4119
   16CHTO   C81 6474   6.069   3.141   1.966 -0.3122  0.1930  0.8336
   16CHTO  H153 6475   6.120   3.173   1.875 -0.4820 -1.8508  0.0001
   16CHTO   N14 6476   6.083   3.259   2.053 -0.0912 -0.2636 -0.2260
   16CHTO  H141 6477   5.993   3.317   2.059  0.4304  0.5390 -0.0956
   16CHTO  H142 6478   6.120   3.227   2.148  0.3068 -0.5451 -0.4747
   16CHTO   C79 6479   5.921   3.092   1.924 -0.9713 -0.3525  0.7831
   16CHTO  H151 6480   5.889   3.160   1.845  2.1818 -0.0359 -0.2908
   16CHTO   O52 6481   5.914   2.963   1.864 -0.3350 -0.1932  0.2938
   16CHTO   C86 6482   6.000   2.862   1.920 -0.0309  0.1364 -0.1658
   16CHTO  H158 6483   5.966   2.841   2.023 -0.8837 -1.3504 -0.7381
   16CHTO   C90 6484   5.984   2.733   1.841  0.0777 -0.1817  0.2448
   16CHTO   O60 6485   5.857   2.681   1.841  0.2348  0.4543 -0.1424
   16CHTO  H138 6486   5.813   2.723   1.770  0.4741  0.6648 -0.1672
   16CHTO   O50 6487   5.825   3.087   2.029  0.0841  0.3121  0.0019
   16CHTO   C73 6488   5.730   3.005   2.095  0.3753  0.3014  0.4846
   16CHTO  H145 6489   5.775   2.906   2.110 -0.1246  0.0529  0.3679
   16CHTO   C74 6490   5.594   2.991   2.015 -0.1070  0.8880 -0.1156
   16CHTO  H146 6491   5.622   2.943   1.920 -3.8135  0.4124 -1.0311
   16CHTO   O54 6492   5.507   2.898   2.091 -0.0446 -0.0867 -0.3127
   16CHTO  H133 6493   5.431   2.944   2.118 -0.0736 -0.9494  1.1291
   16CHTO   C75 6494   5.526   3.131   1.993  0.0643  0.0048  0.9165
   16CHTO  H147 6495   5.590   3.195   1.929  0.7745 -0.3034  1.3110
   16CHTO   N13 6496   5.397   3.125   1.922  0.9483  0.6335  0.3156
   16CHTO  H139 6497   5.374   3.225   1.889 -1.1577 -0.6185 -2.2414
   16CHTO  H140 6498   5.322   3.086   1.989  0.8048  0.6460  0.1624
   16CHTO   C76 6499   5.510   3.208   2.131 -0.0577 -0.2269  0.3364
   16CHTO  H148 6500   5.431   3.165   2.193  0.5840  0.9439  2.0022
   16CHTO   O49 6501   5.632   3.207   2.202 -0.5972 -0.0023 -0.0914
   16CHTO   C77 6502   5.706   3.083   2.224 -0.9851 -0.0082 -0.0882
   16CHTO  H149 6503   5.633   3.028   2.283  0.2328 -0.7627  0.7442
   16CHTO   C88 6504   5.821   3.124   2.317 -0.1808  0.8554  0.3853
   16CHTO   O58 6505   5.878   3.008   2.386  0.2384  0.2437  0.1449
   16CHTO  H136 6506   5.919   2.950   2.324 -2.9963 -0.2306 -1.6416
   16CHTO   O51 6507   5.488   3.367   2.114 -0.6291  0.1910  0.1114
   16CHTO   C78 6508   5.430   3.440   2.245  0.2964  0.1120  0.5061
   16CHTO  H150 6509   5.457   3.376   2.332 -1.5185  1.5758  2.1856
   16CHTO   C80 6510   5.276   3.454   2.238  0.7109  0.9613 -0.1302
   16CHTO  H152 6511   5.257   3.510   2.144 -0.1805  0.0740 -0.4884
   16CHTO   O55 6512   5.213   3.324   2.233  0.1439  0.3413 -0.0444
   16CHTO  H134 6513   5.254   3.262   2.176 -0.3132  0.1390 -0.1613
   16CHTO   C84 6514   5.222   3.544   2.356 -1.4008  0.3794  0.0220
   16CHTO  H156 6515   5.252   3.496   2.449  0.4410 -1.8390 -1.6785
   16CHTO   N15 6516   5.073   3.560   2.365 -0.3571  0.1289  0.2466
   16CHTO  H143 6517   5.033   3.492   2.437 -0.4254  0.3565  0.4250
   16CHTO  H144 6518   5.035   3.536   2.268  2.8004 -0.2149 -0.9538
   16CHTO   C87 6519   5.298   3.678   2.356  0.4747 -0.5566 -0.1536
   16CHTO  H159 6520   5.278   3.738   2.267 -0.5440 -0.3171  0.2178
   16CHTO   O53 6521   5.451   3.642   2.376  0.2917 -0.7456 -0.7494
   16CHTO   C82 6522   5.506   3.573   2.263  0.4743 -0.1854  0.1429
   16CHTO  H154 6523   5.504   3.639   2.176  0.8009  0.3666  0.5471
   16CHTO   C89 6524   5.658   3.551   2.294 -0.3103 -0.1738  0.8004
   16CHTO   O59 6525   5.726   3.494   2.178 -0.2606 -0.2379 -0.5202
   16CHTO  H137 6526   5.816   3.505   2.156  0.4911  1.1613  2.8955
   16CHTO   O45 6527   5.259   3.764   2.479  0.0319 -0.2521  0.1509
   16CHTO   C67 6528   5.335   3.883   2.498 -0.5501  0.0502  0.3637
   16CHTO  H124 6529   5.429   3.883   2.442 -0.7877 -2.4290 -0.0667
   16CHTO   C65 6530   5.253   4.009   2.452 -0.6385 -0.1117 -0.4900
   16CHTO  H122 6531   5.147   3.994   2.472 -0.3843 -0.6628  0.5083
   16CHTO   O44 6532   5.267   4.020   2.311 -0.5262 -0.3770  0.2371
   16CHTO  H102 6533   5.359   4.026   2.291 -0.4275 -0.9850  0.4991
   16CHTO   C63 6534   5.299   4.138   2.522  0.4928 -0.1122 -0.8069
   16CHTO  H120 6535   5.242   4.150   2.614 -0.0055 -1.9410 -0.8602
   16CHTO   N11 6536   5.262   4.268   2.459  0.1172 -0.6245  0.0224
   16CHTO  H108 6537   5.312   4.270   2.364 -0.5150  1.1336 -0.2914
   16CHTO  H109 6538   5.158   4.258   2.437  0.3703  1.3834 -2.2420
   16CHTO   C61 6539   5.450   4.129   2.571 -0.0251  0.3416  0.9445
   16CHTO  H118 6540   5.469   4.216   2.635 -0.2934  2.6147 -1.9644
   16CHTO   O40 6541   5.476   4.010   2.647 -0.4005  0.1487 -0.2626
   16CHTO   C68 6542   5.381   3.905   2.645 -0.0515  0.4297 -0.4899
   16CHTO  H125 6543   5.295   3.931   2.711  0.0391  0.1144 -0.2463
   16CHTO   C72 6544   5.442   3.773   2.708  0.2752  0.1907  0.4157
   16CHTO   O48 6545   5.339   3.681   2.732 -0.0187 -0.0127 -0.2816
   16CHTO  H105 6546   5.367   3.593   2.723  0.3383 -0.1803  2.2326
   16CHTO   O38 6547   5.548   4.137   2.465  0.0462 -0.0273  0.2858
   16CHTO   C55 6548   5.680   4.167   2.488 -0.7431 -0.1189  0.4267
   16CHTO  H112 6549   5.696   4.166   2.597  0.0956  0.9120  0.3211
   16CHTO   C56 6550   5.704   4.317   2.438  0.6497  0.1303 -0.8190
   16CHTO  H113 6551   5.695   4.319   2.328  1.2602 -0.9857 -0.8960
   16CHTO   O42 6552   5.611   4.400   2.496  0.0790 -0.3650 -0.2771
   16CHTO  H100 6553   5.637   4.414   2.585 -0.4957 -1.1775  0.0212
   16CHTO   C57 6554   5.857   4.351   2.475  0.0721  0.7381  0.3158
   16CHTO  H114 6555   5.860   4.342   2.584  0.1264  2.1409  0.4299
   16CHTO   N10 6556   5.900   4.488   2.436 -0.0208 -0.1035 -0.0300
   16CHTO  H106 6557   5.980   4.525   2.498 -0.5324  1.5011 -0.2891
   16CHTO  H107 6558   5.814   4.552   2.449 -1.4959 -2.3100  1.4463
   16CHTO   C58 6559   5.946   4.250   2.406  0.5613 -0.6828 -0.0070
   16CHTO  H115 6560   5.930   4.262   2.297 -1.2984  0.8662  0.4004
   16CHTO   O37 6561   5.919   4.111   2.444 -0.1536  0.1275 -0.1031
   16CHTO   C59 6562   5.788   4.070   2.418 -0.3036  0.4712 -0.4753
   16CHTO  H116 6563   5.776   4.072   2.310  0.7232 -0.3260 -0.6140
   16CHTO   C70 6564   5.755   3.927   2.465  0.1923 -0.0890 -0.2299
   16CHTO   O46 6565   5.818   3.838   2.381 -0.0034  0.1244 -0.1216
   16CHTO  H103 6566   5.794   3.753   2.414  1.2540 -0.0166  0.4263
   16CHTO   O39 6567   6.100   4.259   2.436  0.2931 -0.7689 -0.2140
   16CHTO   C60 6568   6.181   4.161   2.364 -0.0755 -0.3699  0.3686
   16CHTO  H117 6569   6.117   4.082   2.325 -0.4712  0.0691  0.1175
   16CHTO   C62 6570   6.250   4.225   2.246  0.3680 -0.0413 -0.2125
   16CHTO  H119 6571   6.172   4.280   2.188  1.2597  1.1084 -0.3378
   16CHTO   O43 6572   6.347   4.325   2.292  0.0611 -0.3175  0.3136
   16CHTO  H101 6573   6.306   4.384   2.352  0.4907 -0.7787  1.0649
   16CHTO   C66 6574   6.318   4.113   2.156 -0.6463  0.2370 -0.3883
   16CHTO  H123 6575   6.246   4.035   2.134 -0.0948  0.0079 -1.3908
   16CHTO   N12 6576   6.358   4.164   2.019  0.3179 -0.2019 -0.0059
   16CHTO  H110 6577   6.299   4.120   1.940  1.2044 -1.0983 -0.1896
   16CHTO  H111 6578   6.465   4.162   2.002  0.5097 -0.3554  1.1982
   16CHTO   C69 6579   6.432   4.047   2.243 -0.5263 -0.0508 -0.0738
   16CHTO  H126 6580   6.505   4.124   2.274  0.3624 -1.0154  0.2690
   16CHTO   O41 6581   6.364   3.991   2.375  0.4657  0.4826  0.0012
   16CHTO   C64 6582   6.284   4.100   2.461  0.3162  1.0810  0.1023
   16CHTO  H121 6583   6.351   4.182   2.496  1.5533 -0.6260  1.8515
   16CHTO   C71 6584   6.220   4.039   2.576 -0.2066  0.1567 -1.0446
   16CHTO   O47 6585   6.125   3.931   2.555  0.1697 -0.6387  0.0445
   16CHTO  H104 6586   6.174   3.852   2.562  1.0369 -0.1453 -0.3068
   16CHTO   O34 6587   6.495   3.947   2.186 -0.3249 -0.0142 -0.1171
   16CHTO   C49 6588   6.609   3.872   2.126 -0.7073 -0.2614  0.8395
   16CHTO   H91 6589   6.654   3.928   2.043  1.2155 -2.1572  0.5731
   16CHTO   C47 6590   6.538   3.743   2.069  0.2501 -0.1456 -0.4283
   16CHTO   H89 6591   6.610   3.700   1.996  0.7947  3.1380 -1.9412
   16CHTO   O33 6592   6.431   3.789   1.988 -0.1692  0.1298  0.0433
   16CHTO   H70 6593   6.426   3.722   1.923 -0.2716 -0.4452  0.6306
   16CHTO   C45 6594   6.490   3.648   2.189  0.3051  0.4498 -0.0103
   16CHTO   H87 6595   6.408   3.695   2.244 -0.0160 -1.9162  1.6015
   16CHTO    N8 6596   6.435   3.521   2.129  0.2585  0.4488  0.1469
   16CHTO   H75 6597   6.354   3.546   2.061 -1.0957 -3.2097  0.3342
   16CHTO   H76 6598   6.395   3.451   2.200  0.6306  1.6955  1.6281
   16CHTO   C43 6599   6.607   3.620   2.298  0.2614  0.0845  0.0611
   16CHTO   H85 6600   6.556   3.573   2.382 -0.7133  3.3290  1.3773
   16CHTO   O29 6601   6.662   3.749   2.336 -0.1979 -0.2073  0.2581
   16CHTO   C50 6602   6.711   3.843   2.235  0.4875  0.0371  0.2105
   16CHTO   H92 6603   6.741   3.934   2.287  1.5635 -0.8970  1.2493
   16CHTO   C54 6604   6.845   3.791   2.172  0.2689 -0.3302  0.2665
   16CHTO   O36 6605   6.969   3.769   2.240 -0.1057 -0.5112  0.3941
   16CHTO   H72 6606   7.023   3.844   2.257 -0.9101 -0.2154  1.6976
   16CHTO   O27 6607   6.711   3.532   2.256 -0.4146  0.5893  0.5920
   16CHTO   C37 6608   6.807   3.449   2.324 -0.3587  0.3919 -0.4286
   16CHTO   H79 6609   6.875   3.507   2.387 -0.8009  1.0969 -0.5921
   16CHTO   C38 6610   6.740   3.347   2.423  0.4659 -0.2318  0.7257
   16CHTO   H80 6611   6.663   3.290   2.368 -0.9716  0.9055  1.5499
   16CHTO   O31 6612   6.683   3.422   2.534  0.1958  0.0362  0.0789
   16CHTO   H68 6613   6.649   3.365   2.601 -1.7544  0.6091 -0.3646
   16CHTO   C39 6614   6.848   3.239   2.469  0.2110  0.0544 -0.0605
   16CHTO   H81 6615   6.912   3.280   2.547 -0.3616  0.2059  0.3385
   16CHTO    N7 6616   6.774   3.125   2.540  0.3852  0.3968  0.0493
   16CHTO   H73 6617   6.674   3.111   2.502 -0.2076  2.2589  0.8494
   16CHTO   H74 6618   6.832   3.033   2.543  0.5224  0.4594 -0.6870
   16CHTO   C40 6619   6.935   3.178   2.351  0.6442  0.3873 -0.4262
   16CHTO   H82 6620   6.880   3.109   2.287  1.4891 -0.3758 -0.3400
   16CHTO   O26 6621   6.984   3.285   2.276 -0.5729  0.6001 -0.1300
   16CHTO   C41 6622   6.893   3.368   2.220 -0.3418 -0.0070  0.0278
   16CHTO   H83 6623   6.819   3.320   2.154 -1.1709  1.5818 -0.2237
   16CHTO   C52 6624   6.979   3.452   2.125 -0.3471 -0.0148  0.1366
   16CHTO   O35 6625   7.016   3.399   2.030 -0.1896  0.0995  0.0262
   16CHTO   H71 6626   7.080   3.332   2.044  0.7360  1.2808  1.6832
   16CHTO   O28 6627   7.057   3.127   2.407 -0.2681  0.5598  0.0720
   16CHTO   C42 6628   7.117   2.997   2.377  0.7800 -0.2386  0.0271
   16CHTO   H84 6629   7.212   3.011   2.429  0.7182  0.9748 -0.1619
   16CHTO   C44 6630   7.141   2.981   2.224  0.3785  0.0937 -0.0793
   16CHTO   H86 6631   7.047   2.991   2.168  1.3698 -1.5480 -2.0943
   16CHTO   O32 6632   7.221   3.085   2.180 -0.0808  0.4285 -0.0841
   16CHTO   H69 6633   7.165   3.155   2.151  0.7332  1.6350  1.2314
   16CHTO   C48 6634   7.210   2.844   2.196 -0.1315 -0.1979  0.5701
   16CHTO   H90 6635   7.306   2.853   2.247 -0.2210 -1.4062  0.9653
   16CHTO    N9 6636   7.244   2.817   2.051  0.1317 -0.2588 -0.3869
   16CHTO   H77 6637   7.150   2.798   2.001  0.0749 -1.2704  0.0940
   16CHTO   H78 6638   7.318   2.739   2.043 -0.8978 -1.3555  0.5600
   16CHTO   C51 6639   7.129   2.730   2.262 -0.0559  0.4584  0.1484
   16CHTO   H93 6640   7.028   2.744   2.222  0.4409  2.6156 -0.4028
   16CHTO   O30 6641   7.131   2.745   2.402  0.5431  0.2087  0.3388
   16CHTO   C46 6642   7.050   2.879   2.443  0.1292  0.6483  0.9007
   16CHTO   H88 6643   6.947   2.868   2.409  0.8878 -0.7073 -0.9897
   16CHTO   C53 6644   7.055   2.889   2.597  0.2100  0.3689 -0.4197
   16CHTO   O72 6645   7.004   2.767   2.653  0.4980  0.3879  0.1742
   16CHTO  H199 6646   6.910   2.770   2.658  0.5028 -1.8559  2.1518
   16CHTO   O22 6647   7.173   2.597   2.237 -0.2853 -0.2060 -0.1548
   16CHTO   C31 6648   7.071   2.489   2.257 -0.2083  0.2782  0.0072
   16CHTO   H59 6649   6.989   2.532   2.318 -0.1706 -2.1007  1.8171
   16CHTO   C29 6650   7.017   2.453   2.121  0.2427 -0.4161 -0.7347
   16CHTO   H57 6651   7.104   2.440   2.054 -0.3799 -0.7122 -1.5029
   16CHTO   O21 6652   6.948   2.568   2.065 -0.4524 -0.5872 -0.1607
   16CHTO   H37 6653   6.900   2.543   1.988  0.9315  1.5744 -1.7898
   16CHTO   C27 6654   6.927   2.320   2.120  0.3075 -0.6977  0.8399
   16CHTO   H55 6655   6.828   2.348   2.157 -0.7354 -0.8928 -1.7020
   16CHTO    N5 6656   6.920   2.276   1.978  0.0264  0.2085 -0.0154
   16CHTO   H43 6657   7.021   2.276   1.939 -0.2111  0.0590 -0.6386
   16CHTO   H44 6658   6.849   2.330   1.917  0.5482  0.7405 -0.1606
   16CHTO   C25 6659   6.980   2.209   2.217  0.3768  0.3378 -0.8562
   16CHTO   H53 6660   7.067   2.160   2.171 -0.0170 -1.5297  0.3424
   16CHTO   O17 6661   7.021   2.275   2.336 -0.1513  0.0616  0.7225
   16CHTO   C32 6662   7.123   2.375   2.337 -0.4950  0.7039 -0.4670
   16CHTO   H60 6663   7.215   2.339   2.291 -0.4787 -3.0769  2.2629
   16CHTO   C36 6664   7.153   2.407   2.482  0.4531 -1.2231 -0.0440
   16CHTO   O25 6665   7.036   2.467   2.549 -0.0447  0.4814 -0.6022
   16CHTO   H40 6666   7.029   2.559   2.535 -1.0648  0.3902 -0.7571
   16CHTO   O15 6667   6.867   2.111   2.245  0.4150  0.1681  0.3131
   16CHTO   C19 6668   6.749   2.095   2.327 -0.5362  0.4440  0.2579
   16CHTO   H47 6669   6.769   1.998   2.374  1.4463 -0.0127 -1.4764
   16CHTO   C20 6670   6.728   2.206   2.437 -0.5880 -0.4232  0.1661
   16CHTO   H48 6671   6.719   2.306   2.391  1.4061 -0.7839 -1.0548
   16CHTO   O19 6672   6.840   2.208   2.528 -0.1956  0.3827 -0.3163
   16CHTO   H35 6673   6.905   2.272   2.508  1.7066 -1.4388 -0.0557
   16CHTO   C21 6674   6.594   2.182   2.518  0.7051  0.4487  0.5248
   16CHTO   H49 6675   6.609   2.096   2.583 -0.0823 -0.1960 -0.1385
   16CHTO    N4 6676   6.564   2.298   2.612  0.1305 -0.2392  0.3218
   16CHTO   H41 6677   6.612   2.387   2.575  0.8677 -0.0971  1.6013
   16CHTO   H42 6678   6.458   2.317   2.618  0.4629  1.8738 -0.3700
   16CHTO   C22 6679   6.477   2.142   2.427 -0.7499  0.1187  0.6702
   16CHTO   H50 6680   6.454   2.234   2.374  0.2676  0.7205  1.2710
   16CHTO   O14 6681   6.505   2.032   2.338 -0.4349  0.3499 -0.0498
   16CHTO   C23 6682   6.616   2.067   2.247  0.6163  0.1214  0.1989
   16CHTO   H51 6683   6.574   2.158   2.202 -0.3940 -0.6662 -0.4999
   16CHTO   C34 6684   6.637   1.947   2.149  0.4508 -0.0638 -0.4467
   16CHTO   O23 6685   6.514   1.896   2.098 -0.5205 -0.8154 -0.6152
   16CHTO   H38 6686   6.538   1.819   2.051  0.7036  0.1613 -1.6477
   16CHTO   O16 6687   6.366   2.108   2.506  0.1143  0.0100 -0.0058
   16CHTO   C24 6688   6.221   2.152   2.453  0.5024  0.2642  0.0074
   16CHTO   H52 6689   6.225   2.188   2.351  2.3797 -2.3953 -0.9126
   16CHTO   C26 6690   6.153   2.251   2.554 -0.5499 -0.6291 -0.3081
   16CHTO   H54 6691   6.142   2.204   2.654 -3.2124  1.0719  0.2545
   16CHTO   O20 6692   6.240   2.366   2.567 -0.0781  0.0183 -0.2924
   16CHTO   H36 6693   6.226   2.419   2.643  0.1040  0.5156 -0.6037
   16CHTO   C30 6694   6.006   2.284   2.509 -0.0756 -0.0724 -0.0509
   16CHTO   H58 6695   6.005   2.334   2.412  0.5780  1.5220  0.7437
   16CHTO    N6 6696   5.941   2.374   2.605  0.5141 -0.1948 -0.3534
   16CHTO   H45 6697   5.860   2.434   2.567 -0.1819 -0.5544  0.5214
   16CHTO   H46 6698   6.015   2.439   2.650 -0.7812  1.7543 -1.0020
   16CHTO   C33 6699   5.921   2.153   2.499 -0.4663 -0.6511 -0.0149
   16CHTO   H61 6700   5.925   2.105   2.598 -2.5019  1.3488  1.0837
   16CHTO   O18 6701   5.997   2.068   2.407  0.1024  0.4218  0.4481
   16CHTO   C28 6702   6.130   2.024   2.450  0.1520  0.4883  0.2571
   16CHTO   H56 6703   6.133   1.980   2.550  0.6164  1.1565  0.5409
   16CHTO   C35 6704   6.201   1.938   2.349 -0.0377  0.0389  0.3971
   16CHTO   O24 6705   6.125   1.815   2.336 -0.1122  0.0916  0.3630
   16CHTO   H39 6706   6.048   1.821   2.283  0.9472  0.5792 -1.1417
   16CHTO    O9 6707   5.785   2.168   2.463 -0.0793 -0.6965  0.0636
   16CHTO   C13 6708   5.688   2.024   2.525 -0.3914 -0.2993 -0.4149
   16CHTO   H26 6709   5.706   2.021   2.634  0.5213  0.9933 -0.5183
   16CHTO   C11 6710   5.735   1.889   2.458  0.3959 -0.5476 -0.5563
   16CHTO   H24 6711   5.837   1.861   2.487  1.0952  1.1027 -1.4004
   16CHTO    O8 6712   5.729   1.914   2.314 -0.1973 -0.1903  0.0321
   16CHTO    H3 6713   5.736   1.832   2.269  0.3632  0.2673 -0.7275
   16CHTO    C9 6714   5.632   1.775   2.493 -0.0151 -0.7414  0.1599
   16CHTO   H22 6715   5.640   1.761   2.601  2.4983 -1.0386 -0.0446
   16CHTO    N2 6716   5.677   1.644   2.438 -0.0270 -0.2693  0.3702
   16CHTO   H10 6717   5.667   1.551   2.492  0.4307  0.8393  2.4191
   16CHTO   H11 6718   5.630   1.629   2.342  1.2152  0.7581 -0.4115
   16CHTO    C7 6719   5.485   1.816   2.458 -0.4940 -0.4489  0.5983
   16CHTO   H20 6720   5.434   1.800   2.555 -1.7928  1.0486  0.1906
   16CHTO    O4 6721   5.475   1.953   2.416 -0.0124 -0.2668  0.3175
   16CHTO   C14 6722   5.532   2.046   2.507 -0.1042  0.2644  0.0262
   16CHTO   H27 6723   5.494   2.033   2.610 -0.6471 -1.8767 -0.4232
   16CHTO   C18 6724   5.484   2.187   2.463 -0.4438  0.8493 -0.1229
   16CHTO   O13 6725   5.529   2.284   2.564  0.0622 -0.1027  0.1733
   16CHTO    H7 6726   5.621   2.281   2.580 -0.1734 -1.7604  1.5027
   16CHTO    O2 6727   5.413   1.730   2.348  0.1096  0.3161 -0.0855
   16CHTO    C1 6728   5.269   1.723   2.349  0.0135 -0.3327  0.4402
   16CHTO   H14 6729   5.250   1.652   2.266 -2.5706  0.2969  0.4607
   16CHTO    C2 6730   5.182   1.855   2.331 -0.0663  0.6798 -0.6452
   16CHTO   H15 6731   5.208   1.909   2.424  1.3974 -1.7485  0.4091
   16CHTO    O6 6732   5.226   1.923   2.211 -0.0797 -0.8654 -0.3881
   16CHTO    H1 6733   5.315   1.910   2.187  0.0210  0.4695 -0.7930
   16CHTO    C3 6734   5.023   1.824   2.336  0.1340 -0.4394 -0.0456
   16CHTO   H16 6735   4.979   1.778   2.247  0.9039 -0.9254 -0.1825
   16CHTO    N1 6736   4.943   1.947   2.352  0.2321  0.3267  0.5751
   16CHTO    H8 6737   4.974   2.000   2.441 -0.0702 -0.9581  1.4600
   16CHTO    H9 6738   4.839   1.920   2.345  0.0459  0.9813  0.7720
   16CHTO    C4 6739   4.995   1.718   2.452  0.3526  0.7214  0.2412
   16CHTO   H17 6740   5.002   1.773   2.546  0.7107  0.3737  0.4186
   16CHTO    O1 6741   5.086   1.608   2.454  0.0028  0.2561 -0.0052
   16CHTO    C5 6742   5.217   1.647   2.480 -0.2320  1.1352 -0.0235
   16CHTO   H18 6743   5.238   1.717   2.561 -0.2919  0.4387  0.5946
   16CHTO   C16 6744   5.306   1.525   2.511  0.1971  0.1792 -0.2856
   16CHTO   O11 6745   5.290   1.424   2.414 -0.0790  0.0195 -0.1843
   16CHTO    H5 6746   5.205   1.386   2.425  0.3356 -1.9959 -3.3135
   16CHTO    O3 6747   4.868   1.648   2.440  0.1990  0.1930 -0.2988
   16CHTO    C6 6748   4.799   1.602   2.564 -0.2400 -0.1026 -0.6618
   16CHTO   H19 6749   4.867   1.609   2.650  0.5488  1.7048 -1.4228
   16CHTO    C8 6750   4.686   1.688   2.608 -0.3072 -0.1281  0.3516
   16CHTO   H21 6751   4.614   1.691   2.526  0.2815  0.0112 -0.1640
   16CHTO    O7 6752   4.738   1.815   2.641 -0.4356 -0.1720  0.0114
   16CHTO    H2 6753   4.736   1.868   2.563  0.4664  0.0942  0.1627
   16CHTO   C12 6754   4.603   1.630   2.734 -0.0316 -0.0269 -0.4881
   16CHTO   H25 6755   4.683   1.636   2.811 -0.6941  3.0677  0.0306
   16CHTO    N3 6756   4.474   1.700   2.771  0.5641  0.4443  0.5853
   16CHTO   H12 6757   4.472   1.741   2.870  0.7902  0.5767  0.5359
   16CHTO   H13 6758   4.449   1.772   2.694 -0.1352 -1.5840 -1.1326
   16CHTO   C15 6759   4.578   1.480   2.713  0.2382  0.4840 -0.3247
   16CHTO   H28 6760   4.497   1.449   2.647  1.2653 -2.7265 -0.1746
   16CHTO   O10 6761   4.545   1.418   2.836  0.1370  0.4132 -0.3464
   16CHTO    H4 6762   4.459   1.434   2.870  0.2225  1.3232 -0.5542
   16CHTO    O5 6763   4.696   1.411   2.681  0.0007  0.2659 -0.1433
   16CHTO   C10 6764   4.759   1.455   2.555 -0.0043 -0.6602  0.0787
   16CHTO   H23 6765   4.683   1.429   2.482 -0.3385 -0.3932  0.3344
   16CHTO   C17 6766   4.880   1.362   2.538  0.2613  0.7471 -0.0098
   16CHTO   O12 6767   4.968   1.363   2.649 -0.6130  0.2920 -1.1804
   16CHTO    H6 6768   5.053   1.356   2.611 -0.1781  1.6516 -0.4884
   17CHTO  H203 6769   4.130   5.124   0.560 -1.2092 -1.1861 -2.2391
   17CHTO   O82 6770   4.066   5.083   0.615 -0.2678  0.4893  0.1531
   17CHTO  C123 6771   4.081   5.128   0.749 -0.0300  0.0555 -0.1491
   17CHTO  H227 6772   4.006   5.074   0.809 -1.0379  2.5733  0.9228
   17CHTO   O77 6773   4.216   5.085   0.781 -0.1372 -0.5843  0.0584
   17CHTO  C118 6774   4.265   5.126   0.915 -0.8990  0.1461  0.7347
   17CHTO  H222 6775   4.209   5.076   0.996 -0.3108  0.6506  1.4549
   17CHTO  C125 6776   4.418   5.081   0.928  0.4805 -0.6251  0.5786
   17CHTO   O84 6777   4.438   4.945   0.882  0.1131  0.2622 -0.1473
   17CHTO  H205 6778   4.435   4.882   0.952  1.6152 -0.2048 -0.4763
   17CHTO  C114 6779   4.255   5.281   0.930 -0.0407 -0.5546  0.2841
   17CHTO  H218 6780   4.322   5.330   0.860 -1.6639 -1.0805 -1.6778
   17CHTO  C116 6781   4.105   5.330   0.904  0.2491 -0.1299 -1.0601
   17CHTO  H220 6782   4.042   5.291   0.986 -1.3587  0.0855 -2.1688
   17CHTO   O79 6783   4.113   5.475   0.909 -0.1305 -0.3842 -0.0097
   17CHTO  H201 6784   4.026   5.508   0.899 -0.1717 -0.1859  0.9854
   17CHTO  C120 6785   4.053   5.282   0.770 -1.0697  0.2952  1.0129
   17CHTO  H224 6786   4.114   5.332   0.692 -1.7303  0.5120  0.6385
   17CHTO   N21 6787   3.913   5.326   0.751  0.4974  0.5604 -0.5060
   17CHTO  H211 6788   3.893   5.369   0.654 -0.8194  0.2524 -0.3924
   17CHTO  H212 6789   3.869   5.386   0.830 -1.7826 -1.9530  0.2326
   17CHTO   O75 6790   4.301   5.293   1.064 -0.1441 -0.1244  0.6744
   17CHTO  C112 6791   4.316   5.444   1.139  0.6324 -0.2302  0.4937
   17CHTO  H216 6792   4.216   5.482   1.164  0.6049  1.0802 -1.4804
   17CHTO   O73 6793   4.380   5.530   1.049 -0.1736 -0.2359  0.3124
   17CHTO  C113 6794   4.404   5.662   1.100 -0.3755  0.1250  0.1511
   17CHTO  H217 6795   4.309   5.695   1.146 -0.0803  1.4130 -0.1452
   17CHTO  C124 6796   4.445   5.759   0.990  0.1465 -0.3789  0.2748
   17CHTO   O83 6797   4.575   5.744   0.933 -0.2861  0.0278  0.3152
   17CHTO  H204 6798   4.566   5.663   0.885  0.4131  0.3237 -0.3283
   17CHTO  C109 6799   4.508   5.659   1.218  0.0183  0.3829 -0.5377
   17CHTO  H213 6800   4.605   5.622   1.183  0.8146  1.3378  0.6146
   17CHTO  C110 6801   4.446   5.571   1.333 -0.4450 -0.0207  0.6080
   17CHTO  H214 6802   4.355   5.617   1.371 -0.0751  0.8244  0.4657
   17CHTO   O78 6803   4.529   5.556   1.453 -0.1369  0.1575 -0.4510
   17CHTO  H200 6804   4.571   5.640   1.459 -0.5279  0.2158  1.5790
   17CHTO  C111 6805   4.404   5.433   1.272  0.6984  0.4434  0.6430
   17CHTO  H215 6806   4.496   5.380   1.246 -1.0293 -3.0697  1.3462
   17CHTO   N19 6807   4.336   5.347   1.374  0.0636 -0.0915  0.1598
   17CHTO  H207 6808   4.246   5.401   1.400 -0.2970 -0.8597  0.5255
   17CHTO  H208 6809   4.401   5.347   1.461 -0.4543 -0.3235  0.5498
   17CHTO   O74 6810   4.523   5.791   1.270 -0.9187  0.5168  0.4880
   17CHTO  C115 6811   4.673   5.841   1.320  0.0863  0.2970 -0.0867
   17CHTO  H219 6812   4.671   5.887   1.418 -1.2061  0.3410 -0.1260
   17CHTO   O76 6813   4.777   5.723   1.338  0.1525 -0.0622 -0.2093
   17CHTO  C122 6814   4.915   5.750   1.359  0.0988 -0.0153 -0.8136
   17CHTO  H226 6815   4.963   5.677   1.295 -0.5810  0.2731 -1.6603
   17CHTO  C126 6816   4.956   5.718   1.511  0.3552 -0.8169  0.3343
   17CHTO   O85 6817   4.903   5.807   1.614 -0.3268  0.0908  0.2307
   17CHTO  H206 6818   4.831   5.761   1.653  1.6042 -0.9184  2.6618
   17CHTO  C121 6819   4.969   5.897   1.312 -0.2504 -0.0408  0.3720
   17CHTO  H225 6820   5.028   5.941   1.396  0.6834  1.1108 -0.8549
   17CHTO   O81 6821   5.072   5.880   1.207  0.2174 -0.6043 -0.6438
   17CHTO  H202 6822   5.035   5.839   1.131 -2.8232 -0.5628  0.7289
   17CHTO  C119 6823   4.869   6.007   1.266 -0.3125 -0.3185 -0.3611
   17CHTO  H223 6824   4.852   6.069   1.354  3.2099 -0.3460  0.4095
   17CHTO  C117 6825   4.736   5.942   1.213 -0.4266  0.2076  0.0968
   17CHTO  H221 6826   4.744   5.891   1.117  2.0665  1.1549 -0.2450
   17CHTO   N20 6827   4.630   6.050   1.193  0.7871  0.2373 -0.5958
   17CHTO  H209 6828   4.541   6.001   1.158  1.4958 -0.9582 -0.7582
   17CHTO  H210 6829   4.678   6.116   1.122  2.8993 -0.7685 -0.1569
   17CHTO   O80 6830   4.937   6.115   1.169 -0.0654  0.7725  0.1389
   17CHTO  C103 6831   5.017   6.240   1.216  0.3488  0.6162 -0.0922
   17CHTO  H190 6832   5.002   6.258   1.323 -0.8353 -1.1154  0.0413
   17CHTO  C101 6833   5.175   6.219   1.185  0.2079 -0.0088  0.0082
   17CHTO  H188 6834   5.188   6.151   1.101  3.0944 -2.4744  2.3236
   17CHTO   O68 6835   5.225   6.137   1.295 -0.5095 -0.1645  0.2058
   17CHTO  H168 6836   5.292   6.181   1.345  1.2460 -1.8350 -0.5965
   17CHTO   C99 6837   5.247   6.357   1.163 -0.0685 -0.6963  0.4463
   17CHTO  H186 6838   5.265   6.414   1.256  2.0739  1.3807 -1.1906
   17CHTO   N17 6839   5.388   6.345   1.118 -0.2510 -0.2111 -0.3612
   17CHTO  H174 6840   5.419   6.367   1.017  1.2490 -0.6342 -0.0027
   17CHTO  H175 6841   5.442   6.260   1.157 -1.0434  0.7757  3.0573
   17CHTO   C97 6842   5.165   6.443   1.074  0.0907 -0.3327 -0.0392
   17CHTO  H184 6843   5.145   6.390   0.980  1.7369 -0.9727 -0.0440
   17CHTO   O64 6844   5.043   6.471   1.147  0.5113 -0.0917 -0.0069
   17CHTO  C104 6845   4.950   6.370   1.141 -0.6493 -0.1811  0.0068
   17CHTO  H191 6846   4.924   6.347   1.038 -0.0039 -0.7344 -0.0367
   17CHTO  C108 6847   4.818   6.405   1.213 -0.2315 -0.5918 -0.3625
   17CHTO   O71 6848   4.823   6.420   1.355  0.2311 -0.0045  0.2213
   17CHTO  H171 6849   4.831   6.508   1.387 -0.2373 -0.1170  0.6556
   17CHTO   O62 6850   5.222   6.577   1.054 -0.1575 -0.0825 -0.0029
   17CHTO   C91 6851   5.154   6.667   0.962 -0.2420  0.0117  0.1956
   17CHTO  H178 6852   5.087   6.613   0.895  1.2353 -1.5511 -0.0722
   17CHTO   C92 6853   5.264   6.736   0.879 -0.2149 -0.3606  0.4590
   17CHTO  H179 6854   5.337   6.667   0.834 -1.7658 -1.1477 -0.8548
   17CHTO   O66 6855   5.205   6.777   0.759  0.2008 -0.3446  0.3503
   17CHTO  H166 6856   5.126   6.826   0.765 -0.6179 -1.4728 -0.8157
   17CHTO   C93 6857   5.338   6.863   0.942 -0.5982 -1.0220  0.4366
   17CHTO  H180 6858   5.386   6.920   0.861 -1.1019 -0.2161  0.7109
   17CHTO   N16 6859   5.444   6.818   1.030  0.0770 -0.5402  0.3716
   17CHTO  H172 6860   5.412   6.753   1.110 -1.5621 -0.3103 -0.0838
   17CHTO  H173 6861   5.534   6.787   0.978 -0.1487 -0.6613  0.0504
   17CHTO   C94 6862   5.239   6.957   1.019 -0.4377 -0.0048 -0.0099
   17CHTO  H181 6863   5.249   6.948   1.127 -2.7132 -1.8579  0.0760
   17CHTO   O61 6864   5.096   6.911   0.991  0.1757  0.0447 -0.2635
   17CHTO   C95 6865   5.060   6.776   1.026 -0.4147 -0.3878 -0.3912
   17CHTO  H182 6866   5.068   6.761   1.134  0.9334  2.5310 -0.0374
   17CHTO  C106 6867   4.912   6.755   0.971 -0.4711  0.0686 -0.1874
   17CHTO   O69 6868   4.810   6.801   1.059 -0.3316  0.2461 -0.1781
   17CHTO  H169 6869   4.736   6.813   1.003  0.4856  2.0942 -0.9142
   17CHTO   O63 6870   5.264   7.107   0.975 -0.5669  0.4273  0.4181
   17CHTO   C96 6871   5.200   7.203   1.042  0.1777 -0.0622  0.2957
   17CHTO  H183 6872   5.167   7.158   1.136  0.1079  0.1310  0.3634
   17CHTO   C98 6873   5.075   7.273   0.977  0.0323  0.4406  0.4645
   17CHTO  H185 6874   5.098   7.303   0.874 -0.9004 -1.2981 -0.2811
   17CHTO   O67 6875   4.981   7.161   0.953 -0.9102  0.2584  0.5934
   17CHTO  H167 6876   4.894   7.196   0.946 -1.3007 -0.5610  1.2870
   17CHTO  C102 6877   5.013   7.387   1.065 -0.6010  1.1498  1.0027
   17CHTO  H189 6878   4.965   7.322   1.140 -1.4109 -0.3265 -0.7443
   17CHTO   N18 6879   4.897   7.453   0.998 -0.6050 -0.2767 -0.2653
   17CHTO  H176 6880   4.818   7.382   0.977 -0.7650 -0.4838  1.0114
   17CHTO  H177 6881   4.927   7.503   0.907 -2.9689  0.3724 -0.7318
   17CHTO  C105 6882   5.124   7.482   1.115 -0.0285  0.4081  0.6096
   17CHTO  H192 6883   5.098   7.580   1.075 -2.1349  0.5058  2.1511
   17CHTO   O65 6884   5.258   7.453   1.059  0.9361  0.0929 -0.8709
   17CHTO  C100 6885   5.308   7.317   1.065  0.3685 -0.4925  0.7434
   17CHTO  H187 6886   5.382   7.310   0.984 -0.1261 -0.3117  0.2764
   17CHTO  C107 6887   5.379   7.303   1.205  0.0484  0.1653 -0.3476
   17CHTO   O70 6888   5.489   7.205   1.215 -0.0432 -0.4401  0.3194
   17CHTO  H170 6889   5.517   7.169   1.134  1.9967  3.2397 -0.7481
   17CHTO   O57 6890   5.121   7.487   1.264 -0.6191  0.4701  0.2954
   17CHTO   C85 6891   5.042   7.580   1.330  0.1458 -1.2087  0.1027
   17CHTO  H157 6892   4.981   7.631   1.253 -1.1624  0.6639  2.2858
   17CHTO   C83 6893   5.129   7.701   1.390  0.6434  0.5257  0.0647
   17CHTO  H155 6894   5.177   7.749   1.305  0.3133  1.4629  0.4015
   17CHTO   O56 6895   5.226   7.649   1.481  0.3288 -0.3826  0.6314
   17CHTO  H135 6896   5.302   7.703   1.492  0.6965 -0.2924 -1.9868
   17CHTO   C81 6897   5.031   7.801   1.457 -0.0609  0.1455 -0.0628
   17CHTO  H153 6898   4.959   7.836   1.382  0.9171 -2.1664 -2.1697
   17CHTO   N14 6899   5.101   7.930   1.488  0.0285  0.4433  0.3142
   17CHTO  H141 6900   5.091   7.978   1.583 -1.2046  0.4854  0.1732
   17CHTO  H142 6901   5.080   7.998   1.408 -1.8003  0.5184  0.8353
   17CHTO   C79 6902   4.949   7.733   1.578  0.5306 -0.5360 -0.1207
   17CHTO  H151 6903   4.872   7.801   1.616  1.0110  0.0536 -0.2038
   17CHTO   O52 6904   4.874   7.614   1.531  0.0831  1.1329  0.5045
   17CHTO   C86 6905   4.952   7.519   1.447 -0.0852  0.7653 -0.6960
   17CHTO  H158 6906   5.008   7.464   1.526 -0.2455  1.3480 -0.1802
   17CHTO   C90 6907   4.844   7.419   1.394 -0.1096 -0.2445 -0.2791
   17CHTO   O60 6908   4.776   7.475   1.278  0.2159  0.1616  0.7860
   17CHTO  H138 6909   4.741   7.556   1.309  1.0126  0.3000  1.3253
   17CHTO   O50 6910   5.031   7.695   1.687  0.0065  0.3458  1.0828
   17CHTO   C73 6911   5.014   7.693   1.833  0.1557 -0.0016  0.8833
   17CHTO  H145 6912   5.010   7.794   1.877  2.7024 -0.0877  1.3875
   17CHTO   C74 6913   5.143   7.622   1.892 -0.1118 -0.9326 -0.2116
   17CHTO  H146 6914   5.228   7.684   1.861 -1.3836  1.3517  0.7598
   17CHTO   O54 6915   5.141   7.633   2.036  0.3396 -0.9291 -0.1807
   17CHTO  H133 6916   5.228   7.617   2.066  1.1848 -2.0634 -3.1038
   17CHTO   C75 6917   5.152   7.477   1.833  0.3218 -0.1240 -0.4569
   17CHTO  H147 6918   5.149   7.485   1.723  1.2103  1.2412 -0.4004
   17CHTO   N13 6919   5.270   7.400   1.867  0.0977  0.1343 -0.6736
   17CHTO  H139 6920   5.368   7.437   1.841  0.4716 -0.0757  0.3746
   17CHTO  H140 6921   5.261   7.300   1.829  0.2010  0.6990 -2.2289
   17CHTO   C76 6922   5.015   7.402   1.874  0.1131 -0.4964 -0.3198
   17CHTO  H148 6923   5.007   7.407   1.983  1.6741 -0.2995 -0.2107
   17CHTO   O49 6924   4.898   7.473   1.822 -0.5311 -0.6248 -0.3390
   17CHTO   C77 6925   4.889   7.607   1.872 -0.0494  0.1675 -0.0584
   17CHTO  H149 6926   4.873   7.611   1.979  0.3599  1.2091 -0.0291
   17CHTO   C88 6927   4.754   7.664   1.826 -0.3844 -0.2304  0.4920
   17CHTO   O58 6928   4.748   7.806   1.859  0.3401  0.5289 -0.7021
   17CHTO  H136 6929   4.801   7.850   1.795  2.1653 -1.7361 -0.8105
   17CHTO   O51 6930   4.999   7.263   1.816 -0.3766  0.2058 -0.6021
   17CHTO   C78 6931   4.867   7.183   1.872 -0.1079  0.1920  0.4096
   17CHTO  H150 6932   4.791   7.255   1.908 -1.0816  1.5465 -3.9572
   17CHTO   C80 6933   4.921   7.102   1.988  0.4954  0.1593 -0.0989
   17CHTO  H152 6934   5.023   7.065   1.964  1.7497  3.4759 -0.0120
   17CHTO   O55 6935   4.954   7.201   2.093 -0.6230 -0.1137  0.6397
   17CHTO  H134 6936   4.877   7.218   2.142 -1.8240  0.0864 -1.2656
   17CHTO   C84 6937   4.824   6.987   2.037 -0.1003  0.4506 -0.6523
   17CHTO  H156 6938   4.735   7.028   2.084 -0.1823 -1.5024  0.9264
   17CHTO   N15 6939   4.895   6.898   2.140 -0.5074  0.0698 -0.2486
   17CHTO  H143 6940   4.994   6.884   2.102 -0.3106 -0.8756  0.6206
   17CHTO  H144 6941   4.845   6.806   2.159 -0.0408  0.2363  1.9299
   17CHTO   C87 6942   4.770   6.904   1.914  0.3728 -0.5780  0.3026
   17CHTO  H159 6943   4.849   6.835   1.883 -1.0215 -2.8602  1.6819
   17CHTO   O53 6944   4.732   6.986   1.802  0.0979 -0.3234  0.3798
   17CHTO   C82 6945   4.816   7.090   1.757 -0.1867 -0.2291 -0.4038
   17CHTO  H154 6946   4.897   7.037   1.709  0.2507  1.2570 -1.3247
   17CHTO   C89 6947   4.739   7.165   1.647 -0.1879  0.0441 -0.2257
   17CHTO   O59 6948   4.627   7.233   1.702  0.2907  0.1912 -0.2948
   17CHTO  H137 6949   4.592   7.286   1.633  0.2511 -1.9520 -1.9769
   17CHTO   O45 6950   4.651   6.796   1.961 -0.5042  0.1426  0.5856
   17CHTO   C67 6951   4.528   6.864   1.991 -1.1500  0.3492 -0.3691
   17CHTO  H124 6952   4.538   6.960   2.042  2.6322 -0.6384  0.8368
   17CHTO   C65 6953   4.450   6.891   1.852 -0.1174 -0.1066  0.0388
   17CHTO  H122 6954   4.519   6.878   1.769  1.8944 -2.6396  2.0201
   17CHTO   O44 6955   4.399   7.026   1.844  0.6910 -0.3321 -0.1818
   17CHTO  H102 6956   4.477   7.074   1.821  0.3749  0.2177 -0.0954
   17CHTO   C63 6957   4.341   6.784   1.826  0.3445 -0.0057 -0.6746
   17CHTO  H120 6958   4.388   6.685   1.826  2.2092  0.8679 -1.2163
   17CHTO   N11 6959   4.280   6.792   1.689 -1.0525 -0.2417  0.1168
   17CHTO  H108 6960   4.180   6.830   1.693 -1.5279 -1.4159 -0.2683
   17CHTO  H109 6961   4.337   6.856   1.625 -2.5923  0.5948 -0.4584
   17CHTO   C61 6962   4.238   6.775   1.942 -0.8274  0.0964  0.1605
   17CHTO  H118 6963   4.194   6.674   1.938 -0.0100 -0.2690  0.3229
   17CHTO   O40 6964   4.293   6.792   2.072 -0.2581 -0.1228 -0.0012
   17CHTO   C68 6965   4.441   6.773   2.090  0.6498  0.2761  0.0173
   17CHTO  H125 6966   4.456   6.664   2.076  1.7727  0.4007  0.2104
   17CHTO   C72 6967   4.471   6.802   2.246 -0.2256 -0.0950  0.1874
   17CHTO   O48 6968   4.370   6.750   2.330 -0.1459  0.0592 -0.5955
   17CHTO  H105 6969   4.332   6.668   2.304  0.4528 -0.4527  0.1068
   17CHTO   O38 6970   4.133   6.870   1.933  0.4354 -0.2258  0.6705
   17CHTO   C55 6971   4.019   6.858   2.023 -0.0106 -0.2738  0.0291
   17CHTO  H112 6972   4.046   6.799   2.112  0.2058 -1.4029 -0.7758
   17CHTO   C56 6973   3.896   6.787   1.940  0.3991 -0.3812 -0.5062
   17CHTO  H113 6974   3.866   6.835   1.846  1.5805  1.1095 -0.1426
   17CHTO   O42 6975   3.935   6.659   1.902 -0.2911  0.4200 -0.3312
   17CHTO  H100 6976   3.868   6.617   1.852  2.1522 -2.1448 -1.5377
   17CHTO   C57 6977   3.776   6.789   2.039  1.0474 -0.7439  0.2472
   17CHTO  H114 6978   3.802   6.726   2.124 -0.3773 -1.1439  0.3947
   17CHTO   N10 6979   3.641   6.734   1.990 -0.4039  0.0502  0.4274
   17CHTO  H106 6980   3.617   6.666   2.071 -0.4704 -0.6122 -0.1403
   17CHTO  H107 6981   3.666   6.671   1.905 -1.1336  1.6743 -1.0328
   17CHTO   C58 6982   3.743   6.933   2.091 -0.0275  0.3616  0.1613
   17CHTO  H115 6983   3.721   6.995   2.002  0.3483 -3.3861 -2.6566
   17CHTO   O37 6984   3.860   6.993   2.160  0.6085 -0.5090 -0.4208
   17CHTO   C59 6985   3.988   7.000   2.083 -0.4497  0.2652 -1.8616
   17CHTO  H116 6986   3.965   7.072   2.004 -0.9472  3.0504  0.7042
   17CHTO   C70 6987   4.097   7.049   2.181 -0.7400  0.4360 -0.8729
   17CHTO   O46 6988   4.233   7.057   2.128 -0.8318 -0.0341 -0.0278
   17CHTO  H103 6989   4.240   7.111   2.052 -0.2005 -1.5793 -1.1085
   17CHTO   O39 6990   3.614   6.943   2.199 -0.1620 -0.3545  0.4347
   17CHTO   C60 6991   3.553   7.077   2.196  0.1007 -0.2824 -0.2245
   17CHTO  H117 6992   3.630   7.148   2.168 -1.4357  1.2289 -0.6858
   17CHTO   C62 6993   3.440   7.080   2.083  0.1586 -0.2890  0.0707
   17CHTO  H119 6994   3.494   7.058   1.989  1.8784  1.3170  0.6407
   17CHTO   O43 6995   3.343   6.983   2.122 -0.1884 -0.6876  0.5273
   17CHTO  H101 6996   3.313   6.998   2.209 -0.5609  0.2597  0.2402
   17CHTO   C66 6997   3.378   7.230   2.079 -0.1458 -0.0114 -0.0202
   17CHTO  H123 6998   3.456   7.303   2.058 -0.6496 -0.0495 -2.2280
   17CHTO   N12 6999   3.281   7.248   1.964  0.1621 -0.1082 -0.7169
   17CHTO  H110 7000   3.240   7.347   1.976  0.5726  0.3380 -2.7864
   17CHTO  H111 7001   3.323   7.239   1.865  1.0213  1.9980 -0.5784
   17CHTO   C69 7002   3.312   7.253   2.215  0.1298 -0.3554  0.0312
   17CHTO  H126 7003   3.233   7.177   2.235 -3.7448  3.1463 -1.3484
   17CHTO   O41 7004   3.418   7.249   2.331 -0.3929  0.1973 -0.0980
   17CHTO   C64 7005   3.498   7.119   2.339 -0.2300 -0.1835 -0.4653
   17CHTO  H121 7006   3.436   7.044   2.393 -1.2298  0.8823 -0.1126
   17CHTO   C71 7007   3.616   7.152   2.435  0.5494  0.1524  0.3848
   17CHTO   O47 7008   3.687   7.036   2.456  0.1250  0.1075 -0.1290
   17CHTO  H104 7009   3.776   7.058   2.474  0.0618  2.2508 -2.1526
   17CHTO   O34 7010   3.240   7.393   2.221  0.1636  0.3426 -0.3928
   17CHTO   C49 7011   3.123   7.478   2.270  0.6268 -0.5099 -0.6417
   17CHTO   H91 7012   3.163   7.567   2.318 -0.0827 -1.1959  1.2975
   17CHTO   C47 7013   3.046   7.399   2.381 -0.3299  0.5412  0.8908
   17CHTO   H89 7014   2.975   7.471   2.426 -0.4667  1.4239 -0.6864
   17CHTO   O33 7015   3.134   7.352   2.482  0.1491  0.4356 -0.6830
   17CHTO   H70 7016   3.188   7.287   2.441 -1.6802  0.1161 -2.7010
   17CHTO   C45 7017   2.966   7.267   2.327 -0.0873 -0.0564 -0.0477
   17CHTO   H87 7018   3.030   7.180   2.347 -2.3111 -1.2421  2.3207
   17CHTO    N8 7019   2.838   7.248   2.404  0.3025 -0.3056  0.2674
   17CHTO   H75 7020   2.822   7.315   2.487  0.3583  0.8834 -0.6760
   17CHTO   H76 7021   2.830   7.143   2.427 -0.7175 -0.4842 -0.8576
   17CHTO   C43 7022   2.936   7.287   2.169  0.0768  0.4667  0.4905
   17CHTO   H85 7023   3.032   7.260   2.125 -0.4789 -0.1407 -0.3574
   17CHTO   O29 7024   2.902   7.424   2.144  0.4919 -0.0239  0.5519
   17CHTO   C50 7025   3.013   7.519   2.159 -0.0830 -0.3142  0.4361
   17CHTO   H92 7026   3.058   7.522   2.059  1.4634  1.2307  1.1681
   17CHTO   C54 7027   2.960   7.656   2.177  0.2506 -0.1014  0.5808
   17CHTO   O36 7028   2.879   7.687   2.295 -0.6351 -0.4112 -0.6413
   17CHTO   H72 7029   2.843   7.774   2.298  0.7922  0.1558  0.5248
   17CHTO   O27 7030   2.843   7.201   2.114 -0.4455  0.2306  0.5238
   17CHTO   C37 7031   2.819   7.081   2.035  0.4880  0.1587 -0.4919
   17CHTO   H79 7032   2.731   7.093   1.971  0.6701 -1.4150 -1.0682
   17CHTO   C38 7033   2.938   7.069   1.930 -0.7896  0.3756  0.9481
   17CHTO   H80 7034   3.035   7.077   1.983 -0.7356 -1.3194  1.1450
   17CHTO   O31 7035   2.942   7.182   1.843 -0.5346 -0.3933 -0.3867
   17CHTO   H68 7036   2.996   7.253   1.873  2.8296 -1.9618 -2.3861
   17CHTO   C39 7037   2.929   6.937   1.847  0.0836 -0.4407 -0.4213
   17CHTO   H81 7038   2.857   6.946   1.766  2.0237  1.4464 -2.0075
   17CHTO    N7 7039   3.055   6.922   1.766  0.3329 -0.4861  0.3691
   17CHTO   H73 7040   3.065   7.013   1.708 -2.4861  1.2524  2.4515
   17CHTO   H74 7041   3.147   6.909   1.820  1.1693 -1.4630 -1.2310
   17CHTO   C40 7042   2.902   6.811   1.944 -0.0428  0.1717 -0.6351
   17CHTO   H82 7043   2.985   6.802   2.013 -0.4091 -0.1026 -0.2265
   17CHTO   O26 7044   2.780   6.836   2.018 -0.8255  0.0289 -0.3445
   17CHTO   C41 7045   2.801   6.951   2.115  0.4289  0.1627  0.2236
   17CHTO   H83 7046   2.892   6.931   2.174 -0.0559 -0.7040  0.6828
   17CHTO   C52 7047   2.675   6.960   2.202 -0.2930  0.3143  0.1753
   17CHTO   O35 7048   2.665   6.859   2.298 -0.0327 -0.0628  0.2551
   17CHTO   H71 7049   2.628   6.893   2.378  0.2268  2.0996 -0.5037
   17CHTO   O28 7050   2.873   6.691   1.868  0.2724 -0.1867 -0.1557
   17CHTO   C42 7051   2.919   6.557   1.900 -0.4533  0.5534 -0.0053
   17CHTO   H84 7052   2.851   6.488   1.849  0.7089 -2.3660  2.2439
   17CHTO   C44 7053   2.915   6.516   2.050  0.3205  0.6400 -0.6165
   17CHTO   H86 7054   2.978   6.582   2.110 -0.0896 -0.1178  0.6770
   17CHTO   O32 7055   2.778   6.543   2.101 -0.2840  0.3383  0.4580
   17CHTO   H69 7056   2.782   6.628   2.138  0.0054  0.4864  0.0938
   17CHTO   C48 7057   2.961   6.362   2.071  0.5191  0.0066 -0.3580
   17CHTO   H90 7058   2.888   6.294   2.029  0.7705 -1.1397  1.0234
   17CHTO    N9 7059   2.976   6.323   2.220  0.4658  0.2602  0.6648
   17CHTO   H77 7060   2.881   6.314   2.269  0.5536 -0.9885  0.6145
   17CHTO   H78 7061   3.033   6.403   2.267  2.6021 -1.5802  1.3005
   17CHTO   C51 7062   3.103   6.343   2.006 -0.2659  0.5271  0.5461
   17CHTO   H93 7063   3.185   6.392   2.058  1.7686 -1.4510 -0.6785
   17CHTO   O30 7064   3.091   6.385   1.871  0.2469  0.8875  0.4629
   17CHTO   C46 7065   3.054   6.527   1.840  0.5906  0.0769  0.4815
   17CHTO   H88 7066   3.123   6.595   1.890  0.6520 -1.5962  2.7820
   17CHTO   C53 7067   3.052   6.536   1.692  0.1520 -0.1846 -0.3318
   17CHTO   O72 7068   3.195   6.548   1.654  0.1700  0.2947 -0.0358
   17CHTO  H199 7069   3.200   6.584   1.567  0.9330 -3.1730 -1.5357
   17CHTO   O22 7070   3.146   6.205   2.002  0.0606 -0.2599  0.9924
   17CHTO   C31 7071   3.244   6.148   1.910 -0.5665 -0.1573  0.5049
   17CHTO   H59 7072   3.283   6.058   1.963  0.7303  0.1163  0.0260
   17CHTO   C29 7073   3.181   6.100   1.778 -0.2711  0.5604 -0.1317
   17CHTO   H57 7074   3.123   6.181   1.733  3.3497  3.4029  0.0693
   17CHTO   O21 7075   3.078   6.006   1.816 -0.2205 -0.5690  0.1505
   17CHTO   H37 7076   3.028   5.982   1.740 -0.6652  0.3079  0.1553
   17CHTO   C27 7077   3.286   6.047   1.679 -0.2857 -0.4876 -0.3176
   17CHTO   H55 7078   3.344   5.964   1.722  1.7196  1.0767  0.0691
   17CHTO    N5 7079   3.234   6.009   1.544  0.3400  0.6941 -0.3742
   17CHTO   H43 7080   3.257   5.910   1.507 -2.9388 -0.3622  0.1913
   17CHTO   H44 7081   3.128   6.026   1.532  0.2568  0.6392  0.2336
   17CHTO   C25 7082   3.379   6.174   1.661 -0.6137  0.5658  0.1071
   17CHTO   H53 7083   3.326   6.269   1.644 -1.5856  0.0708  0.3294
   17CHTO   O17 7084   3.447   6.191   1.782 -0.8805  0.2472 -0.3384
   17CHTO   C32 7085   3.366   6.243   1.889  0.0063  0.2177 -0.0935
   17CHTO   H60 7086   3.330   6.340   1.853 -0.2176  0.3772  0.5540
   17CHTO   C36 7087   3.434   6.260   2.027  0.1661  0.0383 -0.2808
   17CHTO   O25 7088   3.521   6.148   2.063  0.2642 -0.3610  0.1576
   17CHTO   H40 7089   3.570   6.169   2.140 -2.1176  3.4971  0.7814
   17CHTO   O15 7090   3.494   6.168   1.543  0.0480 -0.4676 -1.1730
   17CHTO   C19 7091   3.546   6.291   1.486  0.3298 -0.3377  0.9807
   17CHTO   H47 7092   3.620   6.254   1.414 -1.8346 -2.4152 -0.2654
   17CHTO   C20 7093   3.435   6.383   1.415  0.5016 -0.4355  0.3233
   17CHTO   H48 7094   3.351   6.404   1.483  0.7486 -1.4038  0.9528
   17CHTO   O19 7095   3.392   6.317   1.296 -0.2874  0.6123 -0.2614
   17CHTO   H35 7096   3.343   6.378   1.244 -1.6412 -0.2955 -0.1017
   17CHTO   C21 7097   3.482   6.529   1.370  0.2251 -1.0335 -0.1551
   17CHTO   H49 7098   3.536   6.523   1.276  1.3411  1.0325  0.3255
   17CHTO    N4 7099   3.372   6.621   1.350  0.1306  0.3755  0.1637
   17CHTO   H41 7100   3.394   6.690   1.270 -1.5040  0.1385 -0.5038
   17CHTO   H42 7101   3.281   6.570   1.326  1.1429 -1.0120 -0.8187
   17CHTO   C22 7102   3.576   6.584   1.480 -0.3745 -0.0487 -0.2122
   17CHTO   H50 7103   3.516   6.601   1.569 -0.3886  0.2578 -0.2829
   17CHTO   O14 7104   3.680   6.487   1.521 -0.6834  1.2193 -0.7423
   17CHTO   C23 7105   3.621   6.375   1.590  0.3182 -0.0132  0.6309
   17CHTO   H51 7106   3.554   6.408   1.670 -0.9425  0.2941 -0.5340
   17CHTO   C34 7107   3.737   6.316   1.664  0.1433 -0.6434 -0.5667
   17CHTO   O23 7108   3.766   6.405   1.778 -0.4227 -0.3139  0.0728
   17CHTO   H38 7109   3.797   6.352   1.849 -1.5912 -0.3842  0.5467
   17CHTO   O16 7110   3.643   6.707   1.442 -0.4801  0.3439 -0.0808
   17CHTO   C24 7111   3.692   6.780   1.559 -0.4231  0.3854 -0.3604
   17CHTO   H52 7112   3.714   6.713   1.641  4.2887  1.2193 -0.7862
   17CHTO   C26 7113   3.595   6.887   1.612  0.3267 -0.1983  0.1969
   17CHTO   H54 7114   3.548   6.934   1.523  0.3079  1.0412  0.8392
   17CHTO   O20 7115   3.489   6.827   1.691 -0.8998 -0.3535 -0.1642
   17CHTO   H36 7116   3.403   6.847   1.661 -0.3855  0.6751 -0.9883
   17CHTO   C30 7117   3.660   7.004   1.682 -0.6704  0.3199  0.3354
   17CHTO   H58 7118   3.690   6.979   1.784 -0.3873  1.3825  0.5199
   17CHTO    N6 7119   3.562   7.116   1.706 -0.9598  0.3432 -0.1877
   17CHTO   H45 7120   3.543   7.167   1.612  2.5771  0.7695 -0.7409
   17CHTO   H46 7121   3.469   7.074   1.740 -0.3251 -0.1220  0.9769
   17CHTO   C33 7122   3.776   7.055   1.601  0.1498  0.9096 -0.5016
   17CHTO   H61 7123   3.742   7.087   1.501 -0.3723  0.6537 -0.4053
   17CHTO   O18 7124   3.867   6.943   1.583 -0.1914  0.1353  0.1389
   17CHTO   C28 7125   3.830   6.838   1.499  0.3953  0.2280 -0.8008
   17CHTO   H56 7126   3.816   6.875   1.397  0.6684 -1.0590 -1.3207
   17CHTO   C35 7127   3.943   6.733   1.494 -0.2597 -0.2229  0.1626
   17CHTO   O24 7128   3.941   6.650   1.384  0.7977  0.8723  0.4958
   17CHTO   H39 7129   4.021   6.600   1.391 -0.4108 -1.1203  0.5120
   17CHTO    O9 7130   3.840   7.170   1.660 -0.4379  0.4381  0.0808
   17CHTO   C13 7131   3.965   7.234   1.557  0.5327  0.2868 -0.5578
   17CHTO   H26 7132   3.953   7.188   1.457  1.2263 -0.7290 -0.1768
   17CHTO   C11 7133   4.102   7.203   1.618  0.4244 -0.2862 -0.3079
   17CHTO   H24 7134   4.129   7.096   1.616 -0.8861 -0.6425  0.7113
   17CHTO    O8 7135   4.108   7.234   1.756  0.7189 -0.1885 -0.0758
   17CHTO    H3 7136   4.062   7.311   1.785  1.6304  0.2825  0.1483
   17CHTO    C9 7137   4.204   7.287   1.533 -0.6869 -0.4673  0.9354
   17CHTO   H22 7138   4.184   7.266   1.427  0.3107 -1.7556  0.9897
   17CHTO    N2 7139   4.346   7.251   1.547  0.7024 -0.2496 -0.3594
   17CHTO   H10 7140   4.365   7.257   1.653  1.8511  0.6976 -0.5979
   17CHTO   H11 7141   4.354   7.149   1.513  0.0965 -0.2143 -0.6166
   17CHTO    C7 7142   4.183   7.440   1.559 -0.2994 -0.0498  0.0844
   17CHTO   H20 7143   4.191   7.480   1.455  0.9229  1.6527  0.8065
   17CHTO    O4 7144   4.049   7.466   1.608 -0.1823  0.5082 -0.0495
   17CHTO   C14 7145   3.943   7.391   1.542  0.1087  0.0616  0.4235
   17CHTO   H27 7146   3.945   7.407   1.432  1.0719  1.1526  0.5996
   17CHTO   C18 7147   3.806   7.435   1.595 -0.0274 -0.3488 -0.2414
   17CHTO   O13 7148   3.762   7.558   1.537 -0.2020  0.3888 -0.3641
   17CHTO    H7 7149   3.677   7.544   1.500 -0.0091  1.0842 -1.0822
   17CHTO    O2 7150   4.304   7.532   1.677 -0.2362  0.0399  0.5138
   17CHTO    C1 7151   4.325   7.664   1.628  0.7034  0.6326  0.2234
   17CHTO   H14 7152   4.237   7.699   1.571 -0.3274  0.9318  1.9469
   17CHTO    C2 7153   4.451   7.680   1.531 -0.1574 -0.1933  0.7023
   17CHTO   H15 7154   4.537   7.625   1.573  0.9839 -2.6255 -4.4250
   17CHTO    O6 7155   4.414   7.635   1.401  0.3026  0.1131  0.0442
   17CHTO    H1 7156   4.492   7.638   1.349  0.1993 -2.0758 -0.2762
   17CHTO    C3 7157   4.486   7.828   1.511 -0.1142 -0.5447  0.6016
   17CHTO   H16 7158   4.407   7.857   1.441  0.6319 -2.2142 -0.9794
   17CHTO    N1 7159   4.626   7.842   1.442 -0.6679  0.1922  0.0918
   17CHTO    H8 7160   4.693   7.892   1.511 -0.5236  2.3682 -1.5631
   17CHTO    H9 7161   4.620   7.894   1.348  0.8807 -0.2122 -0.2505
   17CHTO    C4 7162   4.480   7.918   1.638  0.2295 -0.3604 -0.3154
   17CHTO   H17 7163   4.570   7.890   1.694  0.7517  1.4105 -0.2491
   17CHTO    O1 7164   4.373   7.885   1.718  0.1737 -0.0359  0.2223
   17CHTO    C5 7165   4.347   7.751   1.750  0.7454 -0.6537  0.2291
   17CHTO   H18 7166   4.434   7.713   1.803  0.3990  0.0735  1.3451
   17CHTO   C16 7167   4.222   7.751   1.840 -0.1590  0.0122  0.4944
   17CHTO   O11 7168   4.232   7.819   1.962 -1.1600 -0.3364  0.3807
   17CHTO    H5 7169   4.175   7.893   1.969 -1.7873 -0.6294 -1.4877
   17CHTO    O3 7170   4.478   8.062   1.617  0.1017 -0.2666 -0.1894
   17CHTO    C6 7171   4.521   8.161   1.715 -0.5572  0.0527  0.1521
   17CHTO   H19 7172   4.525   8.261   1.672  0.6017  0.8248  1.9755
   17CHTO    C8 7173   4.416   8.171   1.835  0.6137 -0.4745 -0.0171
   17CHTO   H21 7174   4.399   8.072   1.879 -1.1524 -0.5963 -0.9301
   17CHTO    O7 7175   4.291   8.219   1.785 -0.2325 -0.0740 -0.1197
   17CHTO    H2 7176   4.297   8.307   1.752 -3.7374  1.6877  3.4998
   17CHTO   C12 7177   4.476   8.257   1.949 -0.2037 -0.5713 -0.6627
   17CHTO   H25 7178   4.478   8.355   1.896  0.6390  2.3121  4.3846
   17CHTO    N3 7179   4.388   8.274   2.072  0.5719 -0.3237 -0.7294
   17CHTO   H12 7180   4.345   8.180   2.103  0.9324 -0.1813  0.2108
   17CHTO   H13 7181   4.321   8.359   2.071 -0.0469 -0.8028 -0.7216
   17CHTO   C15 7182   4.624   8.223   1.986  0.1550  0.1177 -0.9828
   17CHTO   H28 7183   4.631   8.125   2.032 -0.8285 -0.0421 -1.1801
   17CHTO   O10 7184   4.705   8.309   2.083  0.4711  0.9998 -0.4931
   17CHTO    H4 7185   4.659   8.388   2.103 -1.8748 -0.3301 -0.4493
   17CHTO    O5 7186   4.700   8.238   1.870 -0.2384 -0.2586 -0.2134
   17CHTO   C10 7187   4.670   8.142   1.769 -0.1176  0.8737  0.1979
   17CHTO   H23 7188   4.676   8.040   1.808 -1.3401  1.1788  1.2030
   17CHTO   C17 7189   4.771   8.159   1.656 -0.4040 -0.7935 -1.1677
   17CHTO   O12 7190   4.901   8.116   1.699  0.0168  0.9511 -0.1585
   17CHTO    H6 7191   4.936   8.169   1.768  0.3302 -2.1307  2.1473
   18CHTO  H203 7192   5.919   8.051   2.412 -3.4060 -1.1312 -0.5458
   18CHTO   O82 7193   5.949   7.963   2.424  0.3023  0.0254 -0.6243
   18CHTO  C123 7194   5.946   7.904   2.293 -0.0434 -0.5556  0.9038
   18CHTO  H227 7195   5.862   7.947   2.236  0.0110 -2.0776 -0.3789
   18CHTO   O77 7196   6.062   7.946   2.215  0.3555 -0.4396  0.5231
   18CHTO  C118 7197   6.039   7.921   2.074  0.1307  0.1293  0.5328
   18CHTO  H222 7198   5.944   7.954   2.029  0.1541 -1.6029 -0.8258
   18CHTO  C125 7199   6.160   7.997   2.004 -0.9120 -0.3644  0.6548
   18CHTO   O84 7200   6.287   7.968   2.070  0.1170 -0.1100 -0.1051
   18CHTO  H205 7201   6.324   7.890   2.034 -0.8280 -0.9942  0.8248
   18CHTO  C114 7202   6.048   7.773   2.044  0.1083 -0.4041  0.0511
   18CHTO  H218 7203   6.146   7.740   2.080  0.6191  0.3665 -0.6040
   18CHTO  C116 7204   5.944   7.706   2.137 -0.0150  0.8291 -0.1428
   18CHTO  H220 7205   5.840   7.722   2.102  0.5280 -0.1266 -2.2998
   18CHTO   O79 7206   5.959   7.562   2.109  0.3035 -0.1585  0.3753
   18CHTO  H201 7207   5.915   7.537   2.030  2.7965 -0.3784 -0.9791
   18CHTO  C120 7208   5.944   7.749   2.287  0.4601 -0.0017 -0.3496
   18CHTO  H224 7209   6.036   7.715   2.339 -0.2364  0.3887  1.1752
   18CHTO   N21 7210   5.831   7.684   2.362  0.0943 -0.6858  0.5183
   18CHTO  H211 7211   5.816   7.729   2.460 -0.7051 -1.5872  0.8058
   18CHTO  H212 7212   5.851   7.578   2.364  0.9765 -0.5299  0.3397
   18CHTO   O75 7213   6.022   7.751   1.904 -0.5395 -0.1931  0.4224
   18CHTO  C112 7214   6.160   7.677   1.841 -0.2278 -0.3327  0.4674
   18CHTO  H216 7215   6.204   7.601   1.908 -0.1638  0.8306  1.7661
   18CHTO   O73 7216   6.253   7.775   1.810 -0.9111 -0.9046  0.2060
   18CHTO  C113 7217   6.378   7.732   1.745 -0.0083 -0.4804  0.0887
   18CHTO  H217 7218   6.418   7.656   1.815  1.1004  0.7245  0.8057
   18CHTO  C124 7219   6.479   7.851   1.734 -0.1036 -0.1120  0.3431
   18CHTO   O83 7220   6.498   7.906   1.860  0.7059 -0.0174  0.0026
   18CHTO  H204 7221   6.580   7.952   1.860  1.3736 -1.1750  0.8352
   18CHTO  C109 7222   6.341   7.666   1.609  0.2853  0.3872  0.2849
   18CHTO  H213 7223   6.297   7.745   1.547 -0.4405 -1.3715 -1.4700
   18CHTO  C110 7224   6.239   7.546   1.626  0.1664 -0.5062 -0.4913
   18CHTO  H214 7225   6.287   7.466   1.682  1.4004  0.8757  0.4862
   18CHTO   O78 7226   6.206   7.491   1.503  0.1255  0.4208  0.0642
   18CHTO  H200 7227   6.169   7.405   1.506 -0.6237  0.7418  0.1594
   18CHTO  C111 7228   6.116   7.603   1.705 -0.4205 -0.8080  0.5969
   18CHTO  H215 7229   6.066   7.677   1.641  0.0018 -2.2919 -1.5007
   18CHTO   N19 7230   6.012   7.496   1.737 -0.0053  0.0478 -0.5831
   18CHTO  H207 7231   5.922   7.541   1.697  0.6777  1.5181 -0.4911
   18CHTO  H208 7232   6.001   7.479   1.843 -3.9974 -0.9970 -1.0852
   18CHTO   O74 7233   6.464   7.627   1.544 -0.7119  0.1137 -0.1939
   18CHTO  C115 7234   6.479   7.708   1.392  0.6539  0.6436  0.4345
   18CHTO  H219 7235   6.384   7.747   1.357  1.8910  0.3920 -3.5406
   18CHTO   O76 7236   6.567   7.821   1.403 -0.0418  0.3780  0.3389
   18CHTO  C122 7237   6.592   7.889   1.278 -0.1414  0.5792 -0.0478
   18CHTO  H226 7238   6.675   7.954   1.307 -1.9922  2.9867 -0.0640
   18CHTO  C126 7239   6.477   7.985   1.232  0.0606  0.3252 -0.4726
   18CHTO   O85 7240   6.453   8.094   1.321 -0.6564 -0.2328  0.0366
   18CHTO  H206 7241   6.472   8.180   1.288 -0.3451 -0.4889 -0.4670
   18CHTO  C121 7242   6.640   7.795   1.158  0.2210 -0.0788  0.6892
   18CHTO  H225 7243   6.623   7.849   1.062 -2.6410 -1.0574  0.5893
   18CHTO   O81 7244   6.785   7.778   1.164  0.5070  0.3337 -0.2510
   18CHTO  H202 7245   6.830   7.844   1.116 -0.6631 -0.1518 -2.0790
   18CHTO  C119 7246   6.553   7.669   1.148  0.0093  0.0119 -0.0549
   18CHTO  H223 7247   6.452   7.702   1.121  0.1296  0.4081 -0.0117
   18CHTO  C117 7248   6.534   7.604   1.283  0.3529 -0.0416  0.0723
   18CHTO  H221 7249   6.623   7.561   1.330  0.3636  0.4656  0.5295
   18CHTO   N20 7250   6.442   7.490   1.270  0.1965 -0.0125 -0.0161
   18CHTO  H209 7251   6.488   7.425   1.196  0.2736  1.8373 -1.6284
   18CHTO  H210 7252   6.347   7.525   1.234  0.3990 -0.7633 -1.3003
   18CHTO   O80 7253   6.589   7.579   1.025  0.3484  0.0851  0.4339
   18CHTO  C103 7254   6.481   7.557   0.905  0.8958 -0.2822 -0.1218
   18CHTO  H190 7255   6.533   7.509   0.823  1.2898 -1.4839  0.8063
   18CHTO  C101 7256   6.350   7.475   0.947 -0.1163 -0.2494 -0.5562
   18CHTO  H188 7257   6.309   7.510   1.042  1.4513  1.0979 -0.3526
   18CHTO   O68 7258   6.409   7.319   0.986 -0.1357 -0.5738 -0.3445
   18CHTO  H168 7259   6.477   7.323   1.051  0.4417  2.3871 -1.0734
   18CHTO   C99 7260   6.230   7.481   0.832 -0.5967  0.9468 -0.1478
   18CHTO  H186 7261   6.266   7.431   0.739 -1.6099  3.3656 -1.9011
   18CHTO   N17 7262   6.117   7.393   0.870  0.3480 -0.3414 -0.2132
   18CHTO  H174 7263   6.146   7.348   0.964  1.6236  0.6089 -0.1502
   18CHTO  H175 7264   6.032   7.460   0.876  0.5828 -0.0993  0.5020
   18CHTO   C97 7265   6.208   7.627   0.791  0.9679 -0.6170  0.3966
   18CHTO  H184 7266   6.161   7.678   0.876 -0.6357 -1.6407  0.1576
   18CHTO   O64 7267   6.335   7.687   0.753 -0.9124 -0.5285  0.6732
   18CHTO  C104 7268   6.432   7.702   0.859  0.4930 -0.1548 -0.0816
   18CHTO  H191 7269   6.387   7.754   0.943  0.0464 -1.7822  0.7220
   18CHTO  C108 7270   6.550   7.780   0.809  0.0061 -0.6997  0.5313
   18CHTO   O71 7271   6.526   7.920   0.775 -0.4425 -0.0773 -0.0810
   18CHTO  H171 7272   6.477   7.967   0.839  1.8236  1.6378  0.4147
   18CHTO   O62 7273   6.122   7.638   0.680 -0.7282  0.1821  0.0827
   18CHTO   C91 7274   6.024   7.741   0.691 -0.0488  0.5446 -0.1419
   18CHTO  H178 7275   5.998   7.763   0.795  1.8775 -0.3334  0.5572
   18CHTO   C92 7276   5.897   7.675   0.632 -0.7972  0.0871 -0.0975
   18CHTO  H179 7277   5.924   7.627   0.537  0.7198 -1.0091  0.8601
   18CHTO   O66 7278   5.865   7.562   0.710 -0.3235  0.2163 -0.0795
   18CHTO  H166 7279   5.844   7.593   0.796 -1.1373  1.7730 -0.8288
   18CHTO   C93 7280   5.777   7.772   0.623 -0.7966 -0.1138 -1.0847
   18CHTO  H180 7281   5.744   7.781   0.727 -1.0562  0.4970 -1.2199
   18CHTO   N16 7282   5.653   7.721   0.558 -0.1527 -0.3083  0.0124
   18CHTO  H172 7283   5.680   7.634   0.500  3.0322  1.1050 -0.7241
   18CHTO  H173 7284   5.583   7.686   0.633  1.0659  1.8109  2.1902
   18CHTO   C94 7285   5.810   7.907   0.565  0.5053  0.6916 -0.1780
   18CHTO  H181 7286   5.829   7.901   0.458  1.8339  0.2676  0.0670
   18CHTO   O61 7287   5.936   7.958   0.616  0.3627 -0.2468  0.3598
   18CHTO   C95 7288   6.052   7.874   0.607 -0.1935  0.0584 -0.2644
   18CHTO  H182 7289   6.072   7.849   0.503  0.6125 -0.3651 -0.0126
   18CHTO  C106 7290   6.176   7.951   0.666 -0.2633 -0.0238 -0.1336
   18CHTO   O69 7291   6.223   8.059   0.587  0.4613 -0.2245  0.1352
   18CHTO  H169 7292   6.280   8.111   0.640  0.7027 -1.7991  1.4531
   18CHTO   O63 7293   5.697   8.011   0.612 -0.4808  0.3609 -0.1142
   18CHTO   C96 7294   5.692   8.137   0.506  0.7237 -0.4409 -0.3864
   18CHTO  H183 7295   5.691   8.109   0.401 -0.6972  2.5401 -1.2297
   18CHTO   C98 7296   5.794   8.255   0.523  0.0338  0.0017  0.7533
   18CHTO  H185 7297   5.787   8.295   0.626  2.3958 -0.6454  1.2043
   18CHTO   O67 7298   5.930   8.201   0.508  0.1973  0.0610  0.2909
   18CHTO  H167 7299   5.993   8.260   0.545  1.1300  0.3460 -1.6939
   18CHTO  C102 7300   5.767   8.373   0.418  0.6686 -0.3052 -0.4431
   18CHTO  H189 7301   5.785   8.329   0.319  1.5647  1.8156 -1.2588
   18CHTO   N18 7302   5.857   8.492   0.428  0.0560 -0.0565  0.1649
   18CHTO  H176 7303   5.951   8.479   0.376 -0.6967 -0.4871 -1.1262
   18CHTO  H177 7304   5.817   8.574   0.370  1.9811 -0.6127 -2.0570
   18CHTO  C105 7305   5.617   8.412   0.435 -0.0517 -0.0787 -0.3395
   18CHTO  H192 7306   5.606   8.453   0.536  0.5380 -0.3199 -0.1695
   18CHTO   O65 7307   5.529   8.301   0.422 -0.7489  0.3187 -0.1245
   18CHTO  C100 7308   5.547   8.194   0.518  0.4346 -0.3021 -0.0572
   18CHTO  H187 7309   5.525   8.240   0.616 -1.5054  1.5671 -1.3322
   18CHTO  C107 7310   5.445   8.090   0.474 -0.3558 -0.4892  0.7855
   18CHTO   O70 7311   5.405   8.018   0.589  0.5038  0.1452 -1.1363
   18CHTO  H170 7312   5.316   8.034   0.611  1.0737  0.1468  1.2562
   18CHTO   O57 7313   5.579   8.520   0.307  0.0993 -0.0429  0.1522
   18CHTO   C85 7314   5.446   8.577   0.280 -0.4674 -0.5978 -0.9884
   18CHTO  H157 7315   5.459   8.641   0.190 -0.9888 -0.4348 -0.9469
   18CHTO   C83 7316   5.404   8.680   0.395  0.2032 -0.5835  0.0981
   18CHTO  H155 7317   5.482   8.756   0.402 -1.9876  1.8393 -0.7713
   18CHTO   O56 7318   5.397   8.625   0.525  0.2839  0.0972 -0.2191
   18CHTO  H135 7319   5.448   8.549   0.545 -1.1929 -0.4166  1.7680
   18CHTO   C81 7320   5.269   8.746   0.359  0.5732 -0.2287  0.0593
   18CHTO  H153 7321   5.286   8.802   0.266  2.6990  1.1089  1.2176
   18CHTO   N14 7322   5.233   8.861   0.451  0.3311 -0.4491  0.4120
   18CHTO  H141 7323   5.197   8.949   0.403  1.1514  0.2286  1.0159
   18CHTO  H142 7324   5.314   8.879   0.519  0.2440  0.0728  0.3720
   18CHTO   C79 7325   5.153   8.636   0.338  0.2518  0.7915 -0.5781
   18CHTO  H151 7326   5.067   8.688   0.296 -2.6815 -2.1500  1.5051
   18CHTO   O52 7327   5.198   8.541   0.242  0.0120 -0.3708  0.2734
   18CHTO   C86 7328   5.330   8.472   0.263  0.2484  0.0330  0.1802
   18CHTO  H158 7329   5.300   8.416   0.354 -0.6132 -0.2408 -0.2630
   18CHTO   C90 7330   5.369   8.369   0.149  0.7082 -0.2819  0.4371
   18CHTO   O60 7331   5.269   8.279   0.108  0.4658  0.3335 -0.7170
   18CHTO  H138 7332   5.214   8.317   0.043 -0.5358  0.3768  0.1493
   18CHTO   O50 7333   5.101   8.578   0.457  0.1824  0.2638  0.3831
   18CHTO   C73 7334   4.996   8.489   0.475  0.2246 -0.2659 -0.5463
   18CHTO  H145 7335   4.987   8.408   0.401 -0.1716  0.0022 -0.7886
   18CHTO   C74 7336   4.851   8.555   0.485 -0.4215 -0.5813 -0.5195
   18CHTO  H146 7337   4.821   8.604   0.391 -0.0690  0.3677 -0.1421
   18CHTO   O54 7338   4.753   8.451   0.502  0.1796 -0.3003 -0.5510
   18CHTO  H133 7339   4.668   8.490   0.506 -0.9238 -2.4505 -1.7875
   18CHTO   C75 7340   4.848   8.655   0.607  0.3977  0.5301 -0.8280
   18CHTO  H147 7341   4.927   8.730   0.589 -0.2378  1.7345  1.2114
   18CHTO   N13 7342   4.720   8.722   0.637  0.0928 -0.0950 -0.3163
   18CHTO  H139 7343   4.682   8.699   0.736 -2.8083 -0.9174 -1.5626
   18CHTO  H140 7344   4.731   8.829   0.638 -0.4130 -0.0198 -1.9165
   18CHTO   C76 7345   4.903   8.581   0.741  0.1990  0.6144 -0.4349
   18CHTO  H148 7346   4.830   8.504   0.770  0.8123  0.0561 -0.3627
   18CHTO   O49 7347   5.031   8.510   0.712 -0.1320  0.3783  0.3467
   18CHTO   C77 7348   5.022   8.412   0.607 -0.9246  0.5622 -0.6660
   18CHTO  H149 7349   4.933   8.359   0.639 -2.7645  3.7957 -0.2896
   18CHTO   C88 7350   5.131   8.304   0.598 -0.0782  0.2192  0.0976
   18CHTO   O58 7351   5.281   8.368   0.585 -0.2839 -0.2532  0.4141
   18CHTO  H136 7352   5.311   8.408   0.665  0.7493 -2.2916  1.0847
   18CHTO   O51 7353   4.942   8.674   0.834 -0.0334 -0.3086  0.1257
   18CHTO   C78 7354   4.963   8.627   0.967  1.1135 -0.1488 -0.3328
   18CHTO  H150 7355   4.971   8.516   0.965 -0.5372 -0.2966  0.3723
   18CHTO   C80 7356   4.845   8.672   1.058  0.4114  0.3224 -0.9533
   18CHTO  H152 7357   4.823   8.778   1.032 -0.5810 -0.2274 -2.4232
   18CHTO   O55 7358   4.735   8.595   1.014  0.4927  0.8844 -0.0891
   18CHTO  H134 7359   4.735   8.510   1.055  0.3030  0.7970 -0.2699
   18CHTO   C84 7360   4.870   8.653   1.212 -0.1454 -0.0459  0.3160
   18CHTO  H156 7361   4.885   8.546   1.228  0.1615 -0.0373  0.0959
   18CHTO   N15 7362   4.760   8.692   1.301 -0.2553 -0.0989 -0.0244
   18CHTO  H143 7363   4.744   8.795   1.278 -0.6532 -0.2748 -0.5313
   18CHTO  H144 7364   4.787   8.686   1.404 -0.7669 -0.6801  0.0762
   18CHTO   C87 7365   5.001   8.731   1.251 -0.8873 -0.2584  0.0791
   18CHTO  H159 7366   4.991   8.839   1.239  2.7201  0.3684  2.0276
   18CHTO   O53 7367   5.121   8.670   1.156  0.2295 -0.2159 -0.5907
   18CHTO   C82 7368   5.097   8.694   1.017  0.1758  0.0866 -0.8141
   18CHTO  H154 7369   5.091   8.801   0.999  0.8544  0.1196 -0.8272
   18CHTO   C89 7370   5.221   8.639   0.945  0.3984  0.5150  0.6433
   18CHTO   O59 7371   5.228   8.688   0.810 -0.4569 -0.2688  0.0622
   18CHTO  H137 7372   5.298   8.646   0.763  1.9467 -0.0075  3.1845
   18CHTO   O45 7373   5.031   8.695   1.433  0.0550  0.1557  0.2022
   18CHTO   C67 7374   5.160   8.640   1.468  0.1693 -0.5352  0.3094
   18CHTO  H124 7375   5.179   8.564   1.393  0.0840  1.5934 -1.9137
   18CHTO   C65 7376   5.269   8.750   1.462  0.4595 -0.0278  0.1176
   18CHTO  H122 7377   5.231   8.843   1.505 -0.0764  0.4462 -1.3451
   18CHTO   O44 7378   5.301   8.763   1.318  0.1034  0.2393 -0.2791
   18CHTO  H102 7379   5.365   8.830   1.301 -0.4639  0.9271  0.2663
   18CHTO   C63 7380   5.389   8.711   1.565  0.1450  0.3595  0.3075
   18CHTO  H120 7381   5.365   8.756   1.662 -0.2106  2.7884 -0.8687
   18CHTO   N11 7382   5.515   8.785   1.546 -0.2141 -0.2863  0.1599
   18CHTO  H108 7383   5.507   8.889   1.573 -2.5837  0.0449 -1.6423
   18CHTO  H109 7384   5.543   8.777   1.443  1.8852 -2.0437  0.8418
   18CHTO   C61 7385   5.407   8.551   1.579 -0.3864 -0.3423 -0.2320
   18CHTO  H118 7386   5.480   8.538   1.661 -0.7029 -1.4376 -0.1173
   18CHTO   O40 7387   5.292   8.494   1.625  0.1187 -0.2703 -0.0835
   18CHTO   C68 7388   5.164   8.560   1.605 -0.7381  0.0861  0.2505
   18CHTO  H125 7389   5.149   8.627   1.692  1.4880  0.7563  0.1591
   18CHTO   C72 7390   5.056   8.450   1.613  0.3118  0.2850  0.0442
   18CHTO   O48 7391   4.995   8.450   1.746 -0.6936 -0.1162  1.0133
   18CHTO  H105 7392   5.023   8.376   1.796  4.2315  0.5659 -0.4480
   18CHTO   O38 7393   5.443   8.491   1.453 -0.2167 -0.4132 -0.4692
   18CHTO   C55 7394   5.552   8.397   1.451  0.3850 -0.4775  0.2889
   18CHTO  H112 7395   5.570   8.372   1.557  2.2965 -0.2465  0.0333
   18CHTO   C56 7396   5.687   8.455   1.380 -0.7016 -1.0130 -0.0450
   18CHTO  H113 7397   5.654   8.478   1.277  1.2554 -1.6890 -0.8470
   18CHTO   O42 7398   5.738   8.570   1.447  0.3478  0.2075 -0.1395
   18CHTO  H100 7399   5.679   8.641   1.430 -0.2333  0.0055  0.9848
   18CHTO   C57 7400   5.795   8.337   1.378 -0.1797 -0.3343 -0.6611
   18CHTO  H114 7401   5.818   8.327   1.484  2.2415 -1.2291 -1.2302
   18CHTO   N10 7402   5.916   8.372   1.303  0.1615 -0.2264 -0.1327
   18CHTO  H106 7403   5.903   8.362   1.196  0.3189 -1.5822 -0.0365
   18CHTO  H107 7404   6.000   8.311   1.331 -1.2154 -2.1343 -0.0338
   18CHTO   C58 7405   5.750   8.202   1.325  0.5629 -0.3530  0.4036
   18CHTO  H115 7406   5.733   8.205   1.216 -1.8753 -0.1375  0.7723
   18CHTO   O37 7407   5.616   8.179   1.375 -0.5859 -0.0625 -0.1318
   18CHTO   C59 7408   5.507   8.268   1.375  0.3905  0.0588 -1.1344
   18CHTO  H116 7409   5.482   8.293   1.272 -0.3969 -0.7374 -1.1377
   18CHTO   C70 7410   5.386   8.201   1.429  0.0594 -1.5909 -0.2062
   18CHTO   O46 7411   5.404   8.164   1.568  0.2406  0.1343  0.5345
   18CHTO  H103 7412   5.432   8.075   1.570 -0.5998 -0.1187  1.4143
   18CHTO   O39 7413   5.842   8.062   1.374 -0.7334 -0.2438 -0.3106
   18CHTO   C60 7414   5.797   8.010   1.498 -0.0209 -0.0788 -0.4377
   18CHTO  H117 7415   5.737   8.084   1.550  1.9607  1.4458 -0.2783
   18CHTO   C62 7416   5.703   7.884   1.491  0.0182  0.6861 -0.0383
   18CHTO  H119 7417   5.628   7.910   1.413 -1.7430  0.5020  1.5741
   18CHTO   O43 7418   5.779   7.780   1.431  0.2349 -0.0221 -0.1438
   18CHTO  H101 7419   5.810   7.818   1.351  3.2931  1.8791  1.8451
   18CHTO   C66 7420   5.644   7.854   1.634 -0.1028 -0.1053 -0.6878
   18CHTO  H123 7421   5.591   7.942   1.670 -0.2826 -0.5793  0.1988
   18CHTO   N12 7422   5.540   7.740   1.631  0.4391  0.0692 -0.3768
   18CHTO  H110 7423   5.450   7.772   1.582 -1.2626 -1.9521  1.3373
   18CHTO  H111 7424   5.563   7.643   1.589 -4.0353  0.3389 -3.7421
   18CHTO   C69 7425   5.753   7.842   1.743 -0.2607 -0.1520 -0.1788
   18CHTO  H126 7426   5.793   7.739   1.744  0.6608  0.2002  0.6976
   18CHTO   O41 7427   5.882   7.939   1.718 -0.2356 -1.1638  0.3970
   18CHTO   C64 7428   5.909   7.978   1.592  0.2545 -0.0880 -0.0795
   18CHTO  H121 7429   5.968   7.897   1.545  1.6579  0.7067  0.2741
   18CHTO   C71 7430   6.008   8.102   1.605  0.3891  0.1150 -0.0473
   18CHTO   O47 7431   6.126   8.081   1.682 -0.2118  0.0469 -0.7299
   18CHTO  H104 7432   6.185   8.153   1.673  0.4806  0.1817  3.7553
   18CHTO   O34 7433   5.676   7.867   1.903  0.2991 -0.0453 -0.4618
   18CHTO   C49 7434   5.618   7.941   2.020 -0.2600  0.1626 -0.1691
   18CHTO   H91 7435   5.647   7.894   2.114  1.2420  1.4912  0.0602
   18CHTO   C47 7436   5.464   7.931   2.007  0.8563 -0.6324 -0.2879
   18CHTO   H89 7437   5.419   7.972   2.100  0.4140  0.9736 -1.1825
   18CHTO   O33 7438   5.428   7.795   1.994  0.2054 -0.3247 -0.3709
   18CHTO   H70 7439   5.389   7.762   2.072  1.7046 -0.4393  0.3526
   18CHTO   C45 7440   5.410   8.021   1.886  0.0499 -0.2205  0.6805
   18CHTO   H87 7441   5.463   7.986   1.796 -0.4853 -0.7404  0.5670
   18CHTO    N8 7442   5.269   8.018   1.856 -1.2105 -1.1172  0.6436
   18CHTO   H75 7443   5.209   7.951   1.915 -1.3040 -1.0570  0.6185
   18CHTO   H76 7444   5.255   7.996   1.751 -0.1449  2.6738 -0.3729
   18CHTO   C43 7445   5.451   8.172   1.914  0.3811 -0.7411  0.3041
   18CHTO   H85 7446   5.421   8.238   1.832  0.7643  2.3158  2.5377
   18CHTO   O29 7447   5.596   8.180   1.940 -0.2904  0.1496  0.0709
   18CHTO   C50 7448   5.658   8.091   2.030 -0.1345  0.1289  0.2956
   18CHTO   H92 7449   5.763   8.091   1.999 -0.3095 -0.2297 -0.3027
   18CHTO   C54 7450   5.659   8.144   2.179 -0.1740 -0.2070 -0.1632
   18CHTO   O36 7451   5.741   8.258   2.202 -0.2629 -1.1070  0.3393
   18CHTO   H72 7452   5.720   8.303   2.281 -1.6755 -2.1308  0.5817
   18CHTO   O27 7453   5.388   8.228   2.031  0.1970  0.2712  0.2208
   18CHTO   C37 7454   5.334   8.359   2.066 -0.4774  0.3894  0.3063
   18CHTO   H79 7455   5.337   8.364   2.175 -2.9156  1.7268  0.3391
   18CHTO   C38 7456   5.406   8.467   1.989  0.9025  0.1677  0.3452
   18CHTO   H80 7457   5.393   8.453   1.881  0.4697  0.2949  0.3826
   18CHTO   O31 7458   5.543   8.467   2.024  0.2675 -0.0697  0.2854
   18CHTO   H68 7459   5.592   8.398   1.984  1.3241  0.2132  1.0813
   18CHTO   C39 7460   5.346   8.613   2.023  1.0356  0.0191 -0.5297
   18CHTO   H81 7461   5.360   8.630   2.129 -2.8061 -1.2333  0.2552
   18CHTO    N7 7462   5.417   8.734   1.956  0.2562 -0.2151 -0.4050
   18CHTO   H73 7463   5.409   8.729   1.848  0.6710  2.8393 -0.6353
   18CHTO   H74 7464   5.380   8.825   2.000  3.1019  0.7125  0.2127
   18CHTO   C40 7465   5.196   8.610   2.005  0.3812 -0.4142  0.4650
   18CHTO   H82 7466   5.184   8.622   1.897  0.9257  0.9636  0.5486
   18CHTO   O26 7467   5.134   8.494   2.064  0.6426 -0.3359 -0.4662
   18CHTO   C41 7468   5.187   8.366   2.020 -0.8293 -0.1152  0.1299
   18CHTO   H83 7469   5.184   8.378   1.911 -0.3803  0.4331  0.1772
   18CHTO   C52 7470   5.094   8.252   2.073  0.8948  0.5557 -0.1048
   18CHTO   O35 7471   4.968   8.267   2.031 -0.4950 -0.3819  0.0857
   18CHTO   H71 7472   4.958   8.263   1.938 -1.9698  2.3893  0.0829
   18CHTO   O28 7473   5.129   8.716   2.072  0.3772 -0.2417  0.6905
   18CHTO   C42 7474   4.985   8.746   2.064 -0.4178 -0.0849 -0.3831
   18CHTO   H84 7475   4.978   8.837   2.123 -2.0201 -0.2984 -0.1959
   18CHTO   C44 7476   4.884   8.656   2.127  0.0136  0.1579 -0.3539
   18CHTO   H86 7477   4.885   8.560   2.075 -3.2561 -1.6776  2.7678
   18CHTO   O32 7478   4.924   8.611   2.259 -0.7378  0.1957  0.5768
   18CHTO   H69 7479   4.996   8.551   2.253 -2.1333 -1.5472  0.9776
   18CHTO   C48 7480   4.735   8.714   2.127 -0.7127  0.2272  0.6579
   18CHTO   H90 7481   4.735   8.797   2.197  0.6274 -0.2265  1.2167
   18CHTO    N9 7482   4.629   8.621   2.186 -0.2592 -0.1430  0.1385
   18CHTO   H77 7483   4.622   8.540   2.115  0.8179  0.5031 -0.7262
   18CHTO   H78 7484   4.538   8.677   2.202 -0.1921  0.1726 -0.5533
   18CHTO   C51 7485   4.701   8.758   1.984  0.4151  0.3820  0.3810
   18CHTO   H93 7486   4.683   8.672   1.920 -0.0530  1.4877 -0.9949
   18CHTO   O30 7487   4.807   8.842   1.931 -0.8963  0.3346 -0.5242
   18CHTO   C46 7488   4.933   8.776   1.923 -0.2475  0.0969 -0.3906
   18CHTO   H88 7489   4.917   8.683   1.869 -0.4086 -1.1629  1.7672
   18CHTO   C53 7490   5.030   8.874   1.843 -0.0892  0.1042 -0.0950
   18CHTO   O72 7491   4.972   8.931   1.723  0.1413 -0.5288  0.1461
   18CHTO  H199 7492   4.932   9.012   1.748  0.5592 -0.0689 -0.6423
   18CHTO   O22 7493   4.576   8.828   1.979  0.5857 -0.1105 -0.1284
   18CHTO   C31 7494   4.500   8.857   1.854  0.0783  0.0073 -0.1050
   18CHTO   H59 7495   4.418   8.926   1.884 -0.3544 -1.0487  1.2138
   18CHTO   C29 7496   4.577   8.939   1.750 -0.8176 -0.1120 -0.5302
   18CHTO   H57 7497   4.665   8.876   1.727  0.3504  0.6464  1.6356
   18CHTO   O21 7498   4.639   9.057   1.808  0.7873  0.3814  0.0429
   18CHTO   H37 7499   4.697   9.095   1.745  1.6428  0.7272  1.0220
   18CHTO   C27 7500   4.494   8.968   1.622 -0.0232 -0.7773  0.3073
   18CHTO   H55 7501   4.406   9.034   1.634  0.1559 -0.5917  0.6256
   18CHTO    N5 7502   4.576   9.023   1.513  0.7316  0.8372  0.1325
   18CHTO   H43 7503   4.679   9.015   1.544  0.9685 -0.1175 -0.8700
   18CHTO   H44 7504   4.546   9.125   1.496 -1.2131  0.0951 -1.0464
   18CHTO   C25 7505   4.437   8.831   1.568  0.6745 -0.0498  0.3299
   18CHTO   H53 7506   4.517   8.768   1.527 -0.3831 -0.6278 -0.9082
   18CHTO   O17 7507   4.361   8.751   1.669 -0.3348 -0.2890  0.0203
   18CHTO   C32 7508   4.430   8.725   1.792 -0.0672  0.4877  1.0616
   18CHTO   H60 7509   4.509   8.652   1.772 -2.1144 -1.8208  1.2689
   18CHTO   C36 7510   4.336   8.666   1.897  0.2460  0.4994  0.1804
   18CHTO   O25 7511   4.301   8.526   1.869  0.0700 -0.5656  1.3699
   18CHTO   H40 7512   4.366   8.480   1.819  1.0179  0.7708  1.3524
   18CHTO   O15 7513   4.336   8.857   1.455  0.0274 -0.2146 -0.8186
   18CHTO   C19 7514   4.290   8.785   1.333 -0.2014 -0.0299 -0.1109
   18CHTO   H47 7515   4.184   8.814   1.329  0.0292  0.8583  0.1079
   18CHTO   C20 7516   4.364   8.838   1.208  0.1007 -0.4255 -0.1631
   18CHTO   H48 7517   4.468   8.865   1.234  0.4094 -2.6634  1.0484
   18CHTO   O19 7518   4.308   8.965   1.171  0.4221 -1.1574  0.5521
   18CHTO   H35 7519   4.348   8.999   1.094  0.4969 -0.0553  1.0685
   18CHTO   C21 7520   4.360   8.737   1.089  0.4220  0.1302  0.0604
   18CHTO   H49 7521   4.259   8.740   1.048  0.6177 -2.0013 -0.6229
   18CHTO    N4 7522   4.450   8.766   0.977 -0.0006 -0.1944  0.0216
   18CHTO   H41 7523   4.380   8.771   0.895 -2.3996 -2.4276  1.8024
   18CHTO   H42 7524   4.516   8.682   0.962  1.8961  1.4006 -0.7706
   18CHTO   C22 7525   4.374   8.590   1.134 -0.4933  0.1246 -0.3573
   18CHTO   H50 7526   4.474   8.589   1.177 -1.3366 -0.8271  1.6095
   18CHTO   O14 7527   4.273   8.558   1.229  0.4260  0.0081  0.6983
   18CHTO   C23 7528   4.291   8.629   1.350 -0.3739 -0.4069  0.3593
   18CHTO   H51 7529   4.386   8.588   1.388  0.2138 -2.5352 -3.1242
   18CHTO   C34 7530   4.202   8.587   1.464 -0.2479  0.0986 -0.3829
   18CHTO   O23 7531   4.185   8.452   1.489 -0.0818 -0.4729 -0.1915
   18CHTO   H38 7532   4.265   8.403   1.484 -1.6103 -2.9775 -1.3957
   18CHTO   O16 7533   4.362   8.484   1.039  0.3365  0.0563  0.5243
   18CHTO   C24 7534   4.482   8.385   1.026 -0.3617 -0.1375  0.5353
   18CHTO   H52 7535   4.569   8.421   1.081  2.2935 -1.1529 -2.8182
   18CHTO   C26 7536   4.510   8.360   0.875 -0.0197 -0.7357 -0.1206
   18CHTO   H54 7537   4.415   8.330   0.827  0.0891  0.7535 -1.3019
   18CHTO   O20 7538   4.546   8.490   0.821  0.0004 -0.7357 -0.3499
   18CHTO   H36 7539   4.625   8.516   0.864  0.1170 -0.0144 -0.9888
   18CHTO   C30 7540   4.617   8.247   0.854 -0.4309 -0.2970 -0.6243
   18CHTO   H58 7541   4.715   8.281   0.889 -1.0955  0.9227  0.1104
   18CHTO    N6 7542   4.633   8.227   0.708 -0.1138 -0.4827 -0.7830
   18CHTO   H45 7543   4.733   8.193   0.688  0.7645  1.1671  0.6276
   18CHTO   H46 7544   4.621   8.326   0.665  1.1034  0.8473  1.8126
   18CHTO   C33 7545   4.582   8.116   0.933 -0.0813 -0.1824  0.4511
   18CHTO   H61 7546   4.496   8.059   0.894 -0.0535 -0.1171  0.2942
   18CHTO   O18 7547   4.541   8.149   1.067 -0.5498 -0.1382  0.1190
   18CHTO   C28 7548   4.444   8.251   1.091 -0.6532  0.4452  0.5979
   18CHTO   H56 7549   4.345   8.224   1.054  0.7961 -1.9584 -1.6300
   18CHTO   C35 7550   4.438   8.267   1.250 -1.0647  0.0057 -0.5047
   18CHTO   O24 7551   4.384   8.158   1.321 -0.4378  0.8935  0.4410
   18CHTO   H39 7552   4.405   8.161   1.413  0.8262  3.2893  0.1043
   18CHTO    O9 7553   4.690   8.025   0.930  0.4307 -0.0611 -0.4278
   18CHTO   C13 7554   4.803   8.030   1.068  0.5790  0.0979  0.5344
   18CHTO   H26 7555   4.748   8.000   1.159  1.6908 -1.1400  0.8202
   18CHTO   C11 7556   4.880   8.172   1.079  0.9216  0.0927  0.1330
   18CHTO   H24 7557   4.817   8.255   1.115  2.7665  1.8928 -0.6739
   18CHTO    O8 7558   4.925   8.201   0.949 -0.3690  0.4601 -0.1468
   18CHTO    H3 7559   4.859   8.224   0.887 -1.8031  2.1043  1.9102
   18CHTO    C9 7560   5.001   8.167   1.179 -0.4207 -0.2479  0.0959
   18CHTO   H22 7561   4.959   8.140   1.277 -0.9682 -0.6349 -0.2409
   18CHTO    N2 7562   5.063   8.301   1.194 -0.3692 -0.3680 -0.4553
   18CHTO   H10 7563   4.992   8.381   1.207 -0.3344 -0.3180 -0.5707
   18CHTO   H11 7564   5.149   8.302   1.260  0.1918 -2.3122 -1.1256
   18CHTO    C7 7565   5.096   8.058   1.136 -0.5421  0.8174 -0.1690
   18CHTO   H20 7566   5.172   8.057   1.217  0.1953 -1.1198 -0.8439
   18CHTO    O4 7567   5.028   7.935   1.128  0.1681  0.3451  0.3217
   18CHTO   C14 7568   4.908   7.912   1.045  0.1588 -0.4410  0.1957
   18CHTO   H27 7569   4.853   7.821   1.076  0.0134 -0.4535 -0.0940
   18CHTO   C18 7570   4.949   7.888   0.893  0.1374  0.5143 -0.1909
   18CHTO   O13 7571   4.848   7.809   0.825 -0.0491 -0.0151 -0.0705
   18CHTO    H7 7572   4.872   7.771   0.742 -0.4722  1.9808 -1.1441
   18CHTO    O2 7573   5.175   8.080   0.985 -0.2991  0.5366 -0.0536
   18CHTO    C1 7574   5.307   8.021   0.953  0.2772  0.4870 -0.0806
   18CHTO   H14 7575   5.315   8.035   0.843 -2.1763  2.8252 -0.0159
   18CHTO    C2 7576   5.322   7.863   0.991  0.0523  0.3595  0.1815
   18CHTO   H15 7577   5.306   7.853   1.099  0.9917 -2.9071  0.0645
   18CHTO    O6 7578   5.228   7.783   0.923  0.1580  0.1683  0.1860
   18CHTO    H1 7579   5.146   7.776   0.968 -0.2963 -0.5819 -0.7186
   18CHTO    C3 7580   5.469   7.800   0.967 -0.7144 -0.0327 -0.7289
   18CHTO   H16 7581   5.486   7.794   0.859 -0.0031  1.6085 -0.7113
   18CHTO    N1 7582   5.496   7.668   1.026  0.5911  0.3366 -0.2123
   18CHTO    H8 7583   5.427   7.590   0.999 -1.4288  1.3980  1.7010
   18CHTO    H9 7584   5.489   7.672   1.134  0.4582 -0.2018 -0.2015
   18CHTO    C4 7585   5.574   7.910   1.021 -0.0585  0.3541 -0.0199
   18CHTO   H17 7586   5.570   7.908   1.130  0.3403 -0.3879 -0.0156
   18CHTO    O1 7587   5.542   8.040   0.973 -0.0061 -0.5942  0.8121
   18CHTO    C5 7588   5.419   8.101   1.018  0.0928 -0.1898  0.0032
   18CHTO   H18 7589   5.399   8.095   1.125 -0.8005 -4.0860 -0.3126
   18CHTO   C16 7590   5.416   8.247   0.973  0.0283 -0.0128 -0.9308
   18CHTO   O11 7591   5.531   8.313   1.027 -0.1582 -0.4746 -0.1050
   18CHTO    H5 7592   5.609   8.281   0.986  2.4090  1.4487  3.0517
   18CHTO    O3 7593   5.705   7.887   0.973 -0.5478 -0.5824  0.0458
   18CHTO    C6 7594   5.822   7.926   1.056 -0.7937 -0.0674  0.7064
   18CHTO   H19 7595   5.794   7.976   1.149 -0.5714  0.5066  0.4656
   18CHTO    C8 7596   5.899   7.798   1.092 -0.5798  0.1062  0.7809
   18CHTO   H21 7597   5.937   7.756   0.999 -2.2342 -0.6355  0.4226
   18CHTO    O7 7598   5.807   7.708   1.153  0.3255 -0.2128 -0.5804
   18CHTO    H2 7599   5.792   7.699   1.245 -0.9725 -0.5295 -0.8197
   18CHTO   C12 7600   6.024   7.843   1.188  0.9331  0.6534 -0.4293
   18CHTO   H25 7601   5.979   7.881   1.282  2.1211 -2.0545  1.2986
   18CHTO    N3 7602   6.101   7.723   1.235 -0.0304 -0.3857  0.4218
   18CHTO   H12 7603   6.050   7.673   1.315  1.7604 -1.2707  1.0231
   18CHTO   H13 7604   6.199   7.765   1.254 -0.1549  0.2239 -0.2312
   18CHTO   C15 7605   6.103   7.952   1.121 -0.6428  0.2532  0.3026
   18CHTO   H28 7606   6.179   7.917   1.049 -1.7429  0.0571 -0.7829
   18CHTO   O10 7607   6.158   8.039   1.222 -0.6046  0.2433 -0.2571
   18CHTO    H4 7608   6.189   8.000   1.302 -2.9826 -1.0634  0.0712
   18CHTO    O5 7609   6.025   8.056   1.061  0.7509  0.3794  0.2273
   18CHTO   C10 7610   5.921   8.013   0.974  0.4419 -0.0924 -0.8277
   18CHTO   H23 7611   5.964   7.959   0.890  0.1307 -2.0360  0.2320
   18CHTO   C17 7612   5.871   8.148   0.909  0.1839 -0.1577 -0.4541
   18CHTO   O12 7613   5.963   8.215   0.829 -1.0679  0.5864  0.8447
   18CHTO    H6 7614   6.015   8.277   0.876  0.9417 -0.5619  0.1790
   19CHTO  H203 7615   5.284   9.963   2.980  1.7019  1.8758 -0.3569
   19CHTO   O82 7616   5.331   9.902   2.926  0.0984 -0.1470  0.4399
   19CHTO  C123 7617   5.225   9.831   2.854  0.2625  0.5817  0.4984
   19CHTO  H227 7618   5.195   9.893   2.769  1.9033 -0.7489 -1.1117
   19CHTO   O77 7619   5.299   9.711   2.799 -0.5596 -0.0005 -0.3291
   19CHTO  C118 7620   5.219   9.631   2.713  0.0458  0.6842 -0.2003
   19CHTO  H222 7621   5.165   9.693   2.640  0.8620  0.4551 -0.9947
   19CHTO  C125 7622   5.308   9.522   2.640  0.7172 -0.4640  0.0770
   19CHTO   O84 7623   5.401   9.596   2.557  0.0804  0.6229  0.2518
   19CHTO  H205 7624   5.390   9.566   2.469 -0.0665 -0.6014  0.6716
   19CHTO  C114 7625   5.105   9.564   2.803  0.3251  0.2615 -0.8640
   19CHTO  H218 7626   5.148   9.506   2.885 -1.7752 -0.8240 -0.4866
   19CHTO  C116 7627   5.017   9.675   2.860 -0.6605 -0.4395 -0.6245
   19CHTO  H220 7628   4.970   9.737   2.781 -0.8442  1.0366  0.6143
   19CHTO   O79 7629   4.904   9.613   2.921  0.1935 -0.4043 -0.1651
   19CHTO  H201 7630   4.858   9.673   2.977 -0.0906 -2.0799  1.4299
   19CHTO  C120 7631   5.103   9.779   2.942 -0.4180 -0.1092  0.0107
   19CHTO  H224 7632   5.133   9.714   3.027  0.5509  1.3280  0.7795
   19CHTO   N21 7633   5.031   9.898   2.988  0.5020 -0.0987  0.0210
   19CHTO  H211 7634   4.995   9.883   3.089 -0.7188 -2.5657 -0.7429
   19CHTO  H212 7635   4.947   9.924   2.925  0.8713  0.9015 -0.0584
   19CHTO   O75 7636   5.033   9.467   2.719  0.0723 -0.5863 -0.4695
   19CHTO  C112 7637   5.039   9.311   2.766  0.2125 -0.4133 -0.6886
   19CHTO  H216 7638   5.027   9.313   2.875 -2.0964  2.2586 -0.9283
   19CHTO   O73 7639   5.170   9.266   2.731  0.2441  0.3305  0.0544
   19CHTO  C113 7640   5.195   9.123   2.731  1.0283  0.3726  0.5109
   19CHTO  H217 7641   5.193   9.096   2.839  1.0400 -0.8662  0.2011
   19CHTO  C124 7642   5.334   9.100   2.669 -0.3333 -0.2784 -0.2688
   19CHTO   O83 7643   5.434   9.170   2.749  0.2960 -0.0312  0.7027
   19CHTO  H204 7644   5.518   9.161   2.707 -0.7582  1.6233 -1.8743
   19CHTO  C109 7645   5.090   9.036   2.653  0.6577  0.6990 -0.5560
   19CHTO  H213 7646   5.097   9.066   2.548  2.8918  1.9523 -0.0895
   19CHTO  C110 7647   4.949   9.072   2.707 -0.1997  0.0933  0.2579
   19CHTO  H214 7648   4.946   9.047   2.813 -3.0527  0.0286  0.2092
   19CHTO   O78 7649   4.850   8.992   2.636 -0.3179  0.0111  0.0476
   19CHTO  H200 7650   4.772   9.044   2.640 -0.6967 -0.7022  3.6720
   19CHTO  C111 7651   4.932   9.227   2.686 -0.0634  0.3054  0.1418
   19CHTO  H215 7652   4.950   9.250   2.580 -0.3523  1.8174  0.4202
   19CHTO   N19 7653   4.798   9.280   2.727  0.0746 -0.4223 -0.7074
   19CHTO  H207 7654   4.785   9.380   2.687  1.9650  0.5085  0.9578
   19CHTO  H208 7655   4.720   9.208   2.705  1.5807 -1.7576 -1.7236
   19CHTO   O74 7656   5.128   8.899   2.676  0.2004  0.7057  1.0568
   19CHTO  C115 7657   5.106   8.807   2.553  0.1126 -0.9433  0.2489
   19CHTO  H219 7658   5.020   8.835   2.492  0.3337 -0.3198  0.2155
   19CHTO   O76 7659   5.233   8.817   2.454 -0.6981  0.5042  0.0845
   19CHTO  C122 7660   5.341   8.735   2.490  0.2758  0.6379  0.0338
   19CHTO  H226 7661   5.367   8.767   2.591  1.3182 -0.2505  0.0614
   19CHTO  C126 7662   5.461   8.778   2.398  0.2428  0.0235  0.3833
   19CHTO   O85 7663   5.502   8.914   2.421  0.4486 -0.0217  0.5702
   19CHTO  H206 7664   5.565   8.929   2.353  0.2643 -1.2279  0.1147
   19CHTO  C121 7665   5.312   8.586   2.474  1.0274  0.2243 -0.3097
   19CHTO  H225 7666   5.342   8.550   2.373  0.5743 -0.7986 -0.0899
   19CHTO   O81 7667   5.396   8.523   2.572  0.0861 -0.8076  0.0653
   19CHTO  H202 7668   5.367   8.434   2.579 -0.5852 -0.5445  0.6202
   19CHTO  C119 7669   5.160   8.554   2.504  0.1134  0.3447  0.0832
   19CHTO  H223 7670   5.110   8.565   2.408 -0.3458  1.1527  0.4085
   19CHTO  C117 7671   5.099   8.662   2.609 -0.0297 -0.9771  0.9277
   19CHTO  H221 7672   5.158   8.668   2.701  0.7154 -0.8501  0.4488
   19CHTO   N20 7673   4.956   8.634   2.642 -0.2937  1.0995  0.2176
   19CHTO  H209 7674   4.942   8.538   2.690  0.7810  0.3283 -0.9781
   19CHTO  H210 7675   4.909   8.716   2.694 -0.0830  0.8860  0.7546
   19CHTO   O80 7676   5.130   8.403   2.545  0.8477 -0.4479  0.8886
   19CHTO  C103 7677   5.147   8.299   2.446  0.0471 -0.8563 -0.0337
   19CHTO  H190 7678   5.149   8.344   2.347  1.7197  0.3751  0.5174
   19CHTO  C101 7679   5.274   8.205   2.464  0.3680 -0.0970 -0.0833
   19CHTO  H188 7680   5.291   8.176   2.568  1.5948  2.1575  0.3778
   19CHTO   O68 7681   5.404   8.288   2.423 -0.2723 -0.0599 -0.9307
   19CHTO  H168 7682   5.402   8.376   2.456  0.8894 -0.2040 -0.4485
   19CHTO   C99 7683   5.264   8.066   2.387  0.1907  0.1226 -0.0545
   19CHTO  H186 7684   5.264   8.097   2.280 -2.4390 -0.0370 -0.1156
   19CHTO   N17 7685   5.381   7.977   2.413  0.0891  0.0816  0.0263
   19CHTO  H174 7686   5.454   7.981   2.333 -1.0746  0.2240 -1.0536
   19CHTO  H175 7687   5.354   7.879   2.450 -0.3706  0.2708  0.1925
   19CHTO   C97 7688   5.125   7.996   2.407 -0.2544  0.1332 -0.6800
   19CHTO  H184 7689   5.123   7.943   2.504 -0.4995  2.0764  0.3987
   19CHTO   O64 7690   5.016   8.085   2.388 -0.2572  0.7358 -0.3998
   19CHTO  C104 7691   5.015   8.212   2.463  1.0063 -0.6971  0.4120
   19CHTO  H191 7692   5.000   8.185   2.568 -3.6669 -0.1297 -0.0354
   19CHTO  C108 7693   4.890   8.288   2.413 -0.1707 -0.4234 -0.1333
   19CHTO   O71 7694   4.768   8.218   2.429 -0.2279  0.7130  0.2287
   19CHTO  H171 7695   4.779   8.143   2.485  0.0493  0.1787 -0.5295
   19CHTO   O62 7696   5.104   7.896   2.301 -0.1723  0.6650 -0.0745
   19CHTO   C91 7697   4.991   7.805   2.327 -0.1352  0.5841  0.2652
   19CHTO  H178 7698   4.933   7.848   2.408  0.8592  0.7764  0.8867
   19CHTO   C92 7699   5.039   7.665   2.376  0.0085  0.8370 -0.5513
   19CHTO  H179 7700   5.094   7.618   2.294  0.3739  2.5928 -1.3499
   19CHTO   O66 7701   5.129   7.682   2.489 -0.8891  0.5153 -0.4639
   19CHTO  H166 7702   5.171   7.600   2.502 -2.0876  0.1376  1.1041
   19CHTO   C93 7703   4.912   7.578   2.423  0.3079 -0.1278  0.3525
   19CHTO  H180 7704   4.880   7.640   2.508 -2.5068 -0.3124 -0.5047
   19CHTO   N16 7705   4.943   7.441   2.479  0.3344  0.2114  0.2278
   19CHTO  H172 7706   4.907   7.443   2.580  1.9179 -0.0963  0.8176
   19CHTO  H173 7707   4.894   7.364   2.422  0.8858 -1.0809  1.4989
   19CHTO   C94 7708   4.807   7.575   2.304  0.6285  0.8858 -0.2073
   19CHTO  H181 7709   4.839   7.515   2.219  0.8202  0.2687  0.2951
   19CHTO   O61 7710   4.777   7.709   2.262  0.2685 -0.4321  0.1245
   19CHTO   C95 7711   4.891   7.784   2.215  0.6272 -0.3684  0.4585
   19CHTO  H182 7712   4.935   7.730   2.131  1.4267  1.8568 -0.6051
   19CHTO  C106 7713   4.837   7.925   2.170 -0.0817 -0.1817  0.2137
   19CHTO   O69 7714   4.900   7.965   2.046  0.0945  0.1762  0.1492
   19CHTO  H169 7715   4.908   7.888   1.993 -0.6643 -0.2387  0.6238
   19CHTO   O63 7716   4.647   7.516   2.371  0.0040  0.3523  0.2409
   19CHTO   C96 7717   4.582   7.429   2.282  0.5296  0.4313 -0.2768
   19CHTO  H183 7718   4.659   7.355   2.260 -0.3473 -0.6864  0.3818
   19CHTO   C98 7719   4.537   7.497   2.148  0.2435  0.0572 -1.5823
   19CHTO  H185 7720   4.621   7.548   2.098  1.1458  0.9072  0.7237
   19CHTO   O67 7721   4.494   7.391   2.056 -0.8675 -0.4355 -0.3459
   19CHTO  H167 7722   4.565   7.337   2.029 -1.8650 -2.6438  1.2629
   19CHTO  C102 7723   4.421   7.595   2.172 -0.7916  0.1264  1.0603
   19CHTO  H189 7724   4.373   7.597   2.073 -0.7288 -1.2858  0.9984
   19CHTO   N18 7725   4.463   7.739   2.187  0.2942 -1.1689 -0.8717
   19CHTO  H176 7726   4.377   7.802   2.204  0.3755 -1.2777 -0.0373
   19CHTO  H177 7727   4.526   7.745   2.275  1.2039 -0.6978 -1.5385
   19CHTO  C105 7728   4.322   7.535   2.277 -0.1537 -0.3778  0.3064
   19CHTO  H192 7729   4.337   7.585   2.373 -1.3412  1.9984 -0.6975
   19CHTO   O65 7730   4.339   7.389   2.301  0.3768  0.4424  0.7997
   19CHTO  C100 7731   4.461   7.348   2.355 -0.4998  0.0761 -1.2377
   19CHTO  H187 7732   4.447   7.366   2.463  1.1441  1.1178 -1.1754
   19CHTO  C107 7733   4.484   7.194   2.335 -0.8647  0.5897 -0.1873
   19CHTO   O70 7734   4.602   7.159   2.400  0.1716 -0.0552 -0.1038
   19CHTO  H170 7735   4.616   7.072   2.367  0.7541 -0.5563  1.4007
   19CHTO   O57 7736   4.171   7.561   2.210 -0.5492  0.7859 -0.0820
   19CHTO   C85 7737   4.055   7.478   2.240 -0.7136  0.1690 -0.3267
   19CHTO  H157 7738   4.088   7.385   2.291  0.0717 -0.2856 -1.6591
   19CHTO   C83 7739   3.976   7.455   2.107  0.0595  0.1535  0.4106
   19CHTO  H155 7740   4.051   7.401   2.049  0.8963  0.8237  0.8542
   19CHTO   O56 7741   3.957   7.583   2.043  0.6890  0.3210  0.0913
   19CHTO  H135 7742   3.904   7.568   1.967  1.0379 -0.6886  0.0313
   19CHTO   C81 7743   3.849   7.363   2.132 -0.4575  0.2677  0.1096
   19CHTO  H153 7744   3.883   7.274   2.185 -0.9836  0.2560  0.4287
   19CHTO   N14 7745   3.796   7.317   2.000 -0.0203  0.2035 -0.6497
   19CHTO  H141 7746   3.724   7.238   2.000 -0.4175  0.5587 -0.1038
   19CHTO  H142 7747   3.753   7.404   1.956  0.8988  0.3989 -1.1728
   19CHTO   C79 7748   3.750   7.438   2.225  0.1982 -0.2498 -0.5473
   19CHTO  H151 7749   3.664   7.375   2.247 -1.0879  1.4260 -0.6834
   19CHTO   O52 7750   3.822   7.477   2.350 -0.0327 -0.0488 -0.1282
   19CHTO   C86 7751   3.945   7.557   2.327  0.1410 -0.2692  0.7148
   19CHTO  H158 7752   3.907   7.648   2.274 -0.6808 -0.8989  0.2061
   19CHTO   C90 7753   4.004   7.603   2.460  0.5127  0.5086 -0.1062
   19CHTO   O60 7754   4.099   7.710   2.436 -0.4394 -0.0382 -0.1374
   19CHTO  H138 7755   4.055   7.793   2.438 -1.3329 -0.5163  0.0121
   19CHTO   O50 7756   3.692   7.555   2.172  0.5332  0.1478 -0.3319
   19CHTO   C73 7757   3.564   7.623   2.170 -0.3375 -0.6162  0.5092
   19CHTO  H145 7758   3.485   7.564   2.220 -0.2426  0.6864  2.2333
   19CHTO   C74 7759   3.533   7.653   2.023  1.1162 -0.6092 -0.3091
   19CHTO  H146 7760   3.518   7.554   1.979  0.1840 -1.0993  1.0889
   19CHTO   O54 7761   3.406   7.721   2.007 -0.7105  0.0693  0.8104
   19CHTO  H133 7762   3.356   7.682   1.938  1.3181  4.0104 -3.1654
   19CHTO   C75 7763   3.650   7.725   1.951  0.0088  0.2031 -0.7109
   19CHTO  H147 7764   3.738   7.659   1.947  0.8811  1.3322 -0.4083
   19CHTO   N13 7765   3.634   7.745   1.807  0.7898  0.6341  0.0219
   19CHTO  H139 7766   3.559   7.679   1.766  0.3960 -0.9692  3.1615
   19CHTO  H140 7767   3.613   7.847   1.777 -0.3261  0.0171 -1.3615
   19CHTO   C76 7768   3.683   7.854   2.036 -0.3644 -0.3379 -0.2030
   19CHTO  H148 7769   3.610   7.932   2.014 -1.4354 -1.4476 -0.6691
   19CHTO   O49 7770   3.690   7.829   2.182 -0.1972 -0.1692 -0.6507
   19CHTO   C77 7771   3.578   7.759   2.246 -0.0583  0.7826 -0.0667
   19CHTO  H149 7772   3.485   7.815   2.246 -0.6193 -0.1506 -0.7143
   19CHTO   C88 7773   3.609   7.737   2.397 -0.3285  0.4745 -0.1271
   19CHTO   O58 7774   3.505   7.658   2.463 -0.0278  0.3108 -0.3636
   19CHTO  H136 7775   3.417   7.681   2.443 -0.0834 -0.4084 -0.9395
   19CHTO   O51 7776   3.840   7.889   1.985 -0.0620 -0.6675 -0.5213
   19CHTO   C78 7777   3.863   8.028   2.016 -0.8225  0.7037  0.6996
   19CHTO  H150 7778   3.796   8.068   2.095 -0.5872  2.1295  0.2046
   19CHTO   C80 7779   3.838   8.111   1.890  0.2266  0.2171  0.0006
   19CHTO  H152 7780   3.896   8.071   1.804 -2.3614  1.3635 -2.3072
   19CHTO   O55 7781   3.707   8.102   1.844 -0.2419  0.5870  0.3653
   19CHTO  H134 7782   3.644   8.140   1.901 -1.0030  1.5301 -1.0619
   19CHTO   C84 7783   3.875   8.267   1.917  0.0993  0.2163 -0.4094
   19CHTO  H156 7784   3.809   8.302   1.996  0.4951 -0.6392  0.3040
   19CHTO   N15 7785   3.860   8.353   1.796  0.0746 -0.4064  0.8873
   19CHTO  H143 7786   3.929   8.332   1.718 -0.8512  1.0693 -0.3592
   19CHTO  H144 7787   3.878   8.455   1.820  0.7467  0.2695 -2.2773
   19CHTO   C87 7788   4.015   8.274   1.976 -0.2592 -0.3149  0.1620
   19CHTO  H159 7789   4.094   8.257   1.903 -0.3900 -0.6160  0.0881
   19CHTO   O53 7790   4.037   8.179   2.093 -0.3430  0.5009  0.1746
   19CHTO   C82 7791   4.012   8.039   2.070  0.2198  0.3147  0.3212
   19CHTO  H154 7792   4.086   8.006   1.997  1.2627  1.1526  0.9886
   19CHTO   C89 7793   4.034   7.961   2.200  0.3070  0.2515  0.0443
   19CHTO   O59 7794   4.039   7.823   2.167 -0.0937  0.4255 -0.1512
   19CHTO  H137 7795   3.991   7.769   2.225 -2.8810 -0.0681 -2.7881
   19CHTO   O45 7796   4.044   8.441   2.019 -0.5265 -0.4880 -0.0220
   19CHTO   C67 7797   3.961   8.487   2.127  0.0726  0.7870 -0.3111
   19CHTO  H124 7798   3.862   8.441   2.119  1.0866 -1.1264 -2.3177
   19CHTO   C65 7799   4.014   8.447   2.268  0.0080 -0.2196 -0.4528
   19CHTO  H122 7800   4.113   8.406   2.248  0.2484  1.5487 -3.1986
   19CHTO   O44 7801   3.935   8.342   2.312  0.0558 -0.0570 -0.1009
   19CHTO  H102 7802   3.871   8.368   2.376 -1.2460  1.0997 -1.8171
   19CHTO   C63 7803   4.041   8.573   2.361  0.5839  0.1467 -0.1408
   19CHTO  H120 7804   4.118   8.632   2.313  0.7580  0.1103  0.0927
   19CHTO   N11 7805   4.097   8.547   2.496  0.0163  0.0493 -0.4789
   19CHTO  H108 7806   4.026   8.581   2.568  0.7316 -1.1645  0.8226
   19CHTO  H109 7807   4.192   8.596   2.507 -0.2287  0.3602  0.3145
   19CHTO   C61 7808   3.896   8.652   2.356 -0.3356  0.2479  0.1497
   19CHTO  H118 7809   3.904   8.744   2.415 -2.7356  1.1159 -0.8094
   19CHTO   O40 7810   3.852   8.686   2.234  0.7543 -0.4396  0.4479
   19CHTO   C68 7811   3.931   8.649   2.118 -0.4400  0.4820 -0.1494
   19CHTO  H125 7812   4.027   8.705   2.118  1.5918 -2.8393  1.8025
   19CHTO   C72 7813   3.851   8.689   1.993 -1.1827 -0.2073  0.7894
   19CHTO   O48 7814   3.799   8.825   2.001  0.0306 -0.3933 -0.0893
   19CHTO  H105 7815   3.874   8.881   2.007 -0.5093  0.7090 -2.5524
   19CHTO   O38 7816   3.785   8.585   2.419  0.8277  0.4381  0.4885
   19CHTO   C55 7817   3.661   8.659   2.437 -0.8238  0.2468  0.6637
   19CHTO  H112 7818   3.665   8.750   2.375 -1.4696 -1.6795 -2.2706
   19CHTO   C56 7819   3.648   8.692   2.590 -1.0364  0.8321  0.0554
   19CHTO  H113 7820   3.667   8.597   2.643 -0.6847  0.6783 -0.3408
   19CHTO   O42 7821   3.754   8.786   2.616 -0.1751  0.7656 -0.4555
   19CHTO  H100 7822   3.772   8.791   2.708  1.2908 -2.5944 -0.4812
   19CHTO   C57 7823   3.504   8.750   2.616  0.5964  0.0064 -0.0767
   19CHTO  H114 7824   3.514   8.854   2.586  0.5747  1.2622  4.0153
   19CHTO   N10 7825   3.466   8.760   2.759  0.4049 -0.4330 -0.0407
   19CHTO  H106 7826   3.390   8.837   2.763  0.2951 -0.5247 -0.3408
   19CHTO  H107 7827   3.419   8.666   2.784  0.1791 -0.0576  0.9591
   19CHTO   C58 7828   3.394   8.679   2.538  0.0746 -0.3096 -0.7457
   19CHTO  H115 7829   3.362   8.590   2.596 -0.6814 -0.6914 -1.7402
   19CHTO   O37 7830   3.423   8.639   2.410 -0.1267 -0.0576 -0.1833
   19CHTO   C59 7831   3.546   8.563   2.393  0.2176  0.5486  0.7537
   19CHTO  H116 7832   3.546   8.482   2.466  2.0916 -0.9473 -0.8592
   19CHTO   C70 7833   3.547   8.511   2.244 -0.7871  0.6874 -0.4193
   19CHTO   O46 7834   3.614   8.384   2.222 -0.5942 -0.1939  0.1492
   19CHTO  H103 7835   3.548   8.319   2.233  0.1208 -1.0311 -0.5291
   19CHTO   O39 7836   3.243   8.785   2.536  0.3104 -0.0867 -0.1281
   19CHTO   C60 7837   3.200   8.823   2.404 -1.0498 -0.6226 -0.0201
   19CHTO  H117 7838   3.279   8.811   2.329  1.6251 -2.5479  2.9994
   19CHTO   C62 7839   3.078   8.725   2.352 -0.7198 -0.0025  0.0563
   19CHTO  H119 7840   3.126   8.628   2.379  0.4079  0.5617  0.1436
   19CHTO   O43 7841   2.961   8.729   2.434 -0.2113 -0.1726 -0.1244
   19CHTO  H101 7842   2.882   8.700   2.394 -1.0059  1.3304  0.3261
   19CHTO   C66 7843   3.062   8.756   2.193  0.3837 -0.4212  0.3678
   19CHTO  H123 7844   3.160   8.741   2.149  0.2263 -0.3722  0.0014
   19CHTO   N12 7845   2.968   8.653   2.133 -0.1140 -0.0044 -0.4357
   19CHTO  H110 7846   2.949   8.677   2.029 -2.5692 -0.7951 -0.2137
   19CHTO  H111 7847   3.022   8.560   2.129 -0.7896 -0.3277 -2.1437
   19CHTO   C69 7848   3.025   8.907   2.173  0.5285 -0.0219 -0.0285
   19CHTO  H126 7849   2.924   8.932   2.211  1.6338  3.0834  0.9755
   19CHTO   O41 7850   3.110   9.004   2.245 -0.4795  0.2815  0.1088
   19CHTO   C64 7851   3.152   8.967   2.396  0.1959 -0.6883  0.2110
   19CHTO  H121 7852   3.060   8.974   2.458  0.1326  0.3464  0.0085
   19CHTO   C71 7853   3.249   9.070   2.445  0.7096 -0.4733  0.3524
   19CHTO   O47 7854   3.303   9.031   2.571 -0.4079 -0.4544 -0.8807
   19CHTO  H104 7855   3.229   9.010   2.624 -0.5456  0.1759 -0.8202
   19CHTO   O34 7856   3.032   8.932   2.025 -0.0399 -0.6952 -0.2414
   19CHTO   C49 7857   3.112   8.969   1.912  0.4876  0.1293 -0.0395
   19CHTO   H91 7858   3.120   9.077   1.914 -0.0857  0.1713  0.0653
   19CHTO   C47 7859   3.026   8.932   1.786  0.2135 -0.2117 -0.5206
   19CHTO   H89 7860   3.084   8.970   1.700 -1.5192 -1.4570 -2.2775
   19CHTO   O33 7861   2.907   9.016   1.792  0.6398  0.3744 -0.1829
   19CHTO   H70 7862   2.865   8.999   1.874 -1.8111  0.7477 -1.3184
   19CHTO   C45 7863   2.999   8.776   1.778 -0.0729  0.7078  0.0173
   19CHTO   H87 7864   2.944   8.748   1.869  0.5396  1.9213  0.7708
   19CHTO    N8 7865   2.918   8.745   1.659 -0.0650  0.5237 -0.1574
   19CHTO   H75 7866   2.925   8.640   1.635  2.3470  0.5761  0.1529
   19CHTO   H76 7867   2.813   8.765   1.675 -0.2803 -0.2678 -0.5182
   19CHTO   C43 7868   3.142   8.699   1.784 -0.1657 -0.3991 -0.1611
   19CHTO   H85 7869   3.124   8.592   1.790 -0.0122 -0.3180  1.9748
   19CHTO   O29 7870   3.230   8.742   1.887  0.2701  0.1696  0.1296
   19CHTO   C50 7871   3.245   8.882   1.909  0.4170 -0.0343 -0.6750
   19CHTO   H92 7872   3.295   8.893   2.006  0.5999  0.3430 -0.8093
   19CHTO   C54 7873   3.359   8.938   1.817 -0.1489 -0.6074 -0.2768
   19CHTO   O36 7874   3.483   8.881   1.847 -0.5629  0.1695  0.3666
   19CHTO   H72 7875   3.488   8.788   1.832  0.9430  0.2454  0.3637
   19CHTO   O27 7876   3.215   8.721   1.662 -0.2613  0.5319  0.6663
   19CHTO   C37 7877   3.273   8.623   1.571  0.1016 -0.3782  0.3442
   19CHTO   H79 7878   3.205   8.538   1.556 -0.0044  0.0556 -1.8629
   19CHTO   C38 7879   3.295   8.690   1.434 -0.0622  0.0860  0.5040
   19CHTO   H80 7880   3.344   8.787   1.451 -0.0435 -0.2141  2.3301
   19CHTO   O31 7881   3.162   8.710   1.382 -0.1672 -0.6063 -0.0649
   19CHTO   H68 7882   3.109   8.638   1.407 -0.0832 -0.4629  0.5331
   19CHTO   C39 7883   3.380   8.614   1.335  1.1048 -0.3176 -0.1919
   19CHTO   H81 7884   3.306   8.549   1.289  1.3794 -0.8764  0.1504
   19CHTO    N7 7885   3.422   8.705   1.224  0.5447 -0.3215 -0.1149
   19CHTO   H73 7886   3.523   8.691   1.190  0.7103 -0.9356  0.6211
   19CHTO   H74 7887   3.346   8.708   1.148  1.4069 -0.9941 -1.0223
   19CHTO   C40 7888   3.499   8.540   1.401 -0.8627  0.2671  0.9029
   19CHTO   H82 7889   3.577   8.616   1.413 -0.6883  0.4929 -1.4122
   19CHTO   O26 7890   3.461   8.483   1.522 -0.1073 -0.3080 -0.0872
   19CHTO   C41 7891   3.409   8.572   1.625  0.3715 -0.5067  0.0939
   19CHTO   H83 7892   3.473   8.661   1.630  0.3331 -0.5427  1.5570
   19CHTO   C52 7893   3.407   8.504   1.761 -0.1559  0.0004  0.2778
   19CHTO   O35 7894   3.534   8.505   1.826 -0.4539  0.3062 -0.3964
   19CHTO   H71 7895   3.558   8.420   1.859 -0.6708  0.2690 -0.3383
   19CHTO   O28 7896   3.538   8.430   1.321  0.4704  0.2005  0.2645
   19CHTO   C42 7897   3.667   8.366   1.328 -0.6869  0.8272 -0.3079
   19CHTO   H84 7898   3.705   8.397   1.426 -0.2718 -1.8635  0.4138
   19CHTO   C44 7899   3.771   8.414   1.229 -0.2422  0.7288  0.3085
   19CHTO   H86 7900   3.733   8.407   1.126  0.9863 -1.6423 -0.0054
   19CHTO   O32 7901   3.785   8.553   1.260  0.5762  0.3718  0.0073
   19CHTO   H69 7902   3.776   8.613   1.189 -2.1681  1.4189  1.1778
   19CHTO   C48 7903   3.906   8.337   1.242  0.3200  0.0056 -0.5575
   19CHTO   H90 7904   3.949   8.368   1.337 -2.3981  0.2754  0.6387
   19CHTO    N9 7905   4.012   8.374   1.141 -0.0273 -0.6802  0.6144
   19CHTO   H77 7906   4.026   8.310   1.055  0.3007 -2.5525  2.0280
   19CHTO   H78 7907   4.096   8.416   1.193  2.1365 -0.8555 -2.6215
   19CHTO   C51 7908   3.881   8.181   1.255 -0.5236  0.1910 -0.8810
   19CHTO   H93 7909   3.848   8.150   1.156 -1.0619  0.2536 -0.7214
   19CHTO   O30 7910   3.789   8.149   1.356  0.4058  0.0997 -0.1061
   19CHTO   C46 7911   3.659   8.207   1.332  0.4770 -0.7347 -0.8230
   19CHTO   H88 7912   3.619   8.178   1.235  0.3737  1.0675 -1.3471
   19CHTO   C53 7913   3.562   8.159   1.450 -0.5162 -0.2369 -0.2678
   19CHTO   O72 7914   3.606   8.181   1.584 -0.2777 -0.3099  0.4965
   19CHTO  H199 7915   3.532   8.176   1.641 -1.3629  2.1132 -0.6320
   19CHTO   O22 7916   4.000   8.114   1.294  0.2021  0.2230 -0.9969
   19CHTO   C31 7917   4.037   7.977   1.237 -0.0497  0.9799 -0.3384
   19CHTO   H59 7918   3.942   7.922   1.220 -0.3164  1.5314 -0.6486
   19CHTO   C29 7919   4.101   7.990   1.099 -0.0917  0.0261  0.5455
   19CHTO   H57 7920   4.180   8.066   1.099 -0.0869  0.0205  0.5771
   19CHTO   O21 7921   4.005   8.039   1.003  0.1571 -0.1333  0.0630
   19CHTO   H37 7922   3.946   7.972   0.974  0.0624  0.3906 -0.9805
   19CHTO   C27 7923   4.163   7.851   1.042  0.0800  0.5213  0.6427
   19CHTO   H55 7924   4.085   7.775   1.025  1.0631 -0.3365 -0.0273
   19CHTO    N5 7925   4.243   7.867   0.917  0.0923 -0.8635  0.2712
   19CHTO   H43 7926   4.241   7.970   0.884  4.1114 -1.7766 -3.3010
   19CHTO   H44 7927   4.213   7.793   0.845  0.7586 -1.4959  0.6416
   19CHTO   C25 7928   4.256   7.789   1.151 -0.3839  0.2684  0.1510
   19CHTO   H53 7929   4.347   7.851   1.159 -0.9355  0.7828  3.5512
   19CHTO   O17 7930   4.172   7.767   1.272 -0.2653 -0.1321 -0.1823
   19CHTO   C32 7931   4.123   7.889   1.334 -0.9508  1.1127 -0.1706
   19CHTO   H60 7932   4.213   7.946   1.358  2.0472 -3.5405  0.2928
   19CHTO   C36 7933   4.045   7.850   1.462 -0.1735 -0.3330 -0.4631
   19CHTO   O25 7934   4.029   7.960   1.551 -0.2249 -0.2501  0.1103
   19CHTO   H40 7935   3.952   7.949   1.603  0.5740 -0.2733  1.2912
   19CHTO   O15 7936   4.306   7.648   1.113 -0.0175  0.0218 -0.9631
   19CHTO   C19 7937   4.332   7.513   1.077  0.2021 -0.7057 -0.1335
   19CHTO   H47 7938   4.311   7.511   0.969  1.0262  1.1917 -0.3575
   19CHTO   C20 7939   4.472   7.455   1.106 -0.5792  0.6363  0.7225
   19CHTO   H48 7940   4.494   7.452   1.214  0.2985  0.8458  0.5582
   19CHTO   O19 7941   4.562   7.541   1.041 -0.0590 -0.4503 -0.3233
   19CHTO   H35 7942   4.547   7.548   0.949  0.2689 -1.9063 -0.5007
   19CHTO   C21 7943   4.486   7.303   1.050 -0.0628  0.4717 -1.2571
   19CHTO   H49 7944   4.492   7.304   0.941 -1.7497 -0.0497 -1.3542
   19CHTO    N4 7945   4.610   7.235   1.091 -0.0392  0.5232 -0.1394
   19CHTO   H41 7946   4.652   7.266   1.186  0.2492 -0.5202  0.0818
   19CHTO   H42 7947   4.686   7.238   1.015  0.2168 -0.3760  0.0732
   19CHTO   C22 7948   4.362   7.216   1.086 -0.1380 -0.1329 -0.0132
   19CHTO   H50 7949   4.366   7.186   1.190 -1.3983 -1.9466 -0.4699
   19CHTO   O14 7950   4.235   7.290   1.070 -0.0796  0.1070 -0.2265
   19CHTO   C23 7951   4.225   7.413   1.144 -0.2275  0.2823  0.3618
   19CHTO   H51 7952   4.248   7.392   1.250  0.0367  0.8555  0.4235
   19CHTO   C34 7953   4.082   7.464   1.137  0.3469  0.7904  0.1796
   19CHTO   O23 7954   3.978   7.363   1.131 -0.2768  0.4023 -0.3946
   19CHTO   H38 7955   3.970   7.330   1.043 -1.7583  0.1801 -0.1931
   19CHTO   O16 7956   4.347   7.112   0.989 -0.1509 -0.0148 -0.1797
   19CHTO   C24 7957   4.362   6.964   1.042  0.7898  0.4646 -0.4273
   19CHTO   H52 7958   4.403   6.967   1.143  0.6468  0.2306 -0.3646
   19CHTO   C26 7959   4.447   6.879   0.939 -0.4512  0.0065  0.3609
   19CHTO   H54 7960   4.400   6.882   0.839  0.4479 -2.6736 -0.1706
   19CHTO   O20 7961   4.583   6.924   0.954 -0.0591 -0.2904 -0.0787
   19CHTO   H36 7962   4.586   7.017   0.940  2.6918 -0.2944  0.2794
   19CHTO   C30 7963   4.443   6.726   0.981 -0.0036  0.2557 -0.2268
   19CHTO   H58 7964   4.480   6.713   1.083  1.2165  0.9443 -0.5692
   19CHTO    N6 7965   4.518   6.640   0.886  0.0990  0.1706 -1.0512
   19CHTO   H45 7966   4.493   6.536   0.898 -2.4822  0.4642 -3.2807
   19CHTO   H46 7967   4.624   6.659   0.889  0.2327 -0.6311 -0.4762
   19CHTO   C33 7968   4.294   6.676   0.998  0.3022 -0.7360  0.0935
   19CHTO   H61 7969   4.250   6.692   0.899  1.5071 -0.1648 -0.3690
   19CHTO   O18 7970   4.230   6.759   1.095  0.3036 -0.3006 -0.0470
   19CHTO   C28 7971   4.217   6.900   1.054 -0.3002  0.2959 -0.1432
   19CHTO   H56 7972   4.165   6.915   0.959 -0.5399 -1.2014 -0.2578
   19CHTO   C35 7973   4.126   6.967   1.166  0.0251  0.0061  0.5422
   19CHTO   O24 7974   4.195   6.951   1.293 -0.5899  0.3969 -0.2219
   19CHTO   H39 7975   4.137   6.908   1.353 -0.4828  0.5839  0.0184
   19CHTO    O9 7976   4.282   6.537   1.028 -0.1141 -0.1488  0.5433
   19CHTO   C13 7977   4.134   6.464   0.993 -1.0991 -0.2935  0.0385
   19CHTO   H26 7978   4.092   6.514   0.903 -0.0249  0.4942 -0.0321
   19CHTO   C11 7979   4.041   6.474   1.114 -0.1537 -0.4249 -0.2003
   19CHTO   H24 7980   4.008   6.578   1.117 -0.1627 -0.4484  1.0368
   19CHTO    O8 7981   4.108   6.448   1.241  0.0189 -0.3580  0.6177
   19CHTO    H3 7982   4.064   6.372   1.273  0.1937 -1.1439 -1.0150
   19CHTO    C9 7983   3.912   6.392   1.078  0.1423  0.2378 -0.1723
   19CHTO   H22 7984   3.881   6.426   0.978  1.4063 -0.7072 -0.8987
   19CHTO    N2 7985   3.797   6.414   1.170  0.3236 -0.0823 -0.8199
   19CHTO   H10 7986   3.801   6.480   1.256  1.5504 -0.2022 -0.7883
   19CHTO   H11 7987   3.700   6.387   1.130  0.3642 -1.3725 -0.0497
   19CHTO    C7 7988   3.949   6.244   1.058  0.2406 -0.5678 -0.2581
   19CHTO   H20 7989   3.858   6.192   1.020 -0.9579  1.9549 -0.9720
   19CHTO    O4 7990   4.051   6.229   0.956 -0.6348  0.6491 -0.0439
   19CHTO   C14 7991   4.164   6.312   0.961 -0.3938 -0.3977  0.0701
   19CHTO   H27 7992   4.207   6.310   0.859  1.0208  2.1596  0.5513
   19CHTO   C18 7993   4.276   6.253   1.054  0.2861  0.3930 -0.3207
   19CHTO   O13 7994   4.325   6.125   1.004 -0.2767 -0.4661 -0.2890
   19CHTO    H7 7995   4.359   6.071   1.073 -2.8866 -1.1557  0.4894
   19CHTO    O2 7996   3.998   6.166   1.203  0.1776 -0.3386  0.0065
   19CHTO    C1 7997   3.950   6.036   1.241 -0.0392  0.4128  0.2360
   19CHTO   H14 7998   3.977   5.959   1.165 -1.7023  0.9625 -0.9591
   19CHTO    C2 7999   3.793   6.030   1.269  0.4128  0.1160 -0.6705
   19CHTO   H15 8000   3.784   6.113   1.340  1.2499 -0.0666 -0.3477
   19CHTO    O6 8001   3.711   6.066   1.158 -0.2439  0.1003 -0.6009
   19CHTO    H1 8002   3.740   6.146   1.119 -0.3383  1.0577  1.2740
   19CHTO    C3 8003   3.741   5.892   1.344 -0.7618 -0.7109 -0.0501
   19CHTO   H16 8004   3.748   5.804   1.278 -2.1246  0.6608 -2.0776
   19CHTO    N1 8005   3.597   5.904   1.388  0.2710  0.2112 -0.7462
   19CHTO    H8 8006   3.542   5.974   1.327  2.3492 -0.8587 -3.9980
   19CHTO    H9 8007   3.548   5.808   1.380  1.5971 -0.4998 -0.4852
   19CHTO    C4 8008   3.836   5.867   1.467 -0.0067  0.2825  0.0732
   19CHTO   H17 8009   3.823   5.950   1.536 -1.1885  0.0823  0.0987
   19CHTO    O1 8010   3.972   5.863   1.415 -0.4244  0.1168 -0.5032
   19CHTO    C5 8011   4.019   5.988   1.370  0.1765  0.9041  0.3535
   19CHTO   H18 8012   3.996   6.063   1.446 -0.4264  0.9544  0.1215
   19CHTO   C16 8013   4.174   5.983   1.358  0.3387  0.3765  0.5308
   19CHTO   O11 8014   4.212   5.899   1.252  0.2617  0.0775  0.2962
   19CHTO    H5 8015   4.306   5.892   1.257  0.3669  0.2601 -1.1870
   19CHTO    O3 8016   3.805   5.749   1.544 -0.2497  1.1515  0.9667
   19CHTO    C6 8017   3.813   5.764   1.693  0.2504  0.1023 -0.2912
   19CHTO   H19 8018   3.880   5.841   1.731  2.1943 -0.8392 -1.7442
   19CHTO    C8 8019   3.677   5.807   1.754 -0.2865  0.8737  0.5110
   19CHTO   H21 8020   3.601   5.737   1.719 -0.9973  1.2950  1.1990
   19CHTO    O7 8021   3.642   5.937   1.703 -0.3202 -0.2576 -0.4535
   19CHTO    H2 8022   3.583   5.923   1.632  0.5006 -0.5729 -1.0880
   19CHTO   C12 8023   3.677   5.804   1.914 -0.3970  0.4369 -0.1975
   19CHTO   H25 8024   3.736   5.891   1.950 -0.3651  0.0276  0.7704
   19CHTO    N3 8025   3.537   5.820   1.976  0.0765  0.1282 -0.1886
   19CHTO   H12 8026   3.472   5.871   1.906  0.9613  1.7148  0.1086
   19CHTO   H13 8027   3.557   5.879   2.064  0.1120 -0.8804  0.4890
   19CHTO   C15 8028   3.748   5.675   1.968 -0.0711 -0.3679 -0.3778
   19CHTO   H28 8029   3.679   5.590   1.962  1.1715 -1.3749 -0.7304
   19CHTO   O10 8030   3.814   5.684   2.129  0.1212 -0.6033  0.4027
   19CHTO    H4 8031   3.853   5.601   2.149  1.0318  0.1164  1.6920
   19CHTO    O5 8032   3.864   5.638   1.899  0.7954 -0.3666 -0.3061
   19CHTO   C10 8033   3.855   5.630   1.756  0.6156 -0.3181  0.9996
   19CHTO   H23 8034   3.781   5.550   1.746  1.2527 -0.7462 -0.4365
   19CHTO   C17 8035   3.987   5.576   1.705 -0.0359  0.1237 -0.1272
   19CHTO   O12 8036   3.984   5.537   1.568 -0.1986 -0.2670  0.1039
   19CHTO    H6 8037   4.066   5.520   1.528  0.2107 -1.1327  1.2933
   20CHTO  H203 8038   4.903   0.626   2.435 -0.9890  0.1428  0.8094
   20CHTO   O82 8039   4.937   0.680   2.367 -0.7900 -0.4140  0.4590
   20CHTO  C123 8040   4.895   0.818   2.386 -0.0402  0.7080  0.0598
   20CHTO  H227 8041   4.828   0.823   2.474  1.3876  0.1583  1.2030
   20CHTO   O77 8042   5.026   0.880   2.422 -0.7644 -0.3250 -0.9755
   20CHTO  C118 8043   5.012   1.022   2.427 -0.3390  0.0989 -0.0333
   20CHTO  H222 8044   4.928   1.057   2.489 -1.0904 -2.1297  0.2639
   20CHTO  C125 8045   5.153   1.082   2.480  0.4088 -0.0105  0.2409
   20CHTO   O84 8046   5.256   1.025   2.403 -0.4924 -0.0454 -0.2000
   20CHTO  H205 8047   5.260   0.933   2.420 -0.6410 -0.0600 -0.2459
   20CHTO  C114 8048   4.980   1.076   2.286  0.8902 -0.8904  0.3564
   20CHTO  H218 8049   5.053   1.029   2.221 -1.8272 -1.0837 -2.7287
   20CHTO  C116 8050   4.829   1.040   2.252  0.2716 -0.1485  0.0686
   20CHTO  H220 8051   4.766   1.089   2.329 -1.0802  0.1359 -1.1946
   20CHTO   O79 8052   4.781   1.095   2.127 -0.5252 -0.2424  0.5186
   20CHTO  H201 8053   4.688   1.094   2.114 -0.6476 -0.6619  1.3579
   20CHTO  C120 8054   4.835   0.880   2.255  0.1244 -0.2439 -0.1768
   20CHTO  H224 8055   4.894   0.854   2.164 -0.7331  0.1002 -0.8439
   20CHTO   N21 8056   4.705   0.817   2.231 -0.3341 -0.8971 -0.3292
   20CHTO  H211 8057   4.633   0.878   2.284  1.1687 -0.4862  1.2600
   20CHTO  H212 8058   4.678   0.822   2.127  0.9893  0.9176 -0.5904
   20CHTO   O75 8059   5.007   1.219   2.286 -0.1846  0.2841 -0.3838
   20CHTO  C112 8060   5.098   1.275   2.140 -0.0532  0.8103 -0.6307
   20CHTO  H216 8061   5.061   1.234   2.044  2.9411 -0.0558 -1.4684
   20CHTO   O73 8062   5.234   1.242   2.161  0.9146  0.7530  0.1351
   20CHTO  C113 8063   5.332   1.288   2.060 -0.2852  0.8139  0.5268
   20CHTO  H217 8064   5.311   1.237   1.963  1.4134 -1.4871  1.3148
   20CHTO  C124 8065   5.464   1.245   2.123  0.3002  0.5632  0.0069
   20CHTO   O83 8066   5.494   1.106   2.120 -0.4445 -0.5145 -0.3274
   20CHTO  H204 8067   5.493   1.083   2.029 -0.6141 -1.0633 -0.1899
   20CHTO  C109 8068   5.319   1.440   2.055 -0.0426 -0.0083  0.1028
   20CHTO  H213 8069   5.342   1.473   2.158 -3.2496 -1.2558  1.2831
   20CHTO  C110 8070   5.177   1.475   2.012 -0.1934  0.6830 -0.0098
   20CHTO  H214 8071   5.157   1.432   1.914  1.7201  1.6126 -0.8234
   20CHTO   O78 8072   5.174   1.617   1.994 -0.1656 -0.4100 -0.2662
   20CHTO  H200 8073   5.195   1.627   1.904  0.2375 -0.0382 -0.1328
   20CHTO  C111 8074   5.078   1.431   2.125 -0.5150  0.5904 -0.3049
   20CHTO  H215 8075   5.105   1.476   2.221 -1.9932 -1.5063  1.1653
   20CHTO   N19 8076   4.938   1.471   2.100 -0.2088  0.4647 -0.1291
   20CHTO  H207 8077   4.858   1.399   2.107  0.7634 -0.7283 -1.1829
   20CHTO  H208 8078   4.919   1.564   2.153  0.5290 -0.3183  1.5317
   20CHTO   O74 8079   5.421   1.492   1.960  0.0149  0.5320  0.0100
   20CHTO  C115 8080   5.490   1.633   2.011  1.0473 -0.6808 -0.3113
   20CHTO  H219 8081   5.429   1.682   2.086  0.8285 -0.7570 -0.4385
   20CHTO   O76 8082   5.635   1.609   2.076 -0.0340 -0.2344 -0.1757
   20CHTO  C122 8083   5.733   1.569   1.985 -0.4301 -0.6406  0.6589
   20CHTO  H226 8084   5.699   1.475   1.939  0.1400 -1.1668  1.3004
   20CHTO  C126 8085   5.857   1.534   2.069  0.2764 -0.2359 -0.1333
   20CHTO   O85 8086   5.913   1.653   2.129 -0.0512 -0.0816  0.7332
   20CHTO  H206 8087   6.006   1.645   2.127 -0.2801 -2.9032 -0.2767
   20CHTO  C121 8088   5.754   1.682   1.879  0.0186 -1.4818  0.0223
   20CHTO  H225 8089   5.853   1.730   1.892 -0.8296  0.3421 -0.1396
   20CHTO   O81 8090   5.760   1.604   1.758  0.3320 -0.0292  0.7592
   20CHTO  H202 8091   5.725   1.663   1.693  0.3980  0.2938  1.0150
   20CHTO  C119 8092   5.653   1.796   1.865 -0.1950  0.1560  0.1318
   20CHTO  H223 8093   5.674   1.865   1.947  0.5252  0.2977 -0.1779
   20CHTO  C117 8094   5.506   1.737   1.888 -0.3465 -0.4385 -0.2601
   20CHTO  H221 8095   5.462   1.681   1.806  0.3360 -0.0454 -0.8981
   20CHTO   N20 8096   5.411   1.850   1.904 -0.4425 -0.0051 -0.5570
   20CHTO  H209 8097   5.427   1.887   2.004  0.7692 -0.5007 -0.5643
   20CHTO  H210 8098   5.309   1.829   1.873 -0.0197 -0.7252 -1.4968
   20CHTO   O80 8099   5.678   1.907   1.728  0.4379  0.4211 -0.1294
   20CHTO  C103 8100   5.611   1.873   1.573  0.1265  0.1055 -0.5823
   20CHTO  H190 8101   5.695   1.859   1.505  0.5179 -0.5349  0.0313
   20CHTO  C101 8102   5.507   1.751   1.546  0.4189  0.2432 -0.3247
   20CHTO  H188 8103   5.433   1.758   1.626  0.2385  1.6898 -0.6079
   20CHTO   O68 8104   5.579   1.625   1.575 -0.2204 -0.5359  0.2520
   20CHTO  H168 8105   5.535   1.549   1.541  0.3030 -1.2908  1.2525
   20CHTO   C99 8106   5.441   1.765   1.399  0.5136 -0.7112  0.5672
   20CHTO  H186 8107   5.523   1.757   1.325  0.4146  0.2950  0.3363
   20CHTO   N17 8108   5.339   1.664   1.359 -0.9302 -0.0964  0.7062
   20CHTO  H174 8109   5.334   1.630   1.257  2.5379 -0.6352  0.6764
   20CHTO  H175 8110   5.322   1.587   1.432 -1.9381 -0.7571 -0.2065
   20CHTO   C97 8111   5.382   1.907   1.370  0.4122  0.0579 -0.0320
   20CHTO  H184 8112   5.296   1.913   1.439  1.8892  2.4642  1.6400
   20CHTO   O64 8113   5.481   2.006   1.400  0.1088  0.0983 -0.3456
   20CHTO  C104 8114   5.539   2.008   1.532 -0.0307  0.2138  0.6441
   20CHTO  H191 8115   5.457   2.031   1.600  0.5317  1.9674  0.7345
   20CHTO  C108 8116   5.637   2.127   1.533  0.0819 -0.3341 -0.0187
   20CHTO   O71 8117   5.571   2.254   1.534  0.0967  0.3774  0.5813
   20CHTO  H171 8118   5.600   2.301   1.458 -0.8019 -0.7255 -0.4692
   20CHTO   O62 8119   5.355   1.932   1.227 -0.4946 -0.3374  0.2326
   20CHTO   C91 8120   5.271   2.051   1.201 -0.2553  0.4224 -0.1623
   20CHTO  H178 8121   5.276   2.130   1.275 -2.3147  2.1326 -1.8033
   20CHTO   C92 8122   5.124   2.006   1.183 -0.1526  0.0876  0.2107
   20CHTO  H179 8123   5.120   1.917   1.119  0.8975  1.2171 -1.4442
   20CHTO   O66 8124   5.079   1.968   1.312  0.1332  0.2989 -0.1745
   20CHTO  H166 8125   5.132   1.892   1.331  0.7738  0.6304 -0.6118
   20CHTO   C93 8126   5.035   2.114   1.122  0.5868 -0.5580  0.3082
   20CHTO  H180 8127   5.025   2.190   1.201  2.3122 -1.4655  1.4479
   20CHTO   N16 8128   4.898   2.063   1.086 -0.4404 -0.1419  0.4285
   20CHTO  H172 8129   4.834   2.031   1.168 -0.6852  1.0276  0.7091
   20CHTO  H173 8130   4.842   2.130   1.023 -0.3133  0.0667  0.5369
   20CHTO   C94 8131   5.101   2.187   0.998  0.0704 -0.2236 -0.3300
   20CHTO  H181 8132   5.111   2.123   0.910 -1.3851 -0.0149 -0.6541
   20CHTO   O61 8133   5.232   2.238   1.040 -0.1455 -0.0863 -0.3620
   20CHTO   C95 8134   5.326   2.126   1.075  0.0359 -0.0839  0.9109
   20CHTO  H182 8135   5.329   2.054   0.993 -2.4505 -1.0053  1.5741
   20CHTO  C106 8136   5.468   2.196   1.105 -0.6023 -0.0122  0.0032
   20CHTO   O69 8137   5.562   2.101   1.153  0.1155  0.5191 -0.2928
   20CHTO  H169 8138   5.533   2.061   1.233 -0.8712  2.7515  0.5181
   20CHTO   O63 8139   5.030   2.308   0.951 -0.0537  0.1204  0.2197
   20CHTO   C96 8140   5.042   2.338   0.806 -0.4181 -0.1496  0.5954
   20CHTO  H183 8141   5.005   2.252   0.751 -0.4728 -1.0356  2.0014
   20CHTO   C98 8142   5.177   2.378   0.752  0.0231  0.0164  0.2046
   20CHTO  H185 8143   5.218   2.461   0.813  0.8159 -0.6726  0.6294
   20CHTO   O67 8144   5.277   2.274   0.765 -0.1889  0.1794  0.4010
   20CHTO  H167 8145   5.348   2.276   0.704  0.4902  0.1117  1.1868
   20CHTO  C102 8146   5.156   2.413   0.594  0.2896  0.8273 -1.0141
   20CHTO  H189 8147   5.133   2.318   0.546  0.6838  0.3128 -0.1988
   20CHTO   N18 8148   5.283   2.460   0.528  0.6280  0.1483 -0.1239
   20CHTO  H176 8149   5.304   2.558   0.566 -0.8546  0.4687 -0.0814
   20CHTO  H177 8150   5.290   2.466   0.420 -2.6422  0.4099 -0.3855
   20CHTO  C105 8151   5.040   2.516   0.571 -0.1009 -0.1121  0.2983
   20CHTO  H192 8152   5.070   2.612   0.614 -0.7002 -0.2490  1.0301
   20CHTO   O65 8153   4.921   2.470   0.636  0.2889  0.0308 -0.2054
   20CHTO  C100 8154   4.935   2.458   0.775  0.2354 -0.7505  0.5339
   20CHTO  H187 8155   4.982   2.550   0.814  1.7131 -2.0907  1.9854
   20CHTO  C107 8156   4.802   2.436   0.841 -0.5202  0.0853 -0.0019
   20CHTO   O70 8157   4.697   2.517   0.786  0.0202 -0.4699 -0.4492
   20CHTO  H170 8158   4.665   2.464   0.716 -1.4363  0.4602 -0.4934
   20CHTO   O57 8159   5.020   2.526   0.402 -0.2499  0.2650 -0.0950
   20CHTO   C85 8160   4.947   2.630   0.335  0.3466  0.6581 -0.4557
   20CHTO  H157 8161   4.948   2.721   0.399 -2.9528  1.3781 -1.3052
   20CHTO   C83 8162   4.798   2.592   0.317 -0.9581  0.0015 -0.2246
   20CHTO  H155 8163   4.757   2.570   0.416 -1.4317  1.1844 -0.1453
   20CHTO   O56 8164   4.778   2.469   0.247  0.0611  0.7786  0.4126
   20CHTO  H135 8165   4.833   2.395   0.262 -0.2080  0.4336 -0.2453
   20CHTO   C81 8166   4.729   2.714   0.260  0.5435 -0.3226  0.2608
   20CHTO  H153 8167   4.736   2.794   0.333  0.6093 -1.1550  1.1835
   20CHTO   N14 8168   4.578   2.695   0.251  0.2260  0.1736 -0.2087
   20CHTO  H141 8169   4.528   2.684   0.345  1.3486  1.3598  0.5480
   20CHTO  H142 8170   4.567   2.610   0.188  2.6119  0.6279 -1.2724
   20CHTO   C79 8171   4.790   2.760   0.126 -0.0249  0.3310  0.3495
   20CHTO  H151 8172   4.751   2.858   0.100  0.4983  0.4879  0.1558
   20CHTO   O52 8173   4.933   2.769   0.140  0.3635 -0.3262  0.1940
   20CHTO   C86 8174   5.004   2.659   0.191  0.6048  0.5122 -0.0321
   20CHTO  H158 8175   4.989   2.571   0.126 -1.2064  1.2904 -0.6841
   20CHTO   C90 8176   5.155   2.687   0.189  0.2022 -0.0855  0.8261
   20CHTO   O60 8177   5.187   2.797   0.276 -0.3808  0.6443 -0.2519
   20CHTO  H138 8178   5.265   2.841   0.249 -0.8905  1.4505 -0.4241
   20CHTO   O50 8179   4.774   2.674   0.010 -0.6737  0.8142 -0.3125
   20CHTO   C73 8180   4.772   2.674  -0.134  1.2911 -0.2478 -0.4782
   20CHTO  H145 8181   4.865   2.707  -0.183  1.0165  0.7366 -0.3409
   20CHTO   C74 8182   4.658   2.771  -0.182 -0.0976 -0.2556 -0.7497
   20CHTO  H146 8183   4.684   2.871  -0.144 -3.6814  0.9224 -1.2303
   20CHTO   O54 8184   4.672   2.773  -0.324  0.3721 -0.2759  0.3503
   20CHTO  H133 8185   4.645   2.858  -0.354 -0.1525 -0.5338  0.0869
   20CHTO   C75 8186   4.513   2.727  -0.130 -0.1783 -0.1066 -0.0151
   20CHTO  H147 8187   4.504   2.732  -0.020  0.1109  0.5715 -0.0209
   20CHTO   N13 8188   4.404   2.818  -0.172 -0.2073 -0.0638  0.7104
   20CHTO  H139 8189   4.401   2.821  -0.280 -2.2118 -2.2322  0.6622
   20CHTO  H140 8190   4.308   2.790  -0.130 -0.0385 -1.3644  0.2685
   20CHTO   C76 8191   4.492   2.585  -0.178  0.0177  0.4375 -0.5009
   20CHTO  H148 8192   4.493   2.590  -0.287  0.2645 -0.7817 -0.5621
   20CHTO   O49 8193   4.600   2.493  -0.136  0.1102  0.9899  0.2394
   20CHTO   C77 8194   4.732   2.530  -0.180 -0.0299 -0.2059  0.3435
   20CHTO  H149 8195   4.733   2.520  -0.288 -0.8381 -2.3809  0.5037
   20CHTO   C88 8196   4.845   2.436  -0.135  0.9292  0.4570 -0.6147
   20CHTO   O58 8197   4.845   2.304  -0.201  0.1718  0.0872  0.5932
   20CHTO  H136 8198   4.844   2.309  -0.294  0.9435 -1.3854  0.4930
   20CHTO   O51 8199   4.346   2.521  -0.135 -0.5444 -0.7701  0.0697
   20CHTO   C78 8200   4.345   2.436   0.000  0.2601 -0.0509  0.2993
   20CHTO  H150 8201   4.434   2.460   0.061 -0.8366 -0.2062  1.9928
   20CHTO   C80 8202   4.337   2.290  -0.029  0.4919  0.1614  0.1598
   20CHTO  H152 8203   4.241   2.281  -0.085  0.9903  0.7981 -0.8008
   20CHTO   O55 8204   4.456   2.253  -0.098  0.1632  0.1590 -0.4186
   20CHTO  H134 8205   4.467   2.163  -0.074 -2.1316  0.7615  3.2053
   20CHTO   C84 8206   4.323   2.206   0.107  0.6572 -0.1847 -0.2222
   20CHTO  H156 8207   4.419   2.216   0.158 -0.0594  1.8433  0.7798
   20CHTO   N15 8208   4.290   2.061   0.081 -0.7008 -0.1488 -0.5311
   20CHTO  H143 8209   4.189   2.027   0.076 -1.3464  1.7546 -0.8561
   20CHTO  H144 8210   4.355   2.017   0.008 -0.7342 -2.1259  0.5905
   20CHTO   C87 8211   4.219   2.261   0.203 -0.3963 -0.0244 -0.2592
   20CHTO  H159 8212   4.119   2.226   0.175 -1.0688  1.3740  0.3235
   20CHTO   O53 8213   4.227   2.420   0.206 -0.6289 -0.2374  0.6162
   20CHTO   C82 8214   4.214   2.471   0.075  0.2611 -0.7666  0.0669
   20CHTO  H154 8215   4.126   2.437   0.021 -1.2987  1.9912  0.8084
   20CHTO   C89 8216   4.196   2.620   0.087  0.4866 -0.0632 -0.5481
   20CHTO   O59 8217   4.091   2.643   0.184  0.5381  0.0867 -0.1081
   20CHTO  H137 8218   4.007   2.618   0.152 -0.8434  2.6405  1.3382
   20CHTO   O45 8219   4.248   2.207   0.365 -0.3346  0.1210 -0.0818
   20CHTO   C67 8220   4.336   2.295   0.432  0.9969  0.2026  0.6510
   20CHTO  H124 8221   4.405   2.346   0.365 -2.3376  0.5558 -2.6893
   20CHTO   C65 8222   4.244   2.399   0.508 -0.0549  0.6895 -0.5438
   20CHTO  H122 8223   4.174   2.440   0.435  0.3428  0.0026 -1.3215
   20CHTO   O44 8224   4.321   2.508   0.545 -0.7592  0.5208 -0.5813
   20CHTO  H102 8225   4.380   2.481   0.612 -0.3985  3.0334  0.1700
   20CHTO   C63 8226   4.155   2.325   0.613  0.1732  0.0178 -0.2502
   20CHTO  H120 8227   4.088   2.254   0.565 -1.0933  1.0393 -0.0375
   20CHTO   N11 8228   4.047   2.410   0.681  0.0188 -0.5821  0.9339
   20CHTO  H108 8229   4.083   2.507   0.708 -1.4801 -0.3031  1.9949
   20CHTO  H109 8230   3.960   2.414   0.618 -0.3157 -1.9755  1.3046
   20CHTO   C61 8231   4.244   2.251   0.710  0.3223  0.1300  0.6576
   20CHTO  H118 8232   4.178   2.188   0.772 -1.4358 -1.2803 -2.5446
   20CHTO   O40 8233   4.335   2.154   0.638  0.0550  0.1209 -0.1000
   20CHTO   C68 8234   4.422   2.206   0.526  0.8233  0.4164 -0.3152
   20CHTO  H125 8235   4.461   2.116   0.474  1.4074 -0.3187  1.3702
   20CHTO   C72 8236   4.543   2.286   0.584  0.4957 -1.1252  0.2853
   20CHTO   O48 8237   4.642   2.316   0.491 -0.6832  0.1891  0.0526
   20CHTO  H105 8238   4.697   2.385   0.522 -1.9073  2.7192 -3.0684
   20CHTO   O38 8239   4.326   2.340   0.785  0.1144 -0.6333  0.1899
   20CHTO   C55 8240   4.329   2.340   0.931 -0.6144  0.1270  0.1574
   20CHTO  H112 8241   4.253   2.270   0.966  0.0002 -0.7737 -0.2892
   20CHTO   C56 8242   4.320   2.488   0.993  0.5616 -0.3135 -0.0563
   20CHTO  H113 8243   4.411   2.546   0.969  1.3321 -1.3129  0.4256
   20CHTO   O42 8244   4.204   2.567   0.946 -0.2429 -0.3923  0.2038
   20CHTO  H100 8245   4.230   2.657   0.955 -3.8677  0.9553 -1.6633
   20CHTO   C57 8246   4.326   2.477   1.153  1.0681 -0.2001  1.0186
   20CHTO  H114 8247   4.236   2.420   1.178 -0.1259  0.5053 -1.5016
   20CHTO   N10 8248   4.306   2.611   1.207  0.2127 -0.1756 -0.1126
   20CHTO  H106 8249   4.202   2.643   1.205  0.3013  0.3169  2.0831
   20CHTO  H107 8250   4.340   2.616   1.309 -0.0471  0.7670 -0.0584
   20CHTO   C58 8251   4.451   2.400   1.191  0.6241 -0.5826  0.3452
   20CHTO  H115 8252   4.537   2.464   1.162 -1.2366  1.2285 -1.3162
   20CHTO   O37 8253   4.457   2.267   1.130 -0.4193 -0.2965 -0.2801
   20CHTO   C59 8254   4.464   2.285   0.986 -0.5380  0.2739  0.0791
   20CHTO  H116 8255   4.547   2.349   0.958 -1.7901  2.1745  0.5668
   20CHTO   C70 8256   4.480   2.142   0.930  0.0544 -0.6238  1.1620
   20CHTO   O46 8257   4.607   2.095   0.965  0.0751 -0.2178 -0.6100
   20CHTO  H103 8258   4.644   2.064   0.885  0.7972 -1.1300  0.0599
   20CHTO   O39 8259   4.458   2.369   1.345  0.4315  0.0213  0.6031
   20CHTO   C60 8260   4.581   2.330   1.406  0.4809 -0.6579 -0.2726
   20CHTO  H117 8261   4.621   2.261   1.332 -1.2252 -1.8106 -0.1463
   20CHTO   C62 8262   4.683   2.450   1.429 -0.6478 -1.0200  0.0793
   20CHTO  H119 8263   4.712   2.494   1.331  2.5793  1.3756  2.0116
   20CHTO   O43 8264   4.598   2.548   1.495 -0.1603 -0.4731 -0.0715
   20CHTO  H101 8265   4.610   2.630   1.451 -0.3097 -2.2983 -3.6320
   20CHTO   C66 8266   4.813   2.394   1.506  0.0051  0.1545 -0.4618
   20CHTO  H123 8267   4.858   2.316   1.445 -0.1562  0.0789 -0.4851
   20CHTO   N12 8268   4.912   2.504   1.526  0.2332 -0.1850 -0.4744
   20CHTO  H110 8269   4.997   2.460   1.576 -2.1305 -2.7425  1.5029
   20CHTO  H111 8270   4.858   2.585   1.573  0.4762 -1.8137  2.7391
   20CHTO   C69 8271   4.764   2.323   1.638  0.3570  0.4098  0.2104
   20CHTO  H126 8272   4.708   2.390   1.707  0.7152  0.9597 -0.0296
   20CHTO   O41 8273   4.683   2.208   1.599  0.5107  0.1695 -0.7993
   20CHTO   C64 8274   4.550   2.245   1.529 -0.2270  0.2340 -0.1876
   20CHTO  H121 8275   4.481   2.303   1.594 -2.7560 -2.1402 -0.6955
   20CHTO   C71 8276   4.470   2.110   1.486  0.6137 -0.3767  0.9585
   20CHTO   O47 8277   4.460   2.014   1.598  0.1686  0.0938 -0.5149
   20CHTO  H104 8278   4.389   1.955   1.584  1.3061 -1.5879  0.7374
   20CHTO   O34 8279   4.901   2.272   1.705  0.3198 -0.1655  0.3257
   20CHTO   C49 8280   4.934   2.146   1.734  0.0838 -0.1176  0.2197
   20CHTO   H91 8281   4.903   2.086   1.649  0.9107 -0.2077 -0.0265
   20CHTO   C47 8282   4.862   2.092   1.853  0.1398 -0.6145  0.2006
   20CHTO   H89 8283   4.762   2.059   1.818  0.6574 -0.7795 -1.1238
   20CHTO   O33 8284   4.847   2.204   1.948 -0.5279  0.5016 -0.2314
   20CHTO   H70 8285   4.852   2.168   2.035 -1.8332 -0.2968 -0.4637
   20CHTO   C45 8286   4.941   1.961   1.915  0.3192 -0.3466 -0.1350
   20CHTO   H87 8287   4.982   2.002   2.009 -0.8585  1.2365 -0.2922
   20CHTO    N8 8288   4.847   1.855   1.962  0.3507 -0.8450  0.1381
   20CHTO   H75 8289   4.747   1.895   1.968  0.9922  0.9297 -0.6022
   20CHTO   H76 8290   4.852   1.762   1.907 -1.6825 -1.4353  0.9112
   20CHTO   C43 8291   5.066   1.906   1.832  0.1766  0.9367  0.3344
   20CHTO   H85 8292   5.114   1.838   1.903 -3.6862  1.0742  3.2491
   20CHTO   O29 8293   5.147   2.016   1.794 -0.1920  0.7890  0.2069
   20CHTO   C50 8294   5.088   2.138   1.757  0.6609 -0.1746 -0.9345
   20CHTO   H92 8295   5.112   2.212   1.835 -3.0356 -1.6877  1.7784
   20CHTO   C54 8296   5.165   2.201   1.642 -0.3542  0.1987  0.0914
   20CHTO   O36 8297   5.150   2.129   1.516 -0.4351  0.1108 -0.0318
   20CHTO   H72 8298   5.118   2.043   1.532 -0.7992  0.0512 -1.0886
   20CHTO   O27 8299   5.018   1.845   1.710 -0.3309  0.0039 -0.0083
   20CHTO   C37 8300   4.942   1.751   1.630  0.2841  0.0031  0.3520
   20CHTO   H79 8301   4.877   1.699   1.702  1.6370  1.9963  3.1160
   20CHTO   C38 8302   4.845   1.832   1.534  1.4296 -0.2886  0.1479
   20CHTO   H80 8303   4.897   1.911   1.478 -1.7595  0.5313 -1.7859
   20CHTO   O31 8304   4.740   1.892   1.610 -0.0231  1.2547  0.4703
   20CHTO   H68 8305   4.681   1.827   1.643 -0.0388  0.7902 -0.4429
   20CHTO   C39 8306   4.779   1.738   1.424  0.2397 -0.3992 -0.6956
   20CHTO   H81 8307   4.704   1.675   1.471  0.1516  1.1186  1.2832
   20CHTO    N7 8308   4.702   1.817   1.317 -0.7876 -0.0466  0.5371
   20CHTO   H73 8309   4.599   1.785   1.322 -0.2544 -1.7875  0.6045
   20CHTO   H74 8310   4.750   1.802   1.222 -0.8195 -0.2805  0.5568
   20CHTO   C40 8311   4.890   1.639   1.368  0.2132  0.0128 -0.6361
   20CHTO   H82 8312   4.965   1.696   1.313  1.9301 -1.4745  0.1042
   20CHTO   O26 8313   4.953   1.565   1.474  0.0090  0.1799 -0.2655
   20CHTO   C41 8314   5.037   1.650   1.561 -0.5697 -0.0431  1.2037
   20CHTO   H83 8315   5.114   1.710   1.511 -0.5426 -0.7154  0.4358
   20CHTO   C52 8316   5.105   1.546   1.651  0.3033 -0.0259 -0.0929
   20CHTO   O35 8317   5.189   1.469   1.567  0.3242 -0.1851 -0.1376
   20CHTO   H71 8318   5.133   1.417   1.514 -0.1467 -1.6797  1.7699
   20CHTO   O28 8319   4.833   1.543   1.285 -0.7041 -0.2853  0.3170
   20CHTO   C42 8320   4.915   1.459   1.187 -0.2988  0.5293 -0.6200
   20CHTO   H84 8321   4.845   1.392   1.138 -0.7710  1.1391 -0.7928
   20CHTO   C44 8322   5.026   1.368   1.259 -0.0933  0.2407  0.4561
   20CHTO   H86 8323   5.104   1.434   1.299 -0.8526  1.1246  0.4867
   20CHTO   O32 8324   4.960   1.304   1.370  0.2659  0.5987  0.4928
   20CHTO   H69 8325   5.012   1.255   1.430  1.0403 -0.2718 -0.8543
   20CHTO   C48 8326   5.104   1.263   1.166 -0.5278  0.3749  0.7403
   20CHTO   H90 8327   5.025   1.195   1.135 -1.1724  0.8466  1.3187
   20CHTO    N9 8328   5.213   1.181   1.248 -0.3486  0.2175 -0.0284
   20CHTO   H77 8329   5.260   1.101   1.193 -0.3455 -2.5393  3.7696
   20CHTO   H78 8330   5.284   1.253   1.286  1.3547 -1.4955  0.0850
   20CHTO   C51 8331   5.161   1.356   1.048 -0.3287  0.6259 -0.6264
   20CHTO   H93 8332   5.228   1.427   1.097 -1.1640  1.0725 -0.1306
   20CHTO   O30 8333   5.056   1.420   0.977  0.2764  0.2313 -0.1194
   20CHTO   C46 8334   4.990   1.528   1.078  0.0309  0.4372  0.2226
   20CHTO   H88 8335   5.069   1.588   1.124  0.2762  0.4009 -0.1486
   20CHTO   C53 8336   4.894   1.628   1.007 -0.7863 -0.0706 -0.0539
   20CHTO   O72 8337   4.965   1.720   0.922  0.2821  0.3893 -0.2201
   20CHTO  H199 8338   4.971   1.698   0.831 -0.3462 -1.6929  0.2139
   20CHTO   O22 8339   5.238   1.288   0.946 -0.6949 -0.0928  0.3611
   20CHTO   C31 8340   5.330   1.365   0.858  0.3541  0.0539 -0.3940
   20CHTO   H59 8341   5.383   1.285   0.802  0.8990  0.4674 -0.4651
   20CHTO   C29 8342   5.260   1.457   0.755 -0.5862 -0.2052 -0.4741
   20CHTO   H57 8343   5.202   1.514   0.829  0.5545 -0.2776  0.5087
   20CHTO   O21 8344   5.179   1.384   0.659 -0.3892  0.5773  0.1349
   20CHTO   H37 8345   5.210   1.296   0.654 -2.9303 -0.3572  0.2238
   20CHTO   C27 8346   5.362   1.565   0.686 -0.2689 -0.3459  0.0738
   20CHTO   H55 8347   5.421   1.514   0.609 -0.2744 -2.3290  1.3347
   20CHTO    N5 8348   5.284   1.674   0.620  0.1301 -0.5913 -0.5986
   20CHTO   H43 8349   5.179   1.679   0.645  0.6813  2.6514  1.3288
   20CHTO   H44 8350   5.300   1.652   0.515 -0.3500 -1.0534 -0.5769
   20CHTO   C25 8351   5.452   1.624   0.799 -0.0584  0.2948  0.6128
   20CHTO   H53 8352   5.385   1.669   0.873  0.9909  0.3654  1.5473
   20CHTO   O17 8353   5.522   1.514   0.858  0.3924  0.2903  0.4306
   20CHTO   C32 8354   5.440   1.442   0.950  0.0214  0.6001  0.5945
   20CHTO   H60 8355   5.387   1.511   1.016 -0.6274 -0.8122  1.5803
   20CHTO   C36 8356   5.515   1.333   1.034  0.2064  0.0517  0.0139
   20CHTO   O25 8357   5.605   1.397   1.126 -0.0272  0.3741 -0.6703
   20CHTO   H40 8358   5.570   1.419   1.210 -0.8423 -2.1412 -0.2958
   20CHTO   O15 8359   5.563   1.725   0.749 -0.4747 -0.3336  0.1819
   20CHTO   C19 8360   5.686   1.780   0.799  0.6302  0.3141 -0.5833
   20CHTO   H47 8361   5.707   1.878   0.754  3.2816 -0.2782 -0.7063
   20CHTO   C20 8362   5.687   1.807   0.951 -0.8298  0.5470 -0.3260
   20CHTO   H48 8363   5.702   1.714   1.007  0.8064 -0.7004 -2.7684
   20CHTO   O19 8364   5.562   1.867   0.987 -0.1232  0.2548 -0.4412
   20CHTO   H35 8365   5.536   1.941   0.935 -0.6716  0.5220  0.2052
   20CHTO   C21 8366   5.813   1.890   0.982  0.6975 -0.5182  0.2470
   20CHTO   H49 8367   5.808   1.984   0.927  1.2172 -0.9786 -0.6015
   20CHTO    N4 8368   5.831   1.924   1.127  0.7171 -0.6461 -0.3015
   20CHTO   H41 8369   5.923   1.977   1.147 -0.5203  1.0304  1.0728
   20CHTO   H42 8370   5.746   1.981   1.162  0.3964 -1.2276 -0.1288
   20CHTO   C22 8371   5.938   1.823   0.917 -0.2650 -0.2033 -0.1253
   20CHTO   H50 8372   5.963   1.739   0.981  0.4619 -0.3008 -0.5314
   20CHTO   O14 8373   5.916   1.777   0.785 -0.5479 -0.4846 -0.1776
   20CHTO   C23 8374   5.805   1.689   0.762  0.8357 -0.2995  0.5458
   20CHTO   H51 8375   5.821   1.607   0.834  2.4801 -0.8714 -0.4289
   20CHTO   C34 8376   5.804   1.636   0.617  0.0040  0.1896 -0.1828
   20CHTO   O23 8377   5.809   1.729   0.514  0.1422  0.8616  0.1249
   20CHTO   H38 8378   5.843   1.684   0.439 -0.9059 -0.5819  0.4726
   20CHTO   O16 8379   6.046   1.914   0.897  0.3013  0.1992 -0.4103
   20CHTO   C24 8380   6.176   1.825   0.849 -0.4661 -0.5546  0.9040
   20CHTO   H52 8381   6.147   1.725   0.818  1.1760 -1.2626  1.6055
   20CHTO   C26 8382   6.277   1.803   0.968 -0.1550  0.6664  0.7253
   20CHTO   H54 8383   6.253   1.876   1.047 -2.2141  1.2036 -0.3745
   20CHTO   O20 8384   6.219   1.676   1.025  0.0507 -0.4081 -0.0699
   20CHTO   H36 8385   6.202   1.605   0.967 -2.8861 -1.2269  1.7078
   20CHTO   C30 8386   6.429   1.786   0.925  0.1269 -0.1003 -0.1687
   20CHTO   H58 8387   6.480   1.706   0.982 -0.5669 -1.5039 -1.4947
   20CHTO    N6 8388   6.510   1.913   0.946  0.5584 -0.3225  0.2911
   20CHTO   H45 8389   6.519   1.955   1.045  0.8555  1.6737 -0.5503
   20CHTO   H46 8390   6.464   1.988   0.883 -1.2493 -0.7618  1.0689
   20CHTO   C33 8391   6.441   1.751   0.779 -0.1377 -0.0800  0.7092
   20CHTO   H61 8392   6.548   1.745   0.758 -0.5324 -1.0636 -1.0741
   20CHTO   O18 8393   6.377   1.842   0.682 -0.0493 -0.9021  0.2373
   20CHTO   C28 8394   6.243   1.899   0.724 -0.5460  0.0089  0.2088
   20CHTO   H56 8395   6.251   2.006   0.740  0.8722  0.1470 -1.3354
   20CHTO   C35 8396   6.145   1.892   0.596  0.2474  0.6452 -0.1996
   20CHTO   O24 8397   6.111   1.760   0.567 -0.1675 -0.4822 -0.1960
   20CHTO   H39 8398   6.094   1.720   0.650  0.3356 -2.1709 -0.8852
   20CHTO    O9 8399   6.391   1.617   0.764 -0.0588 -0.9637  0.5223
   20CHTO   C13 8400   6.502   1.509   0.807  0.3538 -0.1291 -0.9545
   20CHTO   H26 8401   6.542   1.535   0.907 -2.2739 -3.3695  1.0644
   20CHTO   C11 8402   6.616   1.491   0.700  0.1371  0.4456  0.0929
   20CHTO   H24 8403   6.675   1.583   0.693  1.1829 -0.3150 -1.3524
   20CHTO    O8 8404   6.548   1.463   0.576 -0.7002  0.4623  0.3513
   20CHTO    H3 8405   6.594   1.506   0.506 -0.4801  0.4094  0.4644
   20CHTO    C9 8406   6.702   1.371   0.740  0.0228  0.6512 -0.5639
   20CHTO   H22 8407   6.749   1.400   0.835 -0.3162  0.9762 -0.4931
   20CHTO    N2 8408   6.816   1.349   0.653  0.2180 -0.3480  0.3048
   20CHTO   H10 8409   6.872   1.261   0.680 -0.1059 -0.9420 -0.9351
   20CHTO   H11 8410   6.880   1.436   0.659 -2.5961  1.6293  3.1590
   20CHTO    C7 8411   6.613   1.245   0.770  0.1729 -0.1535  0.4491
   20CHTO   H20 8412   6.637   1.214   0.873 -3.1267  1.1962  1.7071
   20CHTO    O4 8413   6.470   1.263   0.756  0.0746 -0.0986  0.3981
   20CHTO   C14 8414   6.436   1.373   0.843 -0.1723  0.1944 -0.0296
   20CHTO   H27 8415   6.468   1.339   0.944 -1.2199 -1.2464 -0.1605
   20CHTO   C18 8416   6.280   1.374   0.847 -0.8179  0.1394  0.0118
   20CHTO   O13 8417   6.215   1.391   0.719 -0.0214  0.3655 -0.9270
   20CHTO    H7 8418   6.204   1.309   0.674 -3.0356 -0.3534  1.0013
   20CHTO    O2 8419   6.660   1.113   0.674 -0.1909 -0.0817 -0.5177
   20CHTO    C1 8420   6.620   0.993   0.731  0.1893 -0.1530  0.0494
   20CHTO   H14 8421   6.552   1.013   0.817  0.7787  1.7686  0.0851
   20CHTO    C2 8422   6.746   0.924   0.788  0.8146 -0.0262  0.0456
   20CHTO   H15 8423   6.807   0.912   0.697  0.2848  1.8523 -0.5771
   20CHTO    O6 8424   6.812   1.004   0.886  0.3168  0.0073  0.1036
   20CHTO    H1 8425   6.825   1.094   0.863  1.8962  0.1580  1.5031
   20CHTO    C3 8426   6.700   0.781   0.860 -0.4751 -0.2391  0.1106
   20CHTO   H16 8427   6.630   0.813   0.938  1.9324 -1.2706  2.8040
   20CHTO    N1 8428   6.811   0.700   0.918 -0.4498  0.1920 -0.3134
   20CHTO    H8 8429   6.886   0.688   0.842 -0.1306 -0.4579  0.0990
   20CHTO    H9 8430   6.852   0.752   1.004  0.6810 -1.9808  0.5098
   20CHTO    C4 8431   6.615   0.697   0.757 -0.7000 -0.8165  0.6129
   20CHTO   H17 8432   6.685   0.662   0.682 -0.9067 -0.0048  0.0340
   20CHTO    O1 8433   6.510   0.775   0.696 -1.2082  0.0999  0.7007
   20CHTO    C5 8434   6.551   0.896   0.635 -0.0958 -0.2672  0.3530
   20CHTO   H18 8435   6.617   0.876   0.551 -0.8239  1.1030 -0.5522
   20CHTO   C16 8436   6.432   0.979   0.582  0.1097  0.0306  0.2127
   20CHTO   O11 8437   6.357   0.900   0.492  0.7486 -0.1154  0.3095
   20CHTO    H5 8438   6.307   0.957   0.436 -0.3005 -2.1030 -0.8599
   20CHTO    O3 8439   6.559   0.572   0.798 -0.0565  0.3738  0.0243
   20CHTO    C6 8440   6.505   0.474   0.707 -0.1069 -0.1084  0.3122
   20CHTO   H19 8441   6.490   0.521   0.610  1.2382  1.9991  1.1054
   20CHTO    C8 8442   6.604   0.359   0.688  0.6537  0.0415 -0.4096
   20CHTO   H21 8443   6.623   0.315   0.786 -0.1467  0.7453  0.0671
   20CHTO    O7 8444   6.726   0.417   0.633 -0.2070 -0.4034 -0.1704
   20CHTO    H2 8445   6.802   0.374   0.666 -0.7421 -1.1451  0.1074
   20CHTO   C12 8446   6.532   0.251   0.592  0.0173 -0.0280  0.2391
   20CHTO   H25 8447   6.519   0.307   0.497 -0.4410 -0.1050  0.2543
   20CHTO    N3 8448   6.613   0.132   0.572 -0.0366 -0.2915  0.8681
   20CHTO   H12 8449   6.625   0.139   0.465  0.9436  4.3198  1.1737
   20CHTO   H13 8450   6.706   0.139   0.627  0.6933 -2.1782 -0.0871
   20CHTO   C15 8451   6.392   0.219   0.644 -0.1100 -0.6564  0.2187
   20CHTO   H28 8452   6.388   0.178   0.745 -2.0230 -0.3659  0.2809
   20CHTO   O10 8453   6.284   0.113   0.547 -0.4053  0.2426 -0.3225
   20CHTO    H4 8454   6.332   0.037   0.518 -0.8875 -0.7774  1.4634
   20CHTO    O5 8455   6.321   0.341   0.643 -0.1053 -0.4433 -0.8807
   20CHTO   C10 8456   6.361   0.428   0.748  0.2424  0.4990  0.3926
   20CHTO   H23 8457   6.364   0.378   0.844 -1.1680 -1.3350 -0.4813
   20CHTO   C17 8458   6.270   0.552   0.776 -0.2915 -0.2221  0.3722
   20CHTO   O12 8459   6.159   0.525   0.854  0.0783 -0.3830 -0.1562
   20CHTO    H6 8460   6.103   0.601   0.852  0.3393 -0.1627  0.7895
   21GLOH   H03 8461   3.227   0.841   1.573  2.6356 -1.4771 -0.1059
   21GLOH    O1 8462   3.207   0.841   1.477  0.4788 -0.7952  0.3162
   21GLOH    C1 8463   3.330   0.896   1.422 -0.2984  0.1436  0.5461
   21GLOH   H02 8464   3.406   0.819   1.435  0.4756  1.0406  1.3670
   21GLOH   H08 8465   3.363   0.983   1.478 -1.0029  0.2833  0.7430
   21GLOH    C2 8466   3.301   0.923   1.272 -0.8915  0.8835  0.1088
   21GLOH   H04 8467   3.273   0.827   1.226  2.1403 -0.7278  1.4271
   21GLOH    O2 8468   3.196   1.020   1.249 -0.0988 -0.0317  0.2836
   21GLOH   H05 8469   3.159   1.006   1.161 -2.4474  0.1207  1.2179
   21GLOH    C3 8470   3.428   0.964   1.196 -0.6674 -0.0556 -0.4760
   21GLOH   H06 8471   3.405   0.979   1.091  0.5050  2.1523 -0.4490
   21GLOH   H07 8472   3.500   0.882   1.198 -0.5377  0.0567 -0.5648
   21GLOH    O3 8473   3.496   1.077   1.255 -0.1218 -0.4783  0.2732
   21GLOH   H01 8474   3.494   1.157   1.199 -2.6495 -2.8964 -3.2443
   22GLOH   H03 8475   4.053  -0.034   0.358 -3.1719 -1.1172  0.5816
   22GLOH    O1 8476   4.073  -0.082   0.440 -0.0885 -0.3061  0.3607
   22GLOH    C1 8477   3.949  -0.125   0.488 -0.3042 -0.0310 -0.2747
   22GLOH   H02 8478   3.971  -0.195   0.569  0.9337  1.7525  0.9679
   22GLOH   H08 8479   3.891  -0.176   0.411 -2.3741  1.1106  0.4955
   22GLOH    C2 8480   3.865  -0.018   0.562  0.0784 -0.0789 -0.4116
   22GLOH   H04 8481   3.845   0.072   0.502 -0.3264  0.3036  0.2909
   22GLOH    O2 8482   3.741  -0.083   0.589 -0.1446  0.6754 -0.7533
   22GLOH   H05 8483   3.681  -0.074   0.513 -4.3439 -2.2646  1.9825
   22GLOH    C3 8484   3.931   0.023   0.695 -1.3779 -0.7963  0.5127
   22GLOH   H06 8485   3.898  -0.051   0.767  0.7819 -2.0917  0.2269
   22GLOH   H07 8486   3.886   0.115   0.733  2.1904  1.8172 -1.1949
   22GLOH    O3 8487   4.078   0.030   0.687  0.4200  0.2018  0.2799
   22GLOH   H01 8488   4.104  -0.015   0.604 -0.0666 -0.8666  0.7030
   23GLOH   H03 8489   4.010   9.359   1.885  1.1968 -0.7404  1.4521
   23GLOH    O1 8490   3.955   9.388   1.960  0.0322  0.2550  0.2576
   23GLOH    C1 8491   3.885   9.504   1.927  0.5849  0.0146  0.3050
   23GLOH   H02 8492   3.791   9.475   1.879  0.6290 -0.3076  0.4097
   23GLOH   H08 8493   3.935   9.563   1.850  1.3198 -1.6341 -0.5255
   23GLOH    C2 8494   3.835   9.603   2.041  0.0604  0.6203  0.6624
   23GLOH   H04 8495   3.927   9.649   2.082 -0.8469  2.5304  0.6312
   23GLOH    O2 8496   3.752   9.712   2.002  0.0918 -0.3677  0.3417
   23GLOH   H05 8497   3.686   9.682   1.937  0.9761 -1.0780 -0.2373
   23GLOH    C3 8498   3.771   9.528   2.155 -0.4111  0.1740 -0.5650
   23GLOH   H06 8499   3.680   9.485   2.113 -1.0835  2.5852 -1.6529
   23GLOH   H07 8500   3.737   9.600   2.229  1.1935 -1.9431  2.3178
   23GLOH    O3 8501   3.852   9.425   2.202 -0.1906 -0.2122  0.2952
   23GLOH   H01 8502   3.913   9.406   2.128  1.0228  0.6435  1.0617
   24GLOH   H03 8503   4.254   0.385   0.480 -0.5164 -0.2814  0.5497
   24GLOH    O1 8504   4.351   0.381   0.494 -0.4695  0.2965  0.4024
   24GLOH    C1 8505   4.380   0.249   0.548  0.8581 -0.2763 -0.3032
   24GLOH   H02 8506   4.482   0.221   0.520  1.6384  1.7864  0.3008
   24GLOH   H08 8507   4.313   0.176   0.504  1.3996  0.9550 -3.3190
   24GLOH    C2 8508   4.373   0.240   0.701 -0.4498 -0.3760  0.4041
   24GLOH   H04 8509   4.347   0.135   0.721  1.6293 -0.8736  0.6229
   24GLOH    O2 8510   4.500   0.280   0.768 -0.3855  0.2906  0.0578
   24GLOH   H05 8511   4.507   0.377   0.774  0.3888  0.0866  3.2330
   24GLOH    C3 8512   4.253   0.310   0.767 -0.5887  0.3342  0.6855
   24GLOH   H06 8513   4.278   0.416   0.763  0.7428 -0.0149 -1.0705
   24GLOH   H07 8514   4.248   0.282   0.872  0.7089 -0.8704  0.4384
   24GLOH    O3 8515   4.128   0.292   0.699 -0.1424  0.1577 -0.2138
   24GLOH   H01 8516   4.114   0.195   0.695  1.0149 -0.2001  3.0545
   25GLOH   H03 8517   3.593   2.075   2.357  0.8119  2.0308 -0.5433
   25GLOH    O1 8518   3.516   2.111   2.405 -0.2244  0.5337 -1.0565
   25GLOH    C1 8519   3.541   2.101   2.549  0.3576 -0.3535  0.6852
   25GLOH   H02 8520   3.463   2.149   2.610 -0.2586 -1.0145  0.4257
   25GLOH   H08 8521   3.635   2.146   2.579  1.2501 -2.2056  0.7451
   25GLOH    C2 8522   3.560   1.958   2.610 -0.1973 -0.5976  0.8948
   25GLOH   H04 8523   3.639   1.907   2.553 -0.4519 -1.7596  1.5736
   25GLOH    O2 8524   3.600   1.966   2.748  0.0791  0.3797 -0.3889
   25GLOH   H05 8525   3.697   1.965   2.755 -0.0888 -0.4462  2.3944
   25GLOH    C3 8526   3.435   1.881   2.601  0.5647 -0.0014 -0.3472
   25GLOH   H06 8527   3.404   1.896   2.497 -0.3221 -0.9034 -0.2138
   25GLOH   H07 8528   3.357   1.917   2.668  1.9246 -0.7423  1.6633
   25GLOH    O3 8529   3.456   1.742   2.624  0.1031  0.0749  0.1528
   25GLOH   H01 8530   3.550   1.727   2.646 -0.3616 -2.7292  0.4214
   26GLOH   H03 8531   4.443   1.479   0.471 -0.7251 -1.6728 -2.1135
   26GLOH    O1 8532   4.441   1.567   0.427  0.1942 -0.6681 -0.2080
   26GLOH    C1 8533   4.338   1.641   0.493 -0.4527  0.1764  0.1822
   26GLOH   H02 8534   4.379   1.685   0.583  1.3984 -0.2992 -0.3964
   26GLOH   H08 8535   4.254   1.577   0.519  0.3972 -0.8845  0.3583
   26GLOH    C2 8536   4.283   1.756   0.404  0.6410  0.4326  0.1604
   26GLOH   H04 8537   4.362   1.781   0.332 -0.2278 -0.8698 -1.2687
   26GLOH    O2 8538   4.167   1.704   0.324 -0.0331 -0.5159  0.2044
   26GLOH   H05 8539   4.083   1.730   0.365  0.4697  0.2433  0.7694
   26GLOH    C3 8540   4.248   1.880   0.485  0.4332  0.5449  0.1938
   26GLOH   H06 8541   4.202   1.947   0.412 -1.8508 -0.7680  0.3622
   26GLOH   H07 8542   4.344   1.922   0.512  1.6111 -1.2196 -1.1645
   26GLOH    O3 8543   4.155   1.847   0.588  0.0396  0.0648  0.8626
   26GLOH   H01 8544   4.083   1.912   0.572  0.0365 -0.0258  0.5069
   27GLOH   H03 8545   2.665   0.164   1.231  0.4093  1.9782 -0.5919
   27GLOH    O1 8546   2.740   0.175   1.293  0.2188 -0.5821  0.1380
   27GLOH    C1 8547   2.809   0.294   1.247 -0.1386  0.0874 -0.1535
   27GLOH   H02 8548   2.830   0.302   1.141  0.2067 -1.1628 -0.1834
   27GLOH   H08 8549   2.902   0.296   1.303 -0.3473  0.9664  0.1803
   27GLOH    C2 8550   2.739   0.423   1.286  0.4674  0.3853 -0.2669
   27GLOH   H04 8551   2.634   0.427   1.256  0.2229  1.9026  0.7479
   27GLOH    O2 8552   2.741   0.428   1.428 -0.5388  0.2060  0.3102
   27GLOH   H05 8553   2.686   0.355   1.463 -0.7292  0.2036  0.0126
   27GLOH    C3 8554   2.812   0.549   1.230 -0.0937  0.1796 -0.0979
   27GLOH   H06 8555   2.916   0.560   1.261 -0.2676  2.9872 -0.3407
   27GLOH   H07 8556   2.768   0.646   1.256  2.9555  1.2104  1.4839
   27GLOH    O3 8557   2.817   0.545   1.087  0.6287 -0.1541 -0.3103
   27GLOH   H01 8558   2.906   0.513   1.063  2.5465  3.3114  1.7708
   28GLOH   H03 8559   4.790   1.215   1.026 -0.6142  0.0350  0.0643
   28GLOH    O1 8560   4.745   1.193   1.109 -0.7768 -0.0242 -0.0388
   28GLOH    C1 8561   4.670   1.075   1.074  0.4089  0.5968  0.1681
   28GLOH   H02 8562   4.738   1.000   1.034  0.1648  0.9633 -0.9513
   28GLOH   H08 8563   4.599   1.089   0.992  0.2893  0.8152  0.3074
   28GLOH    C2 8564   4.589   1.020   1.190 -0.2046 -0.0976 -0.7516
   28GLOH   H04 8565   4.509   1.095   1.198 -1.1609 -1.0023 -1.6908
   28GLOH    O2 8566   4.545   0.886   1.159 -0.3559  0.5552  0.0150
   28GLOH   H05 8567   4.623   0.838   1.123 -1.1597  0.4316 -1.6013
   28GLOH    C3 8568   4.667   1.021   1.330 -0.4335  0.1121  1.0457
   28GLOH   H06 8569   4.753   0.954   1.318  0.6435  1.6183  0.1962
   28GLOH   H07 8570   4.595   0.979   1.401 -0.1694 -0.3885  1.0234
   28GLOH    O3 8571   4.718   1.149   1.357 -0.2573 -0.2648 -0.1090
   28GLOH   H01 8572   4.730   1.196   1.273  0.4721 -1.6497 -0.8066
   29GLOH   H03 8573   4.191   1.037   1.822 -2.8310  0.3466 -1.8184
   29GLOH    O1 8574   4.245   1.055   1.743 -0.0703 -0.3072 -0.1477
   29GLOH    C1 8575   4.167   1.149   1.666  0.0610  0.3118 -0.1606
   29GLOH   H02 8576   4.180   1.242   1.721  0.2885 -0.9981  2.0567
   29GLOH   H08 8577   4.064   1.115   1.680 -0.4100  1.1708 -1.5004
   29GLOH    C2 8578   4.210   1.170   1.526 -0.4693 -0.0378 -0.2167
   29GLOH   H04 8579   4.207   1.079   1.465 -0.9365  0.1957 -0.5548
   29GLOH    O2 8580   4.123   1.271   1.467 -0.0669  0.2320  0.8260
   29GLOH   H05 8581   4.141   1.357   1.508  1.5629  0.8675 -1.1707
   29GLOH    C3 8582   4.357   1.214   1.530  0.9669 -0.0657 -0.0326
   29GLOH   H06 8583   4.411   1.143   1.592  0.8553  2.3578  2.9665
   29GLOH   H07 8584   4.373   1.308   1.584  0.2652 -0.2883  0.5808
   29GLOH    O3 8585   4.411   1.231   1.395 -0.2193  0.3646 -0.2377
   29GLOH   H01 8586   4.499   1.271   1.408  0.7619 -1.8874  0.2920
   30GLOH   H03 8587   3.200  -0.043   2.221  0.3247 -0.4838 -4.3338
   30GLOH    O1 8588   3.287  -0.001   2.232 -0.1913 -0.2396 -0.1959
   30GLOH    C1 8589   3.270   0.140   2.227 -0.3559 -0.4777  0.2507
   30GLOH   H02 8590   3.277   0.165   2.121 -0.1840  0.7882  0.5611
   30GLOH   H08 8591   3.345   0.191   2.288 -0.4893 -1.3622  1.1657
   30GLOH    C2 8592   3.136   0.187   2.288 -0.2572  0.4121  0.5044
   30GLOH   H04 8593   3.136   0.297   2.277 -0.2422  0.3172 -0.5102
   30GLOH    O2 8594   3.030   0.129   2.211  0.2380 -0.2867 -0.4064
   30GLOH   H05 8595   3.029   0.166   2.121 -0.3820  0.3847 -0.1291
   30GLOH    C3 8596   3.131   0.141   2.436  0.5854  0.0060 -0.0049
   30GLOH   H06 8597   3.143   0.033   2.445  0.3395 -0.0832 -0.7220
   30GLOH   H07 8598   3.032   0.174   2.467  0.0569  0.4736 -2.1387
   30GLOH    O3 8599   3.226   0.204   2.529  0.5493  0.3892  0.1486
   30GLOH   H01 8600   3.193   0.295   2.541  0.1811  0.1320  1.0916
   31GLOH   H03 8601   4.331   1.815   1.216 -0.0829 -1.0453 -2.2794
   31GLOH    O1 8602   4.291   1.897   1.181 -0.2221 -0.2713 -0.3730
   31GLOH    C1 8603   4.256   1.880   1.042 -0.1692 -0.0133 -0.7736
   31GLOH   H02 8604   4.345   1.861   0.982  0.8050  1.7222  0.0759
   31GLOH   H08 8605   4.209   1.970   1.000 -0.2233 -0.1315 -0.9666
   31GLOH    C2 8606   4.157   1.763   1.024 -0.1779  0.0275  0.7091
   31GLOH   H04 8607   4.219   1.676   1.051  2.0564  1.8605  1.7155
   31GLOH    O2 8608   4.039   1.780   1.112 -0.3313  0.0993  0.4023
   31GLOH   H05 8609   4.053   1.746   1.202 -3.8135  0.3850  1.1212
   31GLOH    C3 8610   4.122   1.750   0.876 -0.2160  0.1637 -0.2499
   31GLOH   H06 8611   4.053   1.828   0.844 -0.8989 -0.6063 -0.6717
   31GLOH   H07 8612   4.075   1.655   0.854  4.1189 -1.5552 -2.7654
   31GLOH    O3 8613   4.240   1.753   0.792 -0.1404 -0.3230 -0.4646
   31GLOH   H01 8614   4.208   1.801   0.713  0.9341  1.0591 -0.0742
   32GLOH   H03 8615   2.687   2.058   0.584 -1.0117  1.7277  0.5444
   32GLOH    O1 8616   2.610   1.998   0.584 -0.1470  0.5962  0.1017
   32GLOH    C1 8617   2.582   1.967   0.724  0.2814 -0.4990  0.2148
   32GLOH   H02 8618   2.558   2.053   0.786  3.1330  1.3175 -1.0887
   32GLOH   H08 8619   2.672   1.923   0.768  2.3311  0.7543 -2.5409
   32GLOH    C2 8620   2.475   1.864   0.761  0.0950  0.1962  0.6570
   32GLOH   H04 8621   2.518   1.767   0.734 -1.5645 -0.7526  1.3245
   32GLOH    O2 8622   2.455   1.862   0.905  0.1663 -0.1730  0.0793
   32GLOH   H05 8623   2.427   1.773   0.934  0.9755 -0.9582 -1.4735
   32GLOH    C3 8624   2.355   1.899   0.677 -0.2113 -0.5427  0.3155
   32GLOH   H06 8625   2.325   1.999   0.709  2.6065  1.1052 -1.8685
   32GLOH   H07 8626   2.277   1.826   0.696 -1.5361  0.3949 -1.3193
   32GLOH    O3 8627   2.381   1.897   0.540 -0.1629 -0.3948  0.1574
   32GLOH   H01 8628   2.470   1.934   0.523 -0.1054 -0.3040  0.6310
   33GLOH   H03 8629   4.157   0.540   0.453 -1.4492 -1.4695  2.7837
   33GLOH    O1 8630   4.173   0.628   0.491  0.0029 -0.4299 -0.0985
   33GLOH    C1 8631   4.213   0.708   0.383 -0.0243 -0.6901 -0.7902
   33GLOH   H02 8632   4.209   0.815   0.403  1.0420 -0.7885 -0.0361
   33GLOH   H08 8633   4.153   0.697   0.292 -0.0742  0.1869 -0.8741
   33GLOH    C2 8634   4.353   0.668   0.338  0.1407  1.2757 -0.1486
   33GLOH   H04 8635   4.350   0.558   0.336  0.0895  1.2676  0.2493
   33GLOH    O2 8636   4.379   0.722   0.209 -0.4044 -0.2220 -0.0955
   33GLOH   H05 8637   4.417   0.809   0.230 -2.1617  0.5453  0.0136
   33GLOH    C3 8638   4.452   0.709   0.452 -0.1765 -0.2771  0.5068
   33GLOH   H06 8639   4.407   0.797   0.497 -1.3937 -0.3713 -0.5078
   33GLOH   H07 8640   4.541   0.754   0.408 -1.1649  0.6777 -0.5509
   33GLOH    O3 8641   4.476   0.608   0.547  0.4036 -0.4857 -0.2656
   33GLOH   H01 8642   4.443   0.524   0.509  1.7881 -0.7735 -0.8792
   34GLOH   H03 8643   4.241   2.038   1.234 -1.4896 -0.3519 -1.4829
   34GLOH    O1 8644   4.184   2.097   1.286 -0.2365  0.2166 -0.7129
   34GLOH    C1 8645   4.051   2.054   1.303  0.5261  0.1074  0.1887
   34GLOH   H02 8646   4.024   2.012   1.400 -0.1174 -2.0973 -0.8918
   34GLOH   H08 8647   4.017   1.973   1.238 -2.0899 -0.5689  2.3385
   34GLOH    C2 8648   3.965   2.172   1.277 -0.0072  0.1895  0.1464
   34GLOH   H04 8649   4.001   2.212   1.181  0.2736  1.3184  0.7176
   34GLOH    O2 8650   3.827   2.124   1.265  0.1854  0.1799  0.2790
   34GLOH   H05 8651   3.814   2.039   1.219 -3.7298  0.6633  0.2859
   34GLOH    C3 8652   3.981   2.274   1.391 -0.1019  0.3169  0.1220
   34GLOH   H06 8653   3.950   2.231   1.486 -0.0012 -0.5284 -0.2246
   34GLOH   H07 8654   3.913   2.357   1.374  0.0936  0.4835  0.1605
   34GLOH    O3 8655   4.113   2.330   1.395 -0.1497  0.5802  0.0258
   34GLOH   H01 8656   4.172   2.263   1.355  0.0828  1.3285 -0.8922
   35GLOH   H03 8657   3.372   2.246   1.639 -1.4471 -0.1998  0.1175
   35GLOH    O1 8658   3.348   2.172   1.698 -0.1360 -0.5261  0.2529
   35GLOH    C1 8659   3.467   2.092   1.710 -0.1766  0.7700  0.3295
   35GLOH   H02 8660   3.544   2.160   1.745  1.0608 -0.0811 -0.6820
   35GLOH   H08 8661   3.490   2.052   1.611 -0.8398  1.0494  0.0626
   35GLOH    C2 8662   3.470   1.971   1.802 -0.4401  0.3733 -0.3183
   35GLOH   H04 8663   3.558   1.911   1.778 -1.1404 -0.7910 -0.0156
   35GLOH    O2 8664   3.484   2.011   1.940 -0.3652  0.0613 -0.2150
   35GLOH   H05 8665   3.488   2.108   1.947  1.5458 -0.1126  1.3199
   35GLOH    C3 8666   3.340   1.891   1.784 -0.8316  0.7737 -0.2451
   35GLOH   H06 8667   3.262   1.959   1.818 -0.0650  0.4702  2.2681
   35GLOH   H07 8668   3.339   1.803   1.848  1.7095 -0.0518 -1.2882
   35GLOH    O3 8669   3.315   1.849   1.647 -0.3901  0.2087  0.7261
   35GLOH   H01 8670   3.247   1.780   1.651  0.2522 -0.5117 -0.2846
   36GLOH   H03 8671   4.397   2.403   2.243  0.8262  1.9442  1.0464
   36GLOH    O1 8672   4.317   2.395   2.299 -0.2185  0.3565 -0.6274
   36GLOH    C1 8673   4.219   2.471   2.231  0.2330  0.5111 -0.1261
   36GLOH   H02 8674   4.198   2.420   2.137  2.4449 -0.1384 -0.2998
   36GLOH   H08 8675   4.261   2.567   2.200  1.7428  0.4334  1.5830
   36GLOH    C2 8676   4.080   2.488   2.299 -0.2092  0.4524 -0.0050
   36GLOH   H04 8677   4.102   2.533   2.398  0.0066 -0.3948  0.3348
   36GLOH    O2 8678   4.006   2.582   2.215  0.1902 -0.3071 -0.4723
   36GLOH   H05 8679   3.964   2.554   2.132  1.1604 -0.5182 -0.9003
   36GLOH    C3 8680   4.004   2.363   2.331 -0.2706  0.6537 -0.7293
   36GLOH   H06 8681   3.970   2.311   2.241 -1.1771  3.9494 -2.3488
   36GLOH   H07 8682   3.906   2.383   2.375  0.2772 -1.1502  1.4109
   36GLOH    O3 8683   4.076   2.263   2.410 -0.3949 -0.5420 -0.0906
   36GLOH   H01 8684   4.172   2.283   2.412  0.1158 -2.8937  2.0065
   37GLOH   H03 8685   3.653   0.890   0.245  1.0957 -0.5171  0.9004
   37GLOH    O1 8686   3.590   0.822   0.277  0.0406  0.0059 -0.0198
   37GLOH    C1 8687   3.632   0.806   0.412  0.1068  0.3476 -0.0867
   37GLOH   H02 8688   3.573   0.730   0.464  1.1211  0.8093  1.7535
   37GLOH   H08 8689   3.609   0.900   0.463 -1.0994 -1.0800  2.0953
   37GLOH    C2 8690   3.777   0.760   0.420 -0.5682 -0.4635  0.1354
   37GLOH   H04 8691   3.831   0.844   0.373 -0.5267 -2.7617 -4.1539
   37GLOH    O2 8692   3.816   0.753   0.559  0.1456  0.0202  0.1401
   37GLOH   H05 8693   3.837   0.845   0.580 -0.4421  0.4408 -1.0918
   37GLOH    C3 8694   3.812   0.634   0.342 -1.0371  0.2421  0.2342
   37GLOH   H06 8695   3.765   0.556   0.400  0.1191 -0.6696 -0.0311
   37GLOH   H07 8696   3.921   0.621   0.343 -1.1832 -0.9641  0.8793
   37GLOH    O3 8697   3.772   0.632   0.206  0.0062 -0.9955 -0.0168
   37GLOH   H01 8698   3.686   0.677   0.202  0.7424  0.4275 -0.4962
   38GLOH   H03 8699   3.625   1.425   2.121 -0.7410 -1.2200 -0.7525
   38GLOH    O1 8700   3.665   1.367   2.188 -0.2131  0.5262  0.4854
   38GLOH    C1 8701   3.666   1.229   2.154 -0.2958  0.2973  0.0487
   38GLOH   H02 8702   3.731   1.167   2.216 -1.5404  0.3444  1.4143
   38GLOH   H08 8703   3.690   1.209   2.049 -0.4571 -0.3709  0.1346
   38GLOH    C2 8704   3.518   1.183   2.170 -0.0532 -0.1706  0.2697
   38GLOH   H04 8705   3.487   1.217   2.270  1.0220 -1.3939  1.0384
   38GLOH    O2 8706   3.427   1.241   2.072 -1.0443  0.2091  0.4207
   38GLOH   H05 8707   3.345   1.275   2.111 -2.5470 -0.0102 -2.4092
   38GLOH    C3 8708   3.510   1.029   2.170 -0.1073  0.1026 -0.5987
   38GLOH   H06 8709   3.563   0.996   2.080  0.5912  2.5723 -1.1378
   38GLOH   H07 8710   3.407   0.996   2.154 -0.3656 -0.0555  1.2816
   38GLOH    O3 8711   3.568   0.967   2.290  0.3544 -0.4356 -0.2550
   38GLOH   H01 8712   3.504   0.972   2.363  0.8079 -2.0426  0.2900
   39GLOH   H03 8713   4.348   0.514   1.299  0.9102  0.1551  1.5942
   39GLOH    O1 8714   4.374   0.420   1.299  0.2188 -0.0410  0.0897
   39GLOH    C1 8715   4.493   0.387   1.223  0.5046  0.1072  0.3666
   39GLOH   H02 8716   4.549   0.315   1.282  1.4693  0.1103 -0.5233
   39GLOH   H08 8717   4.562   0.471   1.208  1.1546 -0.4853  0.0294
   39GLOH    C2 8718   4.463   0.312   1.096 -0.2321  0.3082 -0.1326
   39GLOH   H04 8719   4.392   0.365   1.031 -0.3236 -0.9025 -1.0299
   39GLOH    O2 8720   4.583   0.294   1.022  0.0047 -0.1653 -0.0762
   39GLOH   H05 8721   4.571   0.268   0.929  1.7634 -0.0804 -0.3586
   39GLOH    C3 8722   4.412   0.172   1.133  0.4823 -0.0717 -0.1098
   39GLOH   H06 8723   4.497   0.123   1.179  1.2676  1.1804 -0.2109
   39GLOH   H07 8724   4.388   0.116   1.043  0.5186 -1.4608  0.7317
   39GLOH    O3 8725   4.293   0.187   1.218  0.1110 -0.2112 -0.2015
   39GLOH   H01 8726   4.301   0.277   1.253  0.2224 -0.7445  1.1448
   40GLOH   H03 8727   3.578   0.061   0.904 -0.3851 -1.4438  0.0235
   40GLOH    O1 8728   3.542   0.123   0.970  0.1323 -1.1401  0.0227
   40GLOH    C1 8729   3.560   0.061   1.096 -0.3474  0.1217 -0.7058
   40GLOH   H02 8730   3.461   0.027   1.126 -0.3558 -0.3297 -1.2342
   40GLOH   H08 8731   3.584   0.139   1.167  1.1076  1.1654 -2.3187
   40GLOH    C2 8732   3.659  -0.056   1.086 -0.2215 -0.3138  0.2742
   40GLOH   H04 8733   3.762  -0.026   1.062 -0.5389  0.6772  0.1321
   40GLOH    O2 8734   3.662  -0.118   1.210  0.4957  0.2398  0.1306
   40GLOH   H05 8735   3.757  -0.133   1.228  0.7633  1.5018 -0.1883
   40GLOH    C3 8736   3.610  -0.162   0.987 -0.3708 -0.5243  0.8374
   40GLOH   H06 8737   3.506  -0.194   0.996 -0.4796 -0.8709 -1.3910
   40GLOH   H07 8738   3.671  -0.252   0.998  0.3002 -0.0056  1.3927
   40GLOH    O3 8739   3.637  -0.117   0.854  0.0937  0.3377 -0.4447
   40GLOH   H01 8740   3.608  -0.181   0.787  0.2646  0.0789 -0.2688
   41GLOH   H03 8741   2.545   0.329   1.608 -0.2403  1.1715 -1.9370
   41GLOH    O1 8742   2.597   0.264   1.557  0.1420 -0.1007  0.0107
   41GLOH    C1 8743   2.691   0.185   1.630 -0.0027 -0.7322  0.1896
   41GLOH   H02 8744   2.697   0.227   1.731 -0.7758  0.9381 -0.4451
   41GLOH   H08 8745   2.789   0.198   1.584 -1.0682  0.8159 -1.6872
   41GLOH    C2 8746   2.650   0.035   1.642 -0.0692 -0.1674 -0.4280
   41GLOH   H04 8747   2.736  -0.011   1.694  0.2817  0.6043 -0.3167
   41GLOH    O2 8748   2.519   0.017   1.699 -0.0560  0.0799  0.2204
   41GLOH   H05 8749   2.525  -0.037   1.779 -1.7719  0.3078  0.5263
   41GLOH    C3 8750   2.644  -0.046   1.504  0.5262 -0.3949 -0.3226
   41GLOH   H06 8751   2.558  -0.010   1.447  0.5197 -1.0412 -0.7202
   41GLOH   H07 8752   2.631  -0.153   1.515  1.4244 -0.8436 -3.2758
   41GLOH    O3 8753   2.764  -0.022   1.435 -0.4276 -0.0003 -0.0702
   41GLOH   H01 8754   2.758   0.057   1.379 -0.9092  0.8132  1.0975
   42GLOH   H03 8755   3.407   1.769   0.687 -0.6550 -0.4940  0.2767
   42GLOH    O1 8756   3.348   1.846   0.694 -0.1076 -0.0244 -0.2507
   42GLOH    C1 8757   3.345   1.896   0.833  1.1044 -0.6362 -1.0293
   42GLOH   H02 8758   3.306   1.998   0.832 -0.2162 -1.1194  0.0386
   42GLOH   H08 8759   3.445   1.894   0.875 -0.1243  2.2829  2.2083
   42GLOH    C2 8760   3.245   1.819   0.925  0.9751  0.1499  0.4211
   42GLOH   H04 8761   3.150   1.808   0.871  0.4262  1.9114  0.9697
   42GLOH    O2 8762   3.301   1.686   0.952  0.5348 -0.8460  0.1198
   42GLOH   H05 8763   3.273   1.627   0.880 -0.7581 -1.1062  0.8126
   42GLOH    C3 8764   3.219   1.889   1.059  0.2379  0.1756  0.7325
   42GLOH   H06 8765   3.316   1.899   1.109  0.0096 -0.9240  1.4009
   42GLOH   H07 8766   3.153   1.829   1.122  0.2928 -0.5550  0.0937
   42GLOH    O3 8767   3.165   2.017   1.032  0.1533  0.3476  0.6769
   42GLOH   H01 8768   3.076   2.003   0.994 -0.4784  1.2037  1.8109
   43GLOH   H03 8769   3.145   9.141   0.477 -2.8053 -1.5039 -0.3670
   43GLOH    O1 8770   3.190   9.056   0.459  0.0959 -0.1201  0.0900
   43GLOH    C1 8771   3.230   8.987   0.572  0.0968  1.0316 -0.7312
   43GLOH   H02 8772   3.258   8.883   0.556  1.0391  1.4768 -2.1339
   43GLOH   H08 8773   3.141   8.993   0.634 -0.0216 -0.9799 -0.6570
   43GLOH    C2 8774   3.345   9.057   0.640 -0.1529 -0.0858  0.7853
   43GLOH   H04 8775   3.316   9.162   0.660  0.8625  0.3035  0.2417
   43GLOH    O2 8776   3.390   9.006   0.769  0.1688 -0.1541  0.3769
   43GLOH   H05 8777   3.401   9.083   0.826  2.2431 -0.3711  0.3109
   43GLOH    C3 8778   3.462   9.056   0.540  0.1410  0.5796  0.3376
   43GLOH   H06 8779   3.495   8.952   0.528 -1.0880  0.0614  1.3407
   43GLOH   H07 8780   3.546   9.112   0.581 -0.5990  0.9920  1.2933
   43GLOH    O3 8781   3.442   9.112   0.406  0.6590  0.3097 -0.3761
   43GLOH   H01 8782   3.352   9.084   0.381  1.1408 -2.2456  0.5956
   44GLOH   H03 8783   3.753   1.487   2.265 -1.7171 -0.8874  2.4523
   44GLOH    O1 8784   3.760   1.578   2.298 -0.6708 -0.0739  0.0941
   44GLOH    C1 8785   3.634   1.591   2.371  0.6840 -0.9231  0.4992
   44GLOH   H02 8786   3.543   1.581   2.311  1.9430  0.6856 -1.7975
   44GLOH   H08 8787   3.624   1.694   2.407 -1.1581 -1.2882  1.0897
   44GLOH    C2 8788   3.624   1.494   2.493 -0.5644  0.5874 -0.4347
   44GLOH   H04 8789   3.528   1.508   2.545 -1.2302 -0.4963 -1.3523
   44GLOH    O2 8790   3.652   1.355   2.461 -0.0547  0.0435  0.2936
   44GLOH   H05 8791   3.598   1.342   2.382 -0.4974  1.3670  0.3547
   44GLOH    C3 8792   3.722   1.535   2.601  0.0804  0.5386  0.4115
   44GLOH   H06 8793   3.821   1.532   2.555 -0.4288 -1.9333 -0.6082
   44GLOH   H07 8794   3.722   1.453   2.674 -0.1618  1.1933  1.1576
   44GLOH    O3 8795   3.693   1.661   2.671 -0.0426 -0.1183 -0.2539
   44GLOH   H01 8796   3.744   1.670   2.754  0.1962  2.4235 -0.6249
   45GLOH   H03 8797   3.804   1.276   2.449 -0.3655 -0.8001  0.1652
   45GLOH    O1 8798   3.895   1.248   2.470 -0.0432 -0.0418 -0.2255
   45GLOH    C1 8799   4.000   1.340   2.501  0.0065  0.6055 -0.5042
   45GLOH   H02 8800   3.985   1.382   2.600  0.1684  0.2192 -0.3144
   45GLOH   H08 8801   4.003   1.413   2.420  2.9841  1.6823  0.5303
   45GLOH    C2 8802   4.141   1.275   2.508  0.2309 -0.0499 -0.2432
   45GLOH   H04 8803   4.128   1.184   2.570  0.2510  0.4659  0.5290
   45GLOH    O2 8804   4.188   1.242   2.377 -0.3502 -0.4938 -0.2411
   45GLOH   H05 8805   4.207   1.147   2.383  2.5806  0.0233 -0.6765
   45GLOH    C3 8806   4.239   1.366   2.582 -0.0839  0.4471  0.0325
   45GLOH   H06 8807   4.201   1.466   2.562 -2.8745 -0.6849 -0.5265
   45GLOH   H07 8808   4.337   1.353   2.537 -0.2561 -0.6277 -0.0410
   45GLOH    O3 8809   4.237   1.345   2.724 -0.2938 -0.1124  0.4915
   45GLOH   H01 8810   4.298   1.269   2.732  0.9973  0.8690  0.2445
   46GLOH   H03 8811   3.990   8.851   1.115  1.9344 -0.8900 -1.0251
   46GLOH    O1 8812   4.028   8.941   1.119  0.1781 -0.1664 -0.2003
   46GLOH    C1 8813   3.943   9.021   1.042  0.6785  0.4131 -0.3887
   46GLOH   H02 8814   3.837   9.004   1.061  1.3607 -0.5420  2.8955
   46GLOH   H08 8815   3.965   9.003   0.937 -1.7911 -3.2788 -0.3560
   46GLOH    C2 8816   3.963   9.171   1.066  1.3407 -0.6290  0.3779
   46GLOH   H04 8817   4.070   9.195   1.052  1.4200 -1.0392  0.2487
   46GLOH    O2 8818   3.891   9.261   0.975  0.0331 -0.1274  0.3455
   46GLOH   H05 8819   3.961   9.312   0.930 -0.3612  0.8720  0.8421
   46GLOH    C3 8820   3.919   9.209   1.206 -0.0808 -0.3365  0.6131
   46GLOH   H06 8821   3.810   9.201   1.208  0.0323 -1.7641  2.9952
   46GLOH   H07 8822   3.945   9.314   1.224 -0.7850 -0.3887  1.9718
   46GLOH    O3 8823   3.996   9.125   1.302 -0.4857  0.3863  0.7319
   46GLOH   H01 8824   4.028   9.052   1.247 -2.2314  0.0734  0.1094
   47GLOH   H03 8825   2.365  10.014   1.361 -1.9529 -2.8223  1.9621
   47GLOH    O1 8826   2.404   9.961   1.289  0.2983  0.4665  0.6260
   47GLOH    C1 8827   2.398   9.819   1.327  0.4298 -0.0458  0.0701
   47GLOH   H02 8828   2.307   9.769   1.293  1.6582 -2.7594  0.6301
   47GLOH   H08 8829   2.386   9.813   1.435 -2.7619  1.1252 -0.1676
   47GLOH    C2 8830   2.526   9.741   1.282 -0.0592  0.2488 -0.4267
   47GLOH   H04 8831   2.614   9.791   1.324 -1.4994  1.5249  1.1229
   47GLOH    O2 8832   2.531   9.602   1.337  0.4791 -0.0168 -0.2040
   47GLOH   H05 8833   2.482   9.613   1.420  1.3984 -0.9382  0.4643
   47GLOH    C3 8834   2.540   9.743   1.122  0.1232 -0.4842  0.3602
   47GLOH   H06 8835   2.475   9.663   1.088  1.1838 -0.6932 -1.2346
   47GLOH   H07 8836   2.637   9.710   1.086  0.1242  2.0174 -2.1363
   47GLOH    O3 8837   2.513   9.877   1.062  0.0666  0.3145 -0.1268
   47GLOH   H01 8838   2.494   9.939   1.135  3.3624 -1.4165  2.2837
   48GLOH   H03 8839   3.195   9.735   0.940 -2.5913 -0.0298 -1.1553
   48GLOH    O1 8840   3.177   9.640   0.952 -0.2098 -0.3384  0.4148
   48GLOH    C1 8841   3.267   9.579   0.861  1.0029  0.1442 -0.7659
   48GLOH   H02 8842   3.359   9.557   0.916  1.0060 -0.7264 -1.1126
   48GLOH   H08 8843   3.288   9.644   0.776  2.4414  1.7234  0.7625
   48GLOH    C2 8844   3.207   9.443   0.812 -0.0740  0.2794  0.3922
   48GLOH   H04 8845   3.119   9.471   0.752  1.2749  0.1811 -1.6826
   48GLOH    O2 8846   3.294   9.377   0.718  0.3397  0.1982  0.8518
   48GLOH   H05 8847   3.363   9.334   0.772  0.0694 -0.2077  0.8770
   48GLOH    C3 8848   3.145   9.352   0.924  0.4076 -0.2066 -0.2548
   48GLOH   H06 8849   3.115   9.261   0.872 -2.6598 -0.0026  1.0550
   48GLOH   H07 8850   3.055   9.392   0.970 -1.5289 -1.8045 -2.5552
   48GLOH    O3 8851   3.238   9.322   1.031 -0.1076  0.2612 -0.3337
   48GLOH   H01 8852   3.194   9.334   1.117 -0.3900 -0.0123 -0.4368
   49GLOH   H03 8853   3.851   0.901   2.080 -0.7802 -0.1005 -0.4241
   49GLOH    O1 8854   3.855   0.901   1.983  0.0340  0.5687 -0.3948
   49GLOH    C1 8855   3.750   0.819   1.931 -0.0900  0.3444  0.4510
   49GLOH   H02 8856   3.718   0.871   1.840  2.6380  1.3764  0.0156
   49GLOH   H08 8857   3.672   0.811   2.006 -0.4207  0.2575  0.0994
   49GLOH    C2 8858   3.795   0.679   1.897 -0.3396 -0.3992  0.1607
   49GLOH   H04 8859   3.832   0.635   1.991  0.6867  1.1351  0.5029
   49GLOH    O2 8860   3.693   0.595   1.842  0.6098  0.4751 -0.2456
   49GLOH   H05 8861   3.647   0.650   1.778 -0.2822 -0.7025 -0.6321
   49GLOH    C3 8862   3.923   0.683   1.804  0.0567 -0.2180  0.1995
   49GLOH   H06 8863   3.894   0.756   1.729  0.7205 -0.1413  0.0065
   49GLOH   H07 8864   3.920   0.590   1.747  1.3981 -0.0759 -0.1346
   49GLOH    O3 8865   4.043   0.729   1.862 -0.0854  0.3594  0.1098
   49GLOH   H01 8866   4.107   0.734   1.789  0.6606 -0.6143  0.6919
   50GLOH   H03 8867   3.851   0.409   2.380  1.6396 -0.7891 -0.1341
   50GLOH    O1 8868   3.831   0.383   2.472  0.0016  0.2311 -0.1835
   50GLOH    C1 8869   3.948   0.396   2.557  0.7022 -0.3222  0.1885
   50GLOH   H02 8870   4.039   0.404   2.497 -0.2319 -0.2460 -1.2578
   50GLOH   H08 8871   3.962   0.306   2.617  0.4953  0.3349  1.2272
   50GLOH    C2 8872   3.942   0.521   2.653  0.0312 -0.0116  0.2229
   50GLOH   H04 8873   3.851   0.581   2.635 -0.4959 -0.1402  2.3937
   50GLOH    O2 8874   3.922   0.459   2.784  0.5400  0.0416  0.2070
   50GLOH   H05 8875   3.862   0.516   2.834 -1.0862 -1.9768  0.6351
   50GLOH    C3 8876   4.066   0.613   2.646  0.5830  0.0901 -0.5358
   50GLOH   H06 8877   4.160   0.561   2.667  1.3560  1.6889  0.0232
   50GLOH   H07 8878   4.059   0.701   2.709 -0.1076 -0.0487 -0.4065
   50GLOH    O3 8879   4.090   0.662   2.517  0.8904 -0.0583 -0.1999
   50GLOH   H01 8880   4.010   0.655   2.462 -0.0709 -0.2400  1.1943
   51GLOH   H03 8881   3.742   9.196   0.099 -0.5828  0.7459 -1.9742
   51GLOH    O1 8882   3.805   9.129   0.066 -0.2864  0.1078 -0.1398
   51GLOH    C1 8883   3.800   9.019   0.156 -0.7596  0.5775  0.4331
   51GLOH   H02 8884   3.836   8.925   0.114  0.9424  1.1874  0.5007
   51GLOH   H08 8885   3.697   8.999   0.186 -0.7704 -0.1463 -0.0654
   51GLOH    C2 8886   3.893   9.040   0.278  0.2699  0.4551 -0.8409
   51GLOH   H04 8887   3.863   9.130   0.334 -0.7011  0.2829 -1.0757
   51GLOH    O2 8888   3.877   8.927   0.371 -0.1292  0.4238 -0.1604
   51GLOH   H05 8889   3.922   8.956   0.453  0.0761 -0.1428 -0.0698
   51GLOH    C3 8890   4.038   9.053   0.227 -0.4799  0.0728 -0.1977
   51GLOH   H06 8891   4.036   9.135   0.155  2.1457 -0.4532 -0.9347
   51GLOH   H07 8892   4.058   8.958   0.177 -3.3570 -0.8284  0.3030
   51GLOH    O3 8893   4.135   9.087   0.330 -0.1614  0.1355  0.6015
   51GLOH   H01 8894   4.097   9.054   0.413 -2.4164 -0.5505 -0.6553
   52GLOH   H03 8895   2.649   9.740   0.696  1.1785 -0.9595  1.0885
   52GLOH    O1 8896   2.700   9.743   0.613  0.2401 -0.2120  0.5174
   52GLOH    C1 8897   2.672   9.872   0.547  0.5618  0.2251  0.4931
   52GLOH   H02 8898   2.742   9.952   0.571 -0.2325  0.8500  0.7481
   52GLOH   H08 8899   2.574   9.919   0.554  0.6573  0.1878  2.1243
   52GLOH    C2 8900   2.696   9.862   0.397  0.8602  0.4450 -0.6461
   52GLOH   H04 8901   2.620   9.794   0.356  0.1377 -0.0545  1.4699
   52GLOH    O2 8902   2.667   9.990   0.335 -0.3301 -0.0049  0.8930
   52GLOH   H05 8903   2.738  10.051   0.361  0.0578  0.2284 -0.6735
   52GLOH    C3 8904   2.838   9.809   0.363 -0.0971  0.3006  0.6837
   52GLOH   H06 8905   2.843   9.817   0.255  2.2879 -0.6786  0.6851
   52GLOH   H07 8906   2.843   9.703   0.387 -0.3103 -0.3110 -1.8658
   52GLOH    O3 8907   2.946   9.894   0.414 -0.1722  0.2563 -0.4083
   52GLOH   H01 8908   2.993   9.930   0.337  2.0405 -1.7310 -0.0273
   53GLOH   H03 8909   3.367   0.431   1.948 -1.7609  0.1822 -0.7622
   53GLOH    O1 8910   3.343   0.519   1.983  0.2967  0.4692  0.0109
   53GLOH    C1 8911   3.365   0.606   1.871  0.1972 -0.5179  0.0694
   53GLOH   H02 8912   3.359   0.553   1.776  0.0247 -0.8474  0.2615
   53GLOH   H08 8913   3.462   0.656   1.872 -0.0367 -0.0135 -1.6164
   53GLOH    C2 8914   3.259   0.717   1.876  0.0677  0.4130  0.2531
   53GLOH   H04 8915   3.265   0.775   1.969 -3.4159 -0.6590  1.2325
   53GLOH    O2 8916   3.267   0.804   1.764 -0.0713 -0.3956  0.1293
   53GLOH   H05 8917   3.346   0.861   1.772 -0.4548  0.4562 -1.7866
   53GLOH    C3 8918   3.115   0.654   1.870 -0.0289 -0.3521 -0.4374
   53GLOH   H06 8919   3.108   0.585   1.786 -1.0149 -0.3635 -0.3492
   53GLOH   H07 8920   3.041   0.732   1.849  0.0972 -0.4594 -1.2871
   53GLOH    O3 8921   3.085   0.584   1.991  0.0883 -0.7223 -0.4734
   53GLOH   H01 8922   3.156   0.517   1.990 -0.6202 -1.4504 -1.9895
   54GLOH   H03 8923   3.538   0.511   2.641 -0.5173  0.9491  0.0168
   54GLOH    O1 8924   3.538   0.541   2.733 -0.3803  0.0609  0.3166
   54GLOH    C1 8925   3.546   0.436   2.830 -0.0859  0.1094 -0.8333
   54GLOH   H02 8926   3.521   0.480   2.926 -1.9738  1.2975 -1.8281
   54GLOH   H08 8927   3.647   0.397   2.839 -0.1349  0.0415 -0.5886
   54GLOH    C2 8928   3.455   0.315   2.811 -0.2637 -0.0865  0.6795
   54GLOH   H04 8929   3.461   0.276   2.709  0.3389  1.2458  0.1894
   54GLOH    O2 8930   3.483   0.217   2.913  0.2254 -0.2169  0.1901
   54GLOH   H05 8931   3.403   0.173   2.947 -1.5028  1.4275 -1.6088
   54GLOH    C3 8932   3.308   0.367   2.827  0.1556  0.0628  0.2390
   54GLOH   H06 8933   3.234   0.292   2.798 -1.3268  1.7113 -0.3880
   54GLOH   H07 8934   3.290   0.439   2.747  0.2033 -0.1420  0.0438
   54GLOH    O3 8935   3.288   0.428   2.953 -0.2612  0.0205 -0.0372
   54GLOH   H01 8936   3.369   0.409   3.005  1.1921  0.3966 -2.1273
   55GLOH   H03 8937   3.945   1.629   1.375 -0.6511  1.6901  1.7744
   55GLOH    O1 8938   4.005   1.700   1.346 -0.4296  0.3419 -1.2512
   55GLOH    C1 8939   4.109   1.730   1.443  0.1348  0.1606  0.0091
   55GLOH   H02 8940   4.067   1.748   1.542 -0.0159  2.2520 -0.4136
   55GLOH   H08 8941   4.153   1.824   1.409 -1.1997  1.6444  2.2232
   55GLOH    C2 8942   4.215   1.616   1.462 -0.6347  0.5336 -0.1809
   55GLOH   H04 8943   4.299   1.669   1.509 -0.6148  0.7263 -0.4330
   55GLOH    O2 8944   4.166   1.507   1.542 -0.0068 -0.2216 -0.5033
   55GLOH   H05 8945   4.211   1.521   1.627  0.9011 -0.4205 -0.9467
   55GLOH    C3 8946   4.263   1.569   1.329  0.2858  0.2992  0.4589
   55GLOH   H06 8947   4.182   1.545   1.260  2.4300 -0.6395 -1.7862
   55GLOH   H07 8948   4.317   1.475   1.345 -1.3202 -0.7902 -0.3586
   55GLOH    O3 8949   4.352   1.668   1.274 -0.9304 -0.1817  0.3698
   55GLOH   H01 8950   4.426   1.615   1.239 -1.1001  0.7749 -1.4558
   56GLOH   H03 8951   2.975   1.479   1.319  0.5430 -0.1157 -0.6000
   56GLOH    O1 8952   3.021   1.435   1.393 -0.2341  0.3110  0.1512
   56GLOH    C1 8953   3.099   1.537   1.469  0.0144 -0.3896  0.1881
   56GLOH   H02 8954   3.102   1.626   1.407  2.0334 -1.1991 -0.9002
   56GLOH   H08 8955   3.201   1.504   1.486  0.6910  0.8076 -1.4754
   56GLOH    C2 8956   3.032   1.575   1.606 -0.3805  0.1735  0.5057
   56GLOH   H04 8957   3.018   1.493   1.677  0.2497  0.1214  0.5743
   56GLOH    O2 8958   3.118   1.678   1.669 -0.5975 -0.0911 -0.7578
   56GLOH   H05 8959   3.065   1.732   1.730 -0.9724  0.5033 -1.5906
   56GLOH    C3 8960   2.896   1.640   1.572  0.2818 -0.6846 -0.0425
   56GLOH   H06 8961   2.907   1.729   1.511 -0.1956 -0.4796  0.1685
   56GLOH   H07 8962   2.850   1.672   1.666  2.5227 -0.9889  1.1716
   56GLOH    O3 8963   2.806   1.553   1.508 -0.4771 -0.3104 -0.3521
   56GLOH   H01 8964   2.718   1.594   1.500  0.5357  1.4994 -2.9230
   57GLOH   H03 8965   2.119   0.546   0.595 -0.9432  1.3808  1.1442
   57GLOH    O1 8966   2.199   0.541   0.650 -0.0267 -0.4064 -0.3075
   57GLOH    C1 8967   2.223   0.401   0.673  1.1384 -0.1508  0.2707
   57GLOH   H02 8968   2.241   0.385   0.779  1.5935  2.4821  0.6225
   57GLOH   H08 8969   2.313   0.375   0.617  0.7413 -0.6883 -0.1340
   57GLOH    C2 8970   2.111   0.301   0.634 -0.5188  0.3119  0.4290
   57GLOH   H04 8971   2.030   0.299   0.708  0.4173 -0.4477  1.4545
   57GLOH    O2 8972   2.062   0.336   0.499  0.2691 -0.1121  0.1275
   57GLOH   H05 8973   2.028   0.426   0.505  3.3560  1.2414 -1.4893
   57GLOH    C3 8974   2.155   0.153   0.644  0.5131 -0.1057  0.0467
   57GLOH   H06 8975   2.219   0.135   0.557  1.8558  1.1602  0.7553
   57GLOH   H07 8976   2.076   0.078   0.639  0.6877 -0.2176 -1.5900
   57GLOH    O3 8977   2.231   0.131   0.762  0.0321  0.2264  0.0087
   57GLOH   H01 8978   2.189   0.174   0.838 -2.3468 -2.4101  0.2675
   58GLOH   H03 8979   3.941   0.389   1.071  1.4792  0.5939  0.9937
   58GLOH    O1 8980   3.929   0.312   1.129  0.0782 -0.1477 -0.2321
   58GLOH    C1 8981   3.859   0.356   1.250  0.1324  0.1762 -0.1171
   58GLOH   H02 8982   3.823   0.265   1.299 -0.4131  0.2154 -0.4315
   58GLOH   H08 8983   3.765   0.402   1.219  0.1253 -0.9695 -1.8292
   58GLOH    C2 8984   3.938   0.435   1.357 -0.3604 -0.1322 -0.1581
   58GLOH   H04 8985   4.025   0.374   1.387 -0.1819 -0.5623 -1.5260
   58GLOH    O2 8986   3.987   0.554   1.298  0.5755 -0.4654 -0.0626
   58GLOH   H05 8987   3.968   0.545   1.203  1.8158 -1.1608 -0.2509
   58GLOH    C3 8988   3.850   0.475   1.485  0.6400 -0.5140  0.4840
   58GLOH   H06 8989   3.910   0.530   1.557 -2.2876 -0.5729  3.0482
   58GLOH   H07 8990   3.818   0.385   1.538 -2.4687  1.4934  2.1056
   58GLOH    O3 8991   3.735   0.553   1.445 -0.7853 -0.1517 -0.4548
   58GLOH   H01 8992   3.765   0.636   1.404 -1.0479  1.5574  2.6702
   59GLOH   H03 8993   4.672   1.089   0.567 -0.8100  2.7541  0.2538
   59GLOH    O1 8994   4.614   1.091   0.488 -0.2407  0.1818 -0.2775
   59GLOH    C1 8995   4.552   1.225   0.488 -0.2182  0.4111 -0.8151
   59GLOH   H02 8996   4.535   1.269   0.390 -0.1708  1.7694 -0.2281
   59GLOH   H08 8997   4.609   1.305   0.536  0.7273 -0.6401 -0.1484
   59GLOH    C2 8998   4.413   1.227   0.556  0.8225  0.1473  0.1045
   59GLOH   H04 8999   4.421   1.201   0.662  2.2119 -0.3047 -0.1037
   59GLOH    O2 9000   4.353   1.358   0.545 -0.1418 -0.0315  0.6213
   59GLOH   H05 9001   4.263   1.365   0.579 -0.8277  0.1115 -1.1809
   59GLOH    C3 9002   4.325   1.118   0.494 -0.1592 -1.2588  0.1377
   59GLOH   H06 9003   4.357   1.018   0.524 -1.4671 -1.0046  2.4996
   59GLOH   H07 9004   4.335   1.125   0.385 -2.9055  0.8628 -0.0316
   59GLOH    O3 9005   4.189   1.143   0.526  0.1330  0.3897 -0.7822
   59GLOH   H01 9006   4.179   1.167   0.620 -1.2964  0.3373 -0.9012
   60GLOH   H03 9007   2.769   0.607   2.479  3.8892  0.3126 -0.6170
   60GLOH    O1 9008   2.778   0.580   2.572 -0.8322  0.1094 -0.0604
   60GLOH    C1 9009   2.652   0.575   2.647 -0.5777 -0.8664 -0.6815
   60GLOH   H02 9010   2.569   0.535   2.589 -0.7514  1.0685 -1.8210
   60GLOH   H08 9011   2.636   0.680   2.670 -0.8148 -1.0457 -0.0296
   60GLOH    C2 9012   2.658   0.505   2.784  0.5305  0.0647  0.1515
   60GLOH   H04 9013   2.731   0.547   2.855 -0.6294  1.5934  0.4524
   60GLOH    O2 9014   2.526   0.503   2.837 -1.0144 -0.3672 -0.3982
   60GLOH   H05 9015   2.503   0.594   2.862  1.1955 -0.1042  0.8180
   60GLOH    C3 9016   2.712   0.359   2.758 -0.1879 -0.0113 -0.2554
   60GLOH   H06 9017   2.644   0.315   2.685  0.4541  1.7858 -1.9998
   60GLOH   H07 9018   2.714   0.294   2.845 -0.4989 -0.3676 -0.5146
   60GLOH    O3 9019   2.842   0.359   2.695 -0.4108 -0.3120 -0.1722
   60GLOH   H01 9020   2.837   0.435   2.634  2.3705  0.0835  0.0593
   61GLOH   H03 9021   2.709   9.665   2.325  1.0935  0.0436 -0.7595
   61GLOH    O1 9022   2.757   9.624   2.399 -0.4468 -0.4810 -0.0354
   61GLOH    C1 9023   2.900   9.643   2.394 -0.4304 -0.1893  0.3488
   61GLOH   H02 9024   2.950   9.566   2.336 -2.1528 -2.0072  1.2205
   61GLOH   H08 9025   2.937   9.632   2.496 -0.5222  0.3867  0.4455
   61GLOH    C2 9026   2.934   9.787   2.350 -0.1183  0.2602 -0.4781
   61GLOH   H04 9027   3.044   9.783   2.352 -0.1890 -3.4596  2.2176
   61GLOH    O2 9028   2.895   9.814   2.213  0.2156  0.3456  0.1320
   61GLOH   H05 9029   2.976   9.821   2.160  1.0628 -0.4189  1.3105
   61GLOH    C3 9030   2.883   9.888   2.454  0.0965 -0.7405 -0.7534
   61GLOH   H06 9031   2.776   9.873   2.465  0.3521 -1.3733  1.1894
   61GLOH   H07 9032   2.895   9.988   2.415  0.2916 -0.5368 -0.1836
   61GLOH    O3 9033   2.935   9.873   2.586  0.1054 -0.0498 -0.0919
   61GLOH   H01 9034   2.927   9.960   2.630  0.5840  0.7302 -1.5068
   62GLOH   H03 9035   4.722   0.688   1.162  1.5346  0.2608  0.2329
   62GLOH    O1 9036   4.708   0.716   1.070  0.4545 -0.2080  0.2442
   62GLOH    C1 9037   4.640   0.610   0.997  0.2543 -0.6416 -0.7825
   62GLOH   H02 9038   4.547   0.596   1.053  0.0984  0.0196 -0.8695
   62GLOH   H08 9039   4.688   0.512   0.999 -0.5220 -1.0317 -1.2124
   62GLOH    C2 9040   4.613   0.655   0.850 -1.0941  0.0417 -0.5064
   62GLOH   H04 9041   4.712   0.660   0.802  0.0045 -0.1406  1.7039
   62GLOH    O2 9042   4.547   0.549   0.778 -0.4412  0.3995 -0.0957
   62GLOH   H05 9043   4.533   0.583   0.688 -0.1613  1.0320  0.0953
   62GLOH    C3 9044   4.546   0.791   0.822 -1.1475 -0.1990  0.2928
   62GLOH   H06 9045   4.546   0.797   0.713 -1.2509 -0.3415  0.2844
   62GLOH   H07 9046   4.617   0.868   0.854 -0.2801 -0.5093 -0.8357
   62GLOH    O3 9047   4.417   0.810   0.878  0.0178 -0.9140 -0.0521
   62GLOH   H01 9048   4.430   0.888   0.935  0.7502 -1.4829  0.5664
   63GLOH   H03 9049   3.960   0.876   1.116  0.4001  0.1769 -0.3063
   63GLOH    O1 9050   4.046   0.903   1.153  0.3300  0.3046 -0.2367
   63GLOH    C1 9051   4.144   0.923   1.056  0.5905 -0.0535 -0.2889
   63GLOH   H02 9052   4.104   0.942   0.957 -0.3105  0.2377  0.1213
   63GLOH   H08 9053   4.197   0.828   1.051  0.1285 -0.5321  2.7432
   63GLOH    C2 9054   4.248   1.033   1.100  0.1125 -0.3930 -0.0756
   63GLOH   H04 9055   4.309   1.003   1.187  0.0441 -0.9398 -0.2191
   63GLOH    O2 9056   4.335   1.042   0.989  0.3632  0.1371  0.1508
   63GLOH   H05 9057   4.354   1.134   0.962  2.2088 -0.0571  0.6826
   63GLOH    C3 9058   4.180   1.166   1.134 -0.1010  0.2522 -0.6677
   63GLOH   H06 9059   4.110   1.152   1.217 -0.8783  0.7838 -1.2351
   63GLOH   H07 9060   4.119   1.202   1.051 -0.6205 -0.1435 -0.4613
   63GLOH    O3 9061   4.276   1.268   1.175 -0.3431  0.0960 -0.8709
   63GLOH   H01 9062   4.313   1.245   1.262 -1.9374  1.0945  0.0930
   64GLOH   H03 9063   3.654   0.435   2.452 -0.6495 -0.7163 -1.1188
   64GLOH    O1 9064   3.574   0.458   2.501  0.1887 -0.1413  0.0098
   64GLOH    C1 9065   3.482   0.518   2.413  0.1826 -0.0126 -0.8588
   64GLOH   H02 9066   3.399   0.568   2.464  0.9183  3.1382 -2.6586
   64GLOH   H08 9067   3.439   0.433   2.359 -1.3163  0.4949 -0.5117
   64GLOH    C2 9068   3.535   0.633   2.323  0.2645 -0.3918  0.4679
   64GLOH   H04 9069   3.566   0.716   2.389  1.2390 -0.2927 -0.1011
   64GLOH    O2 9070   3.644   0.592   2.235  0.2987 -0.3217  0.4156
   64GLOH   H05 9071   3.611   0.511   2.192 -1.6254  0.1230  0.9807
   64GLOH    C3 9072   3.416   0.709   2.263 -0.1362  0.2294 -0.3892
   64GLOH   H06 9073   3.449   0.764   2.175 -0.2084  1.6074  0.4203
   64GLOH   H07 9074   3.388   0.787   2.334 -2.2318 -0.1579 -0.7852
   64GLOH    O3 9075   3.308   0.619   2.219  0.0573 -0.1713  0.7703
   64GLOH   H01 9076   3.325   0.573   2.134  0.0047  1.8010 -0.3452
   65GLOH   H03 9077   4.000   9.624   2.693  0.9131 -0.3827 -0.4592
   65GLOH    O1 9078   4.001   9.626   2.596  0.3486  0.5853 -0.4505
   65GLOH    C1 9079   4.042   9.497   2.553  0.6054  0.1007 -0.3354
   65GLOH   H02 9080   4.112   9.452   2.623  1.0929 -0.7529 -1.3640
   65GLOH   H08 9081   4.098   9.502   2.460  2.1714  1.8608  0.6803
   65GLOH    C2 9082   3.924   9.401   2.551  0.1731  0.5625 -0.0781
   65GLOH   H04 9083   3.878   9.381   2.649  0.9440  1.3780  0.4586
   65GLOH    O2 9084   3.818   9.442   2.460  0.4982  0.2108 -0.3031
   65GLOH   H05 9085   3.824   9.435   2.363 -1.3846  0.8313 -0.4951
   65GLOH    C3 9086   3.977   9.263   2.496 -0.0702  0.2512  0.0468
   65GLOH   H06 9087   4.073   9.242   2.543 -0.6845 -0.6371  0.9184
   65GLOH   H07 9088   4.001   9.277   2.391 -0.2871 -2.0179 -0.3354
   65GLOH    O3 9089   3.887   9.152   2.516 -0.7802  0.4087 -0.1525
   65GLOH   H01 9090   3.895   9.129   2.611  0.3189 -0.5919 -0.4814
   66GLOH   H03 9091   3.625   0.151   2.855 -0.6052 -1.0943  0.1045
   66GLOH    O1 9092   3.698   0.113   2.803 -0.1142 -0.3086  0.2066
   66GLOH    C1 9093   3.826   0.109   2.877 -0.1305 -0.6397 -0.0376
   66GLOH   H02 9094   3.818   0.054   2.971  2.5087 -1.8400 -0.4700
   66GLOH   H08 9095   3.854   0.211   2.901 -3.8746  0.6093 -0.5357
   66GLOH    C2 9096   3.945   0.056   2.804  0.2960  0.1450  0.2683
   66GLOH   H04 9097   3.967   0.104   2.708  1.4763  0.7331  0.8134
   66GLOH    O2 9098   4.065   0.061   2.882 -1.2407  0.1125  0.7043
   66GLOH   H05 9099   4.095   0.153   2.892 -0.1122 -0.4666  2.8509
   66GLOH    C3 9100   3.911  -0.092   2.777  0.8164 -0.1276 -0.0783
   66GLOH   H06 9101   3.906  -0.147   2.871  0.4986  1.1943  0.6873
   66GLOH   H07 9102   3.992  -0.134   2.717  1.7216 -0.8222  1.6012
   66GLOH    O3 9103   3.783  -0.115   2.713  0.2709 -0.1617 -0.0540
   66GLOH   H01 9104   3.725  -0.038   2.727  1.5077  1.0376 -1.4305
   67GLOH   H03 9105   4.365   1.906   1.832  0.7960 -0.3082 -0.8233
   67GLOH    O1 9106   4.271   1.921   1.809  0.5638 -0.5798 -0.0670
   67GLOH    C1 9107   4.228   1.798   1.750 -0.7786  0.5642 -0.4275
   67GLOH   H02 9108   4.254   1.797   1.644  1.1474  0.6601  0.0366
   67GLOH   H08 9109   4.120   1.782   1.756 -0.5465 -1.1618 -0.5377
   67GLOH    C2 9110   4.293   1.678   1.821 -0.5137  1.2052 -0.9048
   67GLOH   H04 9111   4.270   1.691   1.928 -1.1683 -1.1041 -0.7528
   67GLOH    O2 9112   4.259   1.546   1.770  0.3341 -0.6222  0.5270
   67GLOH   H05 9113   4.202   1.506   1.838 -1.5368  1.1257  0.0276
   67GLOH    C3 9114   4.453   1.684   1.797  0.2331 -0.7057 -0.2800
   67GLOH   H06 9115   4.487   1.662   1.697 -1.4289 -1.1476 -0.7684
   67GLOH   H07 9116   4.504   1.608   1.856 -1.0874 -1.4947 -0.1419
   67GLOH    O3 9117   4.501   1.812   1.846  0.6677  0.2360 -0.9271
   67GLOH   H01 9118   4.508   1.813   1.944  0.3105 -0.5005 -0.8985
   68GLOH   H03 9119   3.407   1.292   1.930  0.0546  0.1920 -0.3441
   68GLOH    O1 9120   3.381   1.331   1.844 -0.0237  0.0036 -0.4053
   68GLOH    C1 9121   3.405   1.473   1.824 -0.0970 -0.1717 -0.6867
   68GLOH   H02 9122   3.404   1.530   1.917 -0.5428 -0.1182 -0.7232
   68GLOH   H08 9123   3.325   1.519   1.765  0.2819  1.4658  0.0542
   68GLOH    C2 9124   3.543   1.489   1.754 -0.2580  0.1265 -0.8989
   68GLOH   H04 9125   3.545   1.416   1.671  0.0739  0.4339 -1.1647
   68GLOH    O2 9126   3.558   1.620   1.690 -0.3391  0.1012  0.0728
   68GLOH   H05 9127   3.525   1.617   1.598 -0.6096  0.4102  0.1561
   68GLOH    C3 9128   3.666   1.463   1.842 -0.3183 -0.1134  0.5704
   68GLOH   H06 9129   3.762   1.501   1.807 -2.1037  2.3007 -1.8377
   68GLOH   H07 9130   3.673   1.354   1.851 -0.0961 -0.0222  1.5414
   68GLOH    O3 9131   3.636   1.520   1.976 -0.7228  0.0212  0.4380
   68GLOH   H01 9132   3.661   1.614   1.969 -1.0510  0.2999  2.6421
   69GLOH   H03 9133   4.290   1.814   2.544 -1.4830  0.4075  0.3577
   69GLOH    O1 9134   4.315   1.879   2.475 -0.4050 -0.2414  0.1290
   69GLOH    C1 9135   4.193   1.948   2.450 -0.2398 -0.2045 -0.0256
   69GLOH   H02 9136   4.162   1.923   2.349 -2.0304 -0.2163  0.5096
   69GLOH   H08 9137   4.220   2.053   2.440 -0.0852 -0.1468  0.8926
   69GLOH    C2 9138   4.068   1.921   2.533 -0.8961  0.4295  0.2855
   69GLOH   H04 9139   4.090   1.969   2.630  1.3979 -0.1822  0.1151
   69GLOH    O2 9140   3.966   1.992   2.471  0.1349 -0.3547  0.3766
   69GLOH   H05 9141   3.981   2.087   2.457 -2.3716 -0.0627 -0.4681
   69GLOH    C3 9142   4.051   1.770   2.544 -0.3525  0.6128 -0.1939
   69GLOH   H06 9143   4.025   1.740   2.443 -1.0260  2.8032 -0.6969
   69GLOH   H07 9144   3.959   1.758   2.602  1.0426 -0.7931  1.7959
   69GLOH    O3 9145   4.170   1.708   2.594  0.2821 -0.3461  0.2068
   69GLOH   H01 9146   4.143   1.642   2.660 -2.1553 -0.0050 -0.3972
   70GLOH   H03 9147   2.499   0.681   2.330  1.0701 -1.5794  1.0111
   70GLOH    O1 9148   2.418   0.669   2.384  0.0349 -0.1427 -0.1680
   70GLOH    C1 9149   2.327   0.782   2.365  0.2173 -0.3429 -0.0552
   70GLOH   H02 9150   2.232   0.768   2.417 -0.8672 -1.7633 -2.3986
   70GLOH   H08 9151   2.304   0.803   2.261 -0.5688  0.3993  0.2552
   70GLOH    C2 9152   2.388   0.913   2.409  0.2686  0.2240  0.1969
   70GLOH   H04 9153   2.473   0.929   2.342  0.2672 -2.0618 -0.3659
   70GLOH    O2 9154   2.289   1.017   2.379 -0.5336  0.4506 -0.1981
   70GLOH   H05 9155   2.209   0.986   2.426  1.3951 -2.5462  1.2709
   70GLOH    C3 9156   2.423   0.928   2.556 -0.3686  0.2880 -0.5208
   70GLOH   H06 9157   2.512   0.865   2.568  0.1613  1.0392 -0.4366
   70GLOH   H07 9158   2.342   0.894   2.621 -0.6773  0.7102 -0.6800
   70GLOH    O3 9159   2.474   1.058   2.597 -0.1830 -0.4225 -0.6422
   70GLOH   H01 9160   2.390   1.108   2.596 -0.1781 -0.4207 -1.4446
   71GLOH   H03 9161   2.715   0.897   1.208 -2.3310 -1.1417 -0.9734
   71GLOH    O1 9162   2.769   0.895   1.126  0.2097 -0.7264  0.6325
   71GLOH    C1 9163   2.907   0.925   1.145  0.0159  0.0890  0.1745
   71GLOH   H02 9164   2.961   0.849   1.201 -0.8396 -0.7274 -0.0769
   71GLOH   H08 9165   2.923   1.018   1.199 -0.6038 -0.5439  1.4798
   71GLOH    C2 9166   2.964   0.939   1.006 -0.0618  0.0136  0.2429
   71GLOH   H04 9167   2.941   1.036   0.961  2.2752  0.8582  0.8123
   71GLOH    O2 9168   3.101   0.937   1.019 -0.6153 -0.1595 -0.1103
   71GLOH   H05 9169   3.141   0.942   0.930 -0.3446  1.4449  0.0949
   71GLOH    C3 9170   2.932   0.822   0.915  0.0266  0.7839 -0.2817
   71GLOH   H06 9171   2.951   0.733   0.975 -0.1201  0.7148 -0.3381
   71GLOH   H07 9172   3.001   0.822   0.830  1.0936 -1.1385  0.5569
   71GLOH    O3 9173   2.798   0.832   0.876  0.2476 -0.4342  0.2337
   71GLOH   H01 9174   2.748   0.856   0.956  0.3302 -1.6106  0.6432
   72GLOH   H03 9175   2.952   1.398   2.085  0.5265  1.1706  0.4776
   72GLOH    O1 9176   2.923   1.344   2.161  0.3738 -0.2285 -0.5589
   72GLOH    C1 9177   2.845   1.236   2.114  0.4920  0.1187 -0.3384
   72GLOH   H02 9178   2.903   1.144   2.125  2.0295  0.8904 -1.6490
   72GLOH   H08 9179   2.835   1.245   2.005 -0.9079 -2.1229 -0.4242
   72GLOH    C2 9180   2.708   1.238   2.178 -0.2530  1.0741  0.3542
   72GLOH   H04 9181   2.664   1.338   2.172  1.6600  2.0920  2.4342
   72GLOH    O2 9182   2.606   1.151   2.115  0.1187 -0.3012  0.3329
   72GLOH   H05 9183   2.525   1.155   2.169  0.0565  1.5211  0.1187
   72GLOH    C3 9184   2.717   1.178   2.322  0.2833 -0.0433  0.4790
   72GLOH   H06 9185   2.613   1.179   2.356  0.2274 -3.2694  0.4841
   72GLOH   H07 9186   2.772   1.249   2.385  1.5738 -0.7447  0.1513
   72GLOH    O3 9187   2.769   1.046   2.325  0.0167  0.2709  0.0657
   72GLOH   H01 9188   2.809   1.054   2.413 -0.8031  0.9518  0.3850
   73GLOH   H03 9189   4.459   1.980   2.402 -0.8045 -1.6908 -0.6548
   73GLOH    O1 9190   4.523   1.999   2.331  0.0532 -0.1529  0.5115
   73GLOH    C1 9191   4.538   2.138   2.312 -0.7784 -0.3991 -0.0687
   73GLOH   H02 9192   4.600   2.182   2.391  0.8248  0.2676 -1.6547
   73GLOH   H08 9193   4.443   2.192   2.317 -1.5431 -1.6847 -0.6801
   73GLOH    C2 9194   4.614   2.171   2.180 -0.6294  0.3126  0.6399
   73GLOH   H04 9195   4.711   2.119   2.182 -0.3784  0.7869  0.8724
   73GLOH    O2 9196   4.542   2.120   2.067 -0.1857 -0.0231  0.2564
   73GLOH   H05 9197   4.582   2.039   2.033 -1.4071 -0.7297  0.4524
   73GLOH    C3 9198   4.638   2.323   2.173 -0.8189 -0.0310 -0.6650
   73GLOH   H06 9199   4.718   2.341   2.101  1.2082 -1.6060  1.1336
   73GLOH   H07 9200   4.673   2.371   2.264  3.3827 -2.1691 -0.9862
   73GLOH    O3 9201   4.516   2.393   2.141 -0.0535 -0.5811  0.0937
   73GLOH   H01 9202   4.503   2.426   2.051 -1.9344 -0.0000  0.5516
   74GLOH   H03 9203   2.770   0.627   0.445 -0.1539 -1.0097 -0.7516
   74GLOH    O1 9204   2.702   0.596   0.507 -0.0043 -0.5412 -0.3489
   74GLOH    C1 9205   2.704   0.678   0.628  0.1972 -0.3273  0.1687
   74GLOH   H02 9206   2.641   0.767   0.628  1.8033  0.8389 -0.4230
   74GLOH   H08 9207   2.802   0.716   0.659 -0.4646  0.7285  0.9895
   74GLOH    C2 9208   2.664   0.586   0.740  0.5262  0.0665 -0.0767
   74GLOH   H04 9209   2.669   0.640   0.835 -2.1077 -2.1352  1.3668
   74GLOH    O2 9210   2.528   0.530   0.728  0.1034 -0.1911  0.1067
   74GLOH   H05 9211   2.516   0.462   0.796  0.8620  1.1811  1.6748
   74GLOH    C3 9212   2.773   0.478   0.746 -0.2011  0.4037 -0.0119
   74GLOH   H06 9213   2.866   0.533   0.734  0.5392 -0.2112  2.6588
   74GLOH   H07 9214   2.756   0.411   0.663 -1.0384  1.6817 -0.8928
   74GLOH    O3 9215   2.782   0.406   0.866 -0.0470  0.2698 -0.2393
   74GLOH   H01 9216   2.780   0.457   0.949 -0.6191 -1.0507  0.5684
   75GLOH   H03 9217   3.683  -0.030   1.750  3.8138  0.9244  0.7596
   75GLOH    O1 9218   3.691  -0.002   1.657  0.2630  0.1891  0.1654
   75GLOH    C1 9219   3.776  -0.093   1.590 -0.3327  0.6902 -0.0454
   75GLOH   H02 9220   3.754  -0.097   1.483  1.1011 -0.0303 -0.3237
   75GLOH   H08 9221   3.757  -0.194   1.625 -2.2622  0.7638 -0.8220
   75GLOH    C2 9222   3.920  -0.043   1.598  0.6600  0.0710 -0.5169
   75GLOH   H04 9223   3.948  -0.020   1.702 -2.0116  0.9621  0.0471
   75GLOH    O2 9224   4.005  -0.153   1.553 -0.4810 -0.0641  0.6167
   75GLOH   H05 9225   4.091  -0.108   1.553 -0.2323 -0.5178 -0.5098
   75GLOH    C3 9226   3.935   0.087   1.517 -0.2483 -0.1030  0.7989
   75GLOH   H06 9227   3.862   0.150   1.569 -1.5213 -1.2702  0.4459
   75GLOH   H07 9228   3.894   0.082   1.416  1.7681 -0.5135 -0.0121
   75GLOH    O3 9229   4.062   0.151   1.519  0.2415 -0.1798 -0.5770
   75GLOH   H01 9230   4.132   0.084   1.529 -0.5407 -0.5593  3.1427
   76GLOH   H03 9231   2.884   1.676   1.172  2.8301  1.7046  0.6498
   76GLOH    O1 9232   2.923   1.590   1.196 -0.8295 -0.3959 -0.4940
   76GLOH    C1 9233   3.023   1.548   1.093 -0.6012 -0.2533 -0.6241
   76GLOH   H02 9234   3.077   1.456   1.115  0.1295  0.0528 -1.1275
   76GLOH   H08 9235   3.102   1.622   1.081  0.9065 -1.4522  1.5337
   76GLOH    C2 9236   2.966   1.522   0.955  0.9751  0.0271  0.0729
   76GLOH   H04 9237   2.884   1.592   0.933 -0.5834 -1.1162  2.1029
   76GLOH    O2 9238   3.067   1.525   0.845 -0.4599  0.0046 -0.2081
   76GLOH   H05 9239   3.048   1.571   0.761 -1.2991 -1.6738 -0.9795
   76GLOH    C3 9240   2.902   1.380   0.961 -0.1127  0.0823 -0.8024
   76GLOH   H06 9241   2.811   1.383   1.021 -0.4577 -2.5433 -1.1464
   76GLOH   H07 9242   2.973   1.318   1.015 -0.5902 -1.5704 -2.0294
   76GLOH    O3 9243   2.857   1.315   0.845 -0.1664 -0.3468 -0.1659
   76GLOH   H01 9244   2.796   1.242   0.866  0.0455 -0.8832 -1.3674
   77GLOH   H03 9245   3.675   1.105   2.891 -1.3151 -1.5947  0.6818
   77GLOH    O1 9246   3.744   1.037   2.889  0.2791  0.0097 -0.1373
   77GLOH    C1 9247   3.836   1.041   2.783  0.1638 -0.4327 -0.2792
   77GLOH   H02 9248   3.863   1.139   2.743  2.7389 -0.5764  0.9682
   77GLOH   H08 9249   3.795   0.985   2.699 -0.0176 -0.2457 -0.3134
   77GLOH    C2 9250   3.964   0.970   2.833 -0.4638 -0.0202 -0.1268
   77GLOH   H04 9251   3.942   0.873   2.880 -2.8384  0.4193 -0.2765
   77GLOH    O2 9252   4.053   0.950   2.725 -0.3385  0.0308 -0.0637
   77GLOH   H05 9253   4.144   0.941   2.759 -0.5213 -0.2238  0.3626
   77GLOH    C3 9254   4.032   1.054   2.944 -0.4111  0.3092 -0.1207
   77GLOH   H06 9255   3.964   1.049   3.029  0.1460 -0.6160  0.2721
   77GLOH   H07 9256   4.046   1.155   2.903  0.8085  0.2691  0.1961
   77GLOH    O3 9257   4.162   0.995   2.962 -0.3264 -0.5917  0.2475
   77GLOH   H01 9258   4.204   1.062   3.019  1.3473 -0.2032 -1.3907
   78GLOH   H03 9259   2.504   1.857   2.183 -0.6732  0.2630  0.6479
   78GLOH    O1 9260   2.526   1.769   2.220 -0.5364  0.2635  0.5706
   78GLOH    C1 9261   2.666   1.761   2.248  0.6248  0.4705  0.1014
   78GLOH   H02 9262   2.674   1.671   2.307  0.1874  0.7372  0.5726
   78GLOH   H08 9263   2.708   1.836   2.315  1.1382  0.9530 -0.7394
   78GLOH    C2 9264   2.744   1.752   2.112 -0.3882  0.0915 -0.5704
   78GLOH   H04 9265   2.698   1.826   2.044  1.2069  2.3808  0.7863
   78GLOH    O2 9266   2.882   1.792   2.136 -0.3157 -0.1811  0.2206
   78GLOH   H05 9267   2.924   1.719   2.186  0.5344 -0.4537 -0.8663
   78GLOH    C3 9268   2.738   1.608   2.047  0.7706  0.5657 -0.7586
   78GLOH   H06 9269   2.637   1.566   2.042  1.0873 -0.0852 -2.0413
   78GLOH   H07 9270   2.794   1.542   2.113 -1.6173 -2.6265 -1.8126
   78GLOH    O3 9271   2.786   1.606   1.910 -0.8444  0.1836  0.3202
   78GLOH   H01 9272   2.707   1.622   1.855 -0.2583 -0.0180 -0.5838
   79GLOH   H03 9273   3.155   1.251   0.105 -2.3867 -0.6071  0.0538
   79GLOH    O1 9274   3.203   1.184   0.156 -0.0883  0.5112 -0.5544
   79GLOH    C1 9275   3.114   1.127   0.261 -0.2013 -0.4188  0.1703
   79GLOH   H02 9276   3.041   1.055   0.224 -0.0383 -0.9448  0.8577
   79GLOH   H08 9277   3.057   1.208   0.305 -0.1997 -1.1237  1.4954
   79GLOH    C2 9278   3.193   1.068   0.383 -0.6451  0.8210 -0.0149
   79GLOH   H04 9279   3.278   1.016   0.338  0.3086  2.5283 -0.2359
   79GLOH    O2 9280   3.246   1.161   0.476  0.2070 -0.1171 -0.0812
   79GLOH   H05 9281   3.341   1.154   0.495  0.1900  1.3085  0.6238
   79GLOH    C3 9282   3.115   0.960   0.459 -0.7695 -0.9207  0.1881
   79GLOH   H06 9283   3.033   1.018   0.503 -0.3597  0.4962 -0.8604
   79GLOH   H07 9284   3.184   0.920   0.533  0.2289  0.0686 -0.1837
   79GLOH    O3 9285   3.064   0.853   0.375  0.1553 -0.0021  0.4212
   79GLOH   H01 9286   3.145   0.806   0.351  0.0303  0.3047 -0.6120
   80GLOH   H03 9287   3.552   9.298   2.357 -2.0825  0.2650  1.2348
   80GLOH    O1 9288   3.529   9.340   2.272  0.4538 -0.2564  0.2233
   80GLOH    C1 9289   3.404   9.416   2.294 -0.5154 -0.3978  0.1250
   80GLOH   H02 9290   3.423   9.523   2.301  0.7787 -0.4869 -1.6506
   80GLOH   H08 9291   3.362   9.384   2.389  2.3917 -0.0318  1.5648
   80GLOH    C2 9292   3.305   9.384   2.178 -0.0383 -0.2520 -0.1329
   80GLOH   H04 9293   3.280   9.277   2.187 -0.2490 -0.0446  2.2159
   80GLOH    O2 9294   3.181   9.456   2.190  0.1641  0.5512 -0.3387
   80GLOH   H05 9295   3.188   9.513   2.270  0.2246 -0.3821  0.3259
   80GLOH    C3 9296   3.383   9.403   2.044  0.4900 -0.1377 -0.2330
   80GLOH   H06 9297   3.436   9.498   2.053  0.7970 -0.2617 -0.7238
   80GLOH   H07 9298   3.313   9.405   1.961 -0.4958 -0.1911  0.5947
   80GLOH    O3 9299   3.484   9.302   2.039 -0.0964 -0.8398  0.0282
   80GLOH   H01 9300   3.506   9.298   2.134  0.5006  0.7797 -0.0236
   81GLOH   H03 9301   4.143   1.333   2.269  0.8334 -1.4852 -0.8770
   81GLOH    O1 9302   4.116   1.369   2.183 -0.2413 -0.0177  0.0681
   81GLOH    C1 9303   4.031   1.271   2.121 -1.3471  0.0949 -0.2983
   81GLOH   H02 9304   3.933   1.277   2.167 -0.5466  0.8131  1.3736
   81GLOH   H08 9305   4.080   1.178   2.151 -0.0927  0.3074 -1.6007
   81GLOH    C2 9306   4.022   1.274   1.965  0.9153 -0.0049  0.4608
   81GLOH   H04 9307   4.116   1.246   1.917  0.9860  1.1508 -0.0680
   81GLOH    O2 9308   3.916   1.179   1.934  0.1431  0.3387 -0.1063
   81GLOH   H05 9309   3.939   1.087   1.955 -0.1394  0.5090  0.9621
   81GLOH    C3 9310   3.977   1.413   1.916 -0.0157  0.1065 -0.2530
   81GLOH   H06 9311   3.882   1.430   1.967  0.3935  1.0024  0.2340
   81GLOH   H07 9312   3.959   1.422   1.809  1.2314  1.4298 -0.3766
   81GLOH    O3 9313   4.064   1.526   1.951 -0.8411  0.1318  0.6935
   81GLOH   H01 9314   4.090   1.525   2.045  0.0153  2.9010  0.5377
   82GLOH   H03 9315   3.647   8.944   1.552 -0.9569 -1.4542 -0.6306
   82GLOH    O1 9316   3.581   8.983   1.493 -0.4337 -0.8001 -0.7897
   82GLOH    C1 9317   3.631   8.996   1.361  0.0754 -0.1340  0.0102
   82GLOH   H02 9318   3.621   8.905   1.302 -1.0946 -0.7078  1.0770
   82GLOH   H08 9319   3.739   9.010   1.364 -0.0977  1.0801  0.4654
   82GLOH    C2 9320   3.570   9.116   1.282 -0.5447 -0.1557 -0.6657
   82GLOH   H04 9321   3.605   9.204   1.337  0.0326 -1.0028  0.3595
   82GLOH    O2 9322   3.618   9.108   1.143 -0.0062  0.0939  0.2994
   82GLOH   H05 9323   3.625   9.201   1.114  1.6464 -0.4235 -1.0593
   82GLOH    C3 9324   3.418   9.091   1.277  0.8550  0.0727  0.2017
   82GLOH   H06 9325   3.390   9.000   1.224 -0.7600  1.7634 -1.9502
   82GLOH   H07 9326   3.377   9.169   1.212 -0.9904  1.0490  2.5029
   82GLOH    O3 9327   3.357   9.099   1.406  0.0180  0.4306  0.2613
   82GLOH   H01 9328   3.426   9.066   1.467 -0.6724 -1.6326 -0.0215
   83GLOH   H03 9329   4.581   1.224   2.201  1.8707 -0.5426  0.7582
   83GLOH    O1 9330   4.573   1.255   2.293  0.1113 -0.2386  0.5090
   83GLOH    C1 9331   4.530   1.393   2.287 -0.2223  0.6424 -0.3833
   83GLOH   H02 9332   4.615   1.462   2.284 -0.8929  1.5037  0.1969
   83GLOH   H08 9333   4.474   1.415   2.378  0.1614  0.2431 -0.0430
   83GLOH    C2 9334   4.448   1.419   2.160  0.5345 -0.2826  0.0245
   83GLOH   H04 9335   4.351   1.371   2.179  0.7409 -0.9127 -0.5140
   83GLOH    O2 9336   4.422   1.559   2.144  0.3095 -0.4125  0.8947
   83GLOH   H05 9337   4.370   1.603   2.213  0.8524  0.1398  0.9552
   83GLOH    C3 9338   4.516   1.361   2.039  0.2720  0.1460  0.2360
   83GLOH   H06 9339   4.609   1.417   2.038  0.5125 -0.2226 -1.8981
   83GLOH   H07 9340   4.460   1.382   1.947  1.5590 -0.7273 -0.7734
   83GLOH    O3 9341   4.536   1.217   2.042 -0.4630 -0.1764 -0.2006
   83GLOH   H01 9342   4.535   1.179   1.952 -1.2228  1.2047 -0.7937
   84GLOH   H03 9343   3.166   0.877   2.328  0.5467 -0.6573  1.1022
   84GLOH    O1 9344   3.213   0.962   2.339  0.1784 -0.1767 -0.8006
   84GLOH    C1 9345   3.157   1.064   2.254  0.7174  0.1243 -0.3542
   84GLOH   H02 9346   3.050   1.055   2.274  1.2548 -1.4399  2.0648
   84GLOH   H08 9347   3.183   1.048   2.149 -0.2233 -0.7382 -0.4711
   84GLOH    C2 9348   3.196   1.202   2.299 -0.5287  0.1392 -0.1153
   84GLOH   H04 9349   3.297   1.182   2.339  0.0349  1.4564 -0.8721
   84GLOH    O2 9350   3.208   1.305   2.200 -0.1799 -0.4375 -0.2896
   84GLOH   H05 9351   3.175   1.259   2.121  0.2347 -1.2456  0.0010
   84GLOH    C3 9352   3.107   1.249   2.410  0.5055 -0.0518  0.0050
   84GLOH   H06 9353   3.005   1.258   2.375  0.5999  2.7843  0.3990
   84GLOH   H07 9354   3.135   1.350   2.440 -1.1112  0.5213 -0.3876
   84GLOH    O3 9355   3.106   1.171   2.534 -0.0526 -0.0625  0.2077
   84GLOH   H01 9356   3.028   1.113   2.542 -0.1436 -0.1716 -1.2287
   85GLOH   H03 9357   2.595   1.240   1.809 -1.0628 -1.5819 -0.9447
   85GLOH    O1 9358   2.562   1.309   1.748 -0.1409 -0.5090 -0.2497
   85GLOH    C1 9359   2.639   1.333   1.629 -0.5065  0.4415  1.0293
   85GLOH   H02 9360   2.739   1.368   1.655  0.3581 -1.6182  0.5499
   85GLOH   H08 9361   2.590   1.405   1.564  0.8915 -0.9102 -1.5886
   85GLOH    C2 9362   2.661   1.202   1.548  1.2294  0.1202 -0.6893
   85GLOH   H04 9363   2.689   1.124   1.621  1.1712  2.5400  2.0349
   85GLOH    O2 9364   2.550   1.151   1.471 -0.3497 -0.0343 -0.4257
   85GLOH   H05 9365   2.510   1.227   1.425 -1.8827  1.2118  2.8644
   85GLOH    C3 9366   2.775   1.222   1.446  0.2024  0.1106 -0.0215
   85GLOH   H06 9367   2.744   1.302   1.379 -0.5790 -0.0686  0.1254
   85GLOH   H07 9368   2.791   1.134   1.383 -0.5632 -1.5137  1.9888
   85GLOH    O3 9369   2.897   1.250   1.514 -0.3332  0.9791  0.2266
   85GLOH   H01 9370   2.925   1.341   1.492  0.6913  1.1687  2.2341
   86GLOH   H03 9371   3.159   0.307   0.611 -1.1650 -0.7231  1.1435
   86GLOH    O1 9372   3.208   0.223   0.603  0.4654  0.3116  0.0779
   86GLOH    C1 9373   3.244   0.170   0.729 -0.5104 -0.3311 -0.3039
   86GLOH   H02 9374   3.156   0.156   0.791 -0.1180 -1.3175  0.0425
   86GLOH   H08 9375   3.308   0.246   0.775 -0.6455  0.5731 -1.5646
   86GLOH    C2 9376   3.313   0.033   0.715 -0.6250 -0.1112 -0.1805
   86GLOH   H04 9377   3.259  -0.022   0.636 -0.5841  0.2482 -0.4632
   86GLOH    O2 9378   3.452   0.047   0.675  0.0425 -0.5569 -0.8917
   86GLOH   H05 9379   3.492  -0.038   0.701  0.2566 -0.1664  0.0835
   86GLOH    C3 9380   3.296  -0.049   0.843  0.0387 -0.1121 -0.1038
   86GLOH   H06 9381   3.322   0.007   0.932 -0.3572  3.1030 -1.9269
   86GLOH   H07 9382   3.363  -0.135   0.838  0.1316  0.0463 -2.4152
   86GLOH    O3 9383   3.161  -0.105   0.866  0.9699  0.3096  0.0842
   86GLOH   H01 9384   3.088  -0.061   0.819  1.3938  0.9807  0.0454
   87GLOH   H03 9385   3.083   1.259   1.909 -0.4036  0.5128  2.5150
   87GLOH    O1 9386   3.130   1.188   1.956 -0.1736 -0.7562  0.4492
   87GLOH    C1 9387   3.160   1.080   1.868  0.6274 -0.4378 -0.0170
   87GLOH   H02 9388   3.120   0.989   1.914 -0.0101  0.4184  1.1760
   87GLOH   H08 9389   3.268   1.064   1.863  0.6460 -0.2115 -0.2915
   87GLOH    C2 9390   3.103   1.085   1.727 -0.7507  0.2188 -0.3010
   87GLOH   H04 9391   3.135   0.994   1.674 -0.3671  1.9517 -3.1521
   87GLOH    O2 9392   2.959   1.094   1.720 -0.7651 -0.3192  0.6877
   87GLOH   H05 9393   2.926   1.149   1.646  1.6042  0.3828  0.1298
   87GLOH    C3 9394   3.165   1.208   1.650  1.0303 -0.0008 -0.4293
   87GLOH   H06 9395   3.135   1.299   1.700 -0.0111 -0.0035 -1.0304
   87GLOH   H07 9396   3.129   1.210   1.547  1.1539 -0.3743 -0.4829
   87GLOH    O3 9397   3.305   1.200   1.651 -0.1922 -0.0274 -0.1750
   87GLOH   H01 9398   3.339   1.249   1.728  0.4401 -0.6009 -0.0888
   88GLOH   H03 9399   2.837   1.054   2.606 -1.2483 -0.8808 -0.3999
   88GLOH    O1 9400   2.905   1.023   2.543 -0.7730 -0.9658  0.1509
   88GLOH    C1 9401   2.940   0.884   2.553 -0.7833  0.3827 -0.2224
   88GLOH   H02 9402   3.021   0.863   2.484  0.6029 -1.7672  1.9776
   88GLOH   H08 9403   2.856   0.816   2.539 -0.4441 -0.2809  0.9062
   88GLOH    C2 9404   2.999   0.862   2.693 -0.1358 -0.4668  1.0726
   88GLOH   H04 9405   3.086   0.929   2.701 -0.1737 -0.6583  3.3425
   88GLOH    O2 9406   2.898   0.885   2.797 -0.4407  0.3401 -0.2166
   88GLOH   H05 9407   2.936   0.869   2.884  0.1867 -1.9604 -0.8952
   88GLOH    C3 9408   3.042   0.716   2.708  0.0111 -0.3665  0.4794
   88GLOH   H06 9409   2.957   0.650   2.727 -0.7114  0.4606  0.1474
   88GLOH   H07 9410   3.087   0.707   2.807  2.3252 -1.6950 -0.6459
   88GLOH    O3 9411   3.137   0.680   2.605 -0.3300 -0.1902  0.0070
   88GLOH   H01 9412   3.227   0.715   2.624  0.3380 -1.2189 -1.2253
   89GLOH   H03 9413   3.944   9.145   1.439  1.9205 -0.0596  0.6185
   89GLOH    O1 9414   3.907   9.168   1.526 -0.1142 -0.4510 -0.0977
   89GLOH    C1 9415   3.926   9.305   1.557  0.3759 -0.3422  0.7366
   89GLOH   H02 9416   3.884   9.332   1.654  1.2174  0.9913  0.7476
   89GLOH   H08 9417   3.883   9.374   1.485  0.8189 -1.4471 -0.6013
   89GLOH    C2 9418   4.075   9.349   1.558 -0.3874 -0.2199 -0.2193
   89GLOH   H04 9419   4.120   9.331   1.459 -1.8347 -2.1549 -0.5625
   89GLOH    O2 9420   4.100   9.485   1.597  0.2787 -0.1661  0.0263
   89GLOH   H05 9421   4.011   9.523   1.583  0.5382  0.8864  1.1379
   89GLOH    C3 9422   4.155   9.260   1.651 -0.0259 -0.2789  0.3455
   89GLOH   H06 9423   4.258   9.292   1.669 -0.5618  0.7941  1.5962
   89GLOH   H07 9424   4.165   9.160   1.609 -0.1803 -0.3751  0.5353
   89GLOH    O3 9425   4.091   9.248   1.775  0.3638 -0.1653  0.2748
   89GLOH   H01 9426   4.050   9.161   1.788  0.1172 -0.1593 -0.4583
   90GLOH   H03 9427   2.822   0.922   0.738  1.6682 -1.4486  0.1316
   90GLOH    O1 9428   2.824   0.941   0.642 -0.1875  0.3163  0.4170
   90GLOH    C1 9429   2.720   1.042   0.618  0.7802 -0.1740  0.3935
   90GLOH   H02 9430   2.765   1.138   0.643  0.0020  0.4529 -0.5253
   90GLOH   H08 9431   2.636   1.027   0.686 -0.5302 -1.8692 -1.5075
   90GLOH    C2 9432   2.665   1.055   0.471  0.1621  0.2077 -0.7698
   90GLOH   H04 9433   2.563   1.014   0.466  0.8998 -1.7503 -0.4043
   90GLOH    O2 9434   2.650   1.196   0.435 -0.1765 -0.1968 -0.1381
   90GLOH   H05 9435   2.612   1.195   0.346 -0.8268  1.2067  0.1033
   90GLOH    C3 9436   2.761   0.983   0.370  0.1828  0.0582  0.4014
   90GLOH   H06 9437   2.794   0.885   0.404  0.4293 -0.9490 -2.5444
   90GLOH   H07 9438   2.851   1.043   0.364  0.2425 -0.2461 -2.5399
   90GLOH    O3 9439   2.683   0.974   0.251  0.1358 -0.7709  0.6324
   90GLOH   H01 9440   2.749   0.961   0.180 -2.3963  1.1849 -2.1749
   91GLOH   H03 9441   3.919   1.637   0.187 -0.2818 -0.3898 -1.4763
   91GLOH    O1 9442   3.826   1.666   0.176 -0.3579  0.0106  0.1598
   91GLOH    C1 9443   3.770   1.752   0.277  0.8288  0.1578  0.0657
   91GLOH   H02 9444   3.740   1.695   0.366 -1.5218  0.1041 -0.7390
   91GLOH   H08 9445   3.684   1.805   0.238  1.0389  0.1170 -0.4483
   91GLOH    C2 9446   3.862   1.866   0.313  0.3623  0.0079 -0.4011
   91GLOH   H04 9447   3.796   1.938   0.364 -0.0402 -0.9880  0.5090
   91GLOH    O2 9448   3.958   1.826   0.415 -0.0494 -0.0447 -0.1806
   91GLOH   H05 9449   3.908   1.804   0.495 -2.5923 -2.8471 -2.4229
   91GLOH    C3 9450   3.932   1.928   0.191  0.4222 -0.2692  0.2524
   91GLOH   H06 9451   4.001   1.856   0.147  0.9081  0.3395  0.0162
   91GLOH   H07 9452   3.988   2.017   0.220  0.7953  0.5175 -2.7247
   91GLOH    O3 9453   3.844   1.968   0.085  0.2134 -0.6241 -0.1391
   91GLOH   H01 9454   3.882   2.049   0.045 -1.2119 -0.4620 -1.1994
   92GLOH   H03 9455   3.956   9.693   1.510 -0.2478 -0.4102  2.2484
   92GLOH    O1 9456   3.901   9.613   1.502  0.2201 -0.5737  0.4960
   92GLOH    C1 9457   3.837   9.605   1.375  0.4038 -0.1438  0.3734
   92GLOH   H02 9458   3.771   9.691   1.366 -1.5991 -1.3968  2.4840
   92GLOH   H08 9459   3.767   9.521   1.365  0.9221 -0.3313 -2.1187
   92GLOH    C2 9460   3.931   9.602   1.253 -0.3840 -0.5248 -0.0958
   92GLOH   H04 9461   4.002   9.521   1.273 -0.8603 -0.6769  1.0519
   92GLOH    O2 9462   3.863   9.579   1.132  0.4889  0.3133  0.5188
   92GLOH   H05 9463   3.902   9.616   1.050 -0.4631  0.7035  0.2312
   92GLOH    C3 9464   4.004   9.742   1.246 -0.1976 -0.1797 -0.3360
   92GLOH   H06 9465   4.070   9.737   1.159 -1.2585 -3.9531 -1.0477
   92GLOH   H07 9466   4.067   9.755   1.334 -0.9274 -2.8812  0.6539
   92GLOH    O3 9467   3.916   9.855   1.238  0.1096  0.4563 -0.1995
   92GLOH   H01 9468   3.983   9.925   1.230  0.9514 -0.0001  2.3546
   93GLOH   H03 9469   2.948   9.653   1.590 -1.5952  0.0643  0.8632
   93GLOH    O1 9470   2.971   9.703   1.670 -0.1099  0.2926  0.3074
   93GLOH    C1 9471   2.898   9.650   1.785 -0.2495  0.1472 -0.0993
   93GLOH   H02 9472   2.874   9.545   1.768  2.4653 -0.9210  2.2414
   93GLOH   H08 9473   2.805   9.701   1.810  0.4793  1.1696  0.5645
   93GLOH    C2 9474   2.989   9.651   1.906  0.4844  0.3543 -0.7273
   93GLOH   H04 9475   2.921   9.631   1.990  2.6226  0.4285  1.0812
   93GLOH    O2 9476   3.083   9.545   1.898 -0.1927 -0.6416 -0.0585
   93GLOH   H05 9477   3.046   9.465   1.940  2.9416 -1.5029  1.2035
   93GLOH    C3 9478   3.046   9.792   1.926  0.9695 -0.8824 -0.0242
   93GLOH   H06 9479   2.965   9.863   1.911  2.6355  1.2232  0.6513
   93GLOH   H07 9480   3.108   9.810   1.838 -0.4347  1.4097 -0.5945
   93GLOH    O3 9481   3.120   9.821   2.046 -0.1805 -0.5803  0.5317
   93GLOH   H01 9482   3.206   9.777   2.039  1.0325  1.7572  0.1971
   94GLOH   H03 9483   3.445   2.036   1.261 -0.4326 -0.2193  0.2561
   94GLOH    O1 9484   3.423   2.121   1.217  0.2083 -0.0012  0.3650
   94GLOH    C1 9485   3.501   2.234   1.273 -0.3138 -0.5557  0.6596
   94GLOH   H02 9486   3.588   2.226   1.208 -0.6727 -1.1602  0.2456
   94GLOH   H08 9487   3.528   2.227   1.379  0.2581  0.8920  0.6205
   94GLOH    C2 9488   3.427   2.369   1.248 -0.0822 -0.0464  0.6308
   94GLOH   H04 9489   3.326   2.373   1.292 -0.2790  1.0390  0.0793
   94GLOH    O2 9490   3.511   2.473   1.305 -0.8901 -0.0931  0.0684
   94GLOH   H05 9491   3.504   2.466   1.402  1.5368  0.9227  0.3548
   94GLOH    C3 9492   3.415   2.389   1.095 -0.0191 -0.9658  0.2056
   94GLOH   H06 9493   3.516   2.393   1.055  0.2172 -1.9053  0.6960
   94GLOH   H07 9494   3.371   2.488   1.077 -0.0697 -1.0884 -0.3480
   94GLOH    O3 9495   3.336   2.283   1.026  0.5944  0.2702 -0.0482
   94GLOH   H01 9496   3.338   2.205   1.084 -1.2562  1.4269  1.6570
   95GLOH   H03 9497   3.892   2.152   2.100 -1.7908  0.0954  1.5155
   95GLOH    O1 9498   3.873   2.058   2.121 -0.7365 -0.4242  0.2974
   95GLOH    C1 9499   3.883   1.965   2.015  0.1345 -0.0130 -0.2303
   95GLOH   H02 9500   3.950   1.988   1.933 -0.5134 -0.6150 -0.9388
   95GLOH   H08 9501   3.792   1.983   1.958  1.0604  1.7427 -1.1937
   95GLOH    C2 9502   3.892   1.817   2.054  0.6201 -0.2925 -0.0588
   95GLOH   H04 9503   3.794   1.780   2.088  0.2872  0.9445  0.3272
   95GLOH    O2 9504   3.923   1.738   1.941  0.1138  0.6994  0.2688
   95GLOH   H05 9505   3.980   1.662   1.962  0.5172  1.1047  0.6473
   95GLOH    C3 9506   3.987   1.794   2.173 -0.3343 -0.0553  0.2680
   95GLOH   H06 9507   3.947   1.850   2.257 -1.0872  0.3569 -0.3602
   95GLOH   H07 9508   4.075   1.855   2.153 -0.0668 -0.8343 -0.9584
   95GLOH    O3 9509   4.003   1.658   2.215  0.1012 -0.1936 -0.0995
   95GLOH   H01 9510   3.918   1.625   2.250  0.0685 -0.0270 -0.0231
   96GLOH   H03 9511   3.071   9.806   0.467 -0.8569 -0.4084  1.9608
   96GLOH    O1 9512   3.150   9.750   0.464 -0.1406  0.6580  0.2956
   96GLOH    C1 9513   3.134   9.639   0.369 -0.3713 -0.3810 -0.0288
   96GLOH   H02 9514   3.145   9.680   0.268  0.9167 -0.4489  0.0752
   96GLOH   H08 9515   3.036   9.591   0.367  0.4898 -2.1969  0.2729
   96GLOH    C2 9516   3.232   9.524   0.396 -0.5537 -0.0745 -0.3176
   96GLOH   H04 9517   3.209   9.487   0.497  0.3958  2.5026  0.8940
   96GLOH    O2 9518   3.210   9.415   0.307  0.1454 -0.5869 -0.1608
   96GLOH   H05 9519   3.155   9.351   0.355 -1.9701  0.7264 -0.7609
   96GLOH    C3 9520   3.377   9.583   0.395  0.3970 -0.2169  0.5234
   96GLOH   H06 9521   3.415   9.598   0.294  0.5474 -1.8512  0.3288
   96GLOH   H07 9522   3.444   9.515   0.448 -0.1741 -2.7546 -1.9034
   96GLOH    O3 9523   3.385   9.701   0.474  0.1920 -0.1017 -0.2477
   96GLOH   H01 9524   3.293   9.733   0.475  0.5100  0.9559 -2.0618
   97GLOH   H03 9525   3.220   2.485   1.597  1.1968 -1.0155 -2.0550
   97GLOH    O1 9526   3.263   2.456   1.679 -0.3448  0.4377 -0.7049
   97GLOH    C1 9527   3.177   2.472   1.794  0.4196  0.1787  0.0980
   97GLOH   H02 9528   3.075   2.445   1.766  0.3999  1.1006 -0.7180
   97GLOH   H08 9529   3.166   2.577   1.822  0.2329  0.0295  0.5931
   97GLOH    C2 9530   3.210   2.386   1.915 -0.3065 -0.3683  0.1035
   97GLOH   H04 9531   3.143   2.421   1.994  0.2604  0.9626  0.0009
   97GLOH    O2 9532   3.179   2.248   1.885 -0.1890  0.1613  0.1225
   97GLOH   H05 9533   3.242   2.222   1.816 -0.1198  0.7882 -0.0529
   97GLOH    C3 9534   3.355   2.414   1.959 -0.1344  0.7121 -0.3473
   97GLOH   H06 9535   3.385   2.518   1.948 -0.1019  0.8049  0.5589
   97GLOH   H07 9536   3.410   2.365   1.880 -1.1958 -1.9962  0.5226
   97GLOH    O3 9537   3.380   2.345   2.083 -0.3616 -0.0416 -0.7391
   97GLOH   H01 9538   3.459   2.289   2.080 -2.5566 -3.4161  0.5543
   98GLOH   H03 9539   3.515   1.237   0.218  0.0987 -0.3073  0.2341
   98GLOH    O1 9540   3.590   1.292   0.247 -0.1154  0.1509 -0.0726
   98GLOH    C1 9541   3.552   1.430   0.223  0.2149  0.2256  0.1585
   98GLOH   H02 9542   3.546   1.441   0.115  0.6275 -0.1922  0.0891
   98GLOH   H08 9543   3.629   1.499   0.257 -0.7239  1.7911 -0.8686
   98GLOH    C2 9544   3.417   1.455   0.295 -0.7146  0.3825 -0.6344
   98GLOH   H04 9545   3.334   1.401   0.246 -0.0696 -1.3650  0.1445
   98GLOH    O2 9546   3.409   1.432   0.440  0.2261 -0.2471  0.0408
   98GLOH   H05 9547   3.446   1.342   0.446  0.8261  0.0904  1.6321
   98GLOH    C3 9548   3.373   1.602   0.270 -0.8653  0.7640 -0.3901
   98GLOH   H06 9549   3.454   1.672   0.293  1.3331 -1.8870  0.1258
   98GLOH   H07 9550   3.302   1.628   0.349  2.4469  0.7814  2.7445
   98GLOH    O3 9551   3.319   1.633   0.134  0.6375 -0.5158  0.1438
   98GLOH   H01 9552   3.394   1.659   0.076  0.0453 -1.3414 -0.9971
   99GLOH   H03 9553   4.158   0.955   2.379  0.6997 -1.2365  2.1835
   99GLOH    O1 9554   4.245   0.997   2.366 -0.2017  0.0198 -0.1516
   99GLOH    C1 9555   4.330   0.942   2.262  0.1985  0.2557  0.1410
   99GLOH   H02 9556   4.341   0.833   2.266 -1.5849  0.0765  0.6795
   99GLOH   H08 9557   4.428   0.988   2.273  0.5473 -0.5807  0.6440
   99GLOH    C2 9558   4.292   0.984   2.122  1.1679 -0.4773 -0.3266
   99GLOH   H04 9559   4.288   1.093   2.131  0.2636 -0.5239 -0.1397
   99GLOH    O2 9560   4.398   0.952   2.023  0.4035  0.1320  1.2108
   99GLOH   H05 9561   4.458   1.028   2.019  2.4961 -1.2497  4.1403
   99GLOH    C3 9562   4.156   0.916   2.083 -0.0829 -0.2470 -0.6418
   99GLOH   H06 9563   4.087   0.948   2.161  1.1449  1.1379 -0.0989
   99GLOH   H07 9564   4.154   0.807   2.084 -2.4162 -0.2217  1.9945
   99GLOH    O3 9565   4.120   0.963   1.953 -0.0118 -0.3076 -0.1507
   99GLOH   H01 9566   4.062   0.893   1.918  0.4015 -1.2197  0.9110
  100GLOH   H03 9567   3.602   9.323   1.590  0.8198  0.8159 -0.0930
  100GLOH    O1 9568   3.585   9.405   1.540 -0.1704  0.6443 -0.0578
  100GLOH    C1 9569   3.603   9.520   1.622  0.2074 -0.4371  0.4653
  100GLOH   H02 9570   3.572   9.607   1.564 -0.7144 -0.7148  0.5384
  100GLOH   H08 9571   3.707   9.545   1.640  0.9524 -2.9742 -0.1035
  100GLOH    C2 9572   3.528   9.515   1.754  0.0116 -1.1613  0.2434
  100GLOH   H04 9573   3.561   9.422   1.803 -0.4676 -1.4592  0.0082
  100GLOH    O2 9574   3.556   9.641   1.828 -0.2531 -0.2880 -0.3569
  100GLOH   H05 9575   3.509   9.715   1.787  0.2813  0.4067  0.2696
  100GLOH    C3 9576   3.374   9.501   1.725 -0.0385 -0.1093 -0.6555
  100GLOH   H06 9577   3.321   9.533   1.815  1.2213 -0.5263  0.2471
  100GLOH   H07 9578   3.346   9.396   1.718 -2.8069  0.5468 -0.2116
  100GLOH    O3 9579   3.327   9.590   1.625 -0.6635 -0.1672  0.4926
  100GLOH   H01 9580   3.289   9.674   1.657 -1.7967 -0.7617  0.7267
  101GLOH   H03 9581   4.189   2.032   1.747  0.4921 -0.3387  0.3744
  101GLOH    O1 9582   4.121   2.093   1.714  0.7012  0.1577  0.8495
  101GLOH    C1 9583   4.149   2.222   1.747  0.2064 -0.0324  0.4255
  101GLOH   H02 9584   4.076   2.283   1.695 -1.5873  0.2582  3.1754
  101GLOH   H08 9585   4.250   2.244   1.711 -0.0130 -0.3060 -0.3784
  101GLOH    C2 9586   4.133   2.253   1.894  0.8133 -0.1200 -0.9597
  101GLOH   H04 9587   4.151   2.361   1.907  1.3249 -0.2731 -0.4089
  101GLOH    O2 9588   3.999   2.234   1.935  0.5027 -0.3468 -0.2580
  101GLOH   H05 9589   3.943   2.237   1.855 -2.2808  2.4740  1.6518
  101GLOH    C3 9590   4.245   2.189   1.981 -0.0310 -0.6429  0.5220
  101GLOH   H06 9591   4.248   2.081   1.963 -0.2443 -0.5692  0.0354
  101GLOH   H07 9592   4.212   2.201   2.084  0.6671 -2.5732  1.0071
  101GLOH    O3 9593   4.376   2.238   1.948 -0.4133  0.0913  0.2149
  101GLOH   H01 9594   4.439   2.198   2.010 -1.0826 -0.1967  0.7117
  102GLOH   H03 9595   3.336   1.139   2.836 -0.6905 -3.7055 -1.8841
  102GLOH    O1 9596   3.433   1.133   2.823 -0.1419  0.6299 -0.6745
  102GLOH    C1 9597   3.441   1.112   2.678 -0.4194  0.1314 -0.2170
  102GLOH   H02 9598   3.543   1.128   2.641  0.1329 -1.0345  0.7441
  102GLOH   H08 9599   3.390   1.193   2.627  1.3974  0.6537 -1.2689
  102GLOH    C2 9600   3.388   0.972   2.626 -0.0924 -0.2358 -0.3765
  102GLOH   H04 9601   3.279   0.978   2.634 -0.0798 -2.2428  2.0817
  102GLOH    O2 9602   3.415   0.964   2.484 -0.8191  0.4126 -0.3744
  102GLOH   H05 9603   3.331   0.966   2.436 -0.0973 -1.6445 -1.7540
  102GLOH    C3 9604   3.431   0.856   2.710 -0.3279  0.1421 -0.0651
  102GLOH   H06 9605   3.401   0.859   2.814 -2.3342  0.7107 -0.6196
  102GLOH   H07 9606   3.540   0.852   2.706 -0.2124  0.4543  2.1261
  102GLOH    O3 9607   3.384   0.729   2.658  0.3694 -0.2052 -0.3026
  102GLOH   H01 9608   3.437   0.658   2.700 -0.1064 -1.4676 -1.7913
  103GLOH   H03 9609   3.473   9.718   0.593  0.5652  2.0801 -0.6496
  103GLOH    O1 9610   3.509   9.735   0.682  0.0558 -0.4827  0.0808
  103GLOH    C1 9611   3.556   9.607   0.728  0.1737 -0.1331  0.2542
  103GLOH   H02 9612   3.484   9.531   0.697 -0.2950  0.2760  0.3332
  103GLOH   H08 9613   3.552   9.607   0.837 -1.6022  1.5322  0.2181
  103GLOH    C2 9614   3.694   9.576   0.673 -0.3234 -0.3591  0.7783
  103GLOH   H04 9615   3.687   9.568   0.564 -2.8303  2.7622  0.6307
  103GLOH    O2 9616   3.788   9.675   0.703 -0.4919  0.1228 -0.7961
  103GLOH   H05 9617   3.756   9.760   0.668 -2.4621  0.4348  1.5982
  103GLOH    C3 9618   3.753   9.439   0.723 -0.2271  0.1631 -0.6011
  103GLOH   H06 9619   3.731   9.450   0.829 -1.9981 -1.8590 -0.7362
  103GLOH   H07 9620   3.862   9.426   0.722  0.2135  3.2885 -0.1307
  103GLOH    O3 9621   3.679   9.332   0.662 -0.4830  0.5739  0.0119
  103GLOH   H01 9622   3.709   9.242   0.687 -0.5124  0.6339  0.2558
  104GLOH   H03 9623   3.248   1.896   0.194  2.4747  1.0200 -2.4482
  104GLOH    O1 9624   3.316   1.929   0.256  0.2877  0.4326  0.3330
  104GLOH    C1 9625   3.256   1.942   0.383 -0.0836 -0.0011 -0.1229
  104GLOH   H02 9626   3.253   1.848   0.438  1.1361  0.1026  0.1237
  104GLOH   H08 9627   3.153   1.979   0.379  0.3043  1.2587  1.2690
  104GLOH    C2 9628   3.316   2.060   0.462  0.2388  0.2186 -0.5800
  104GLOH   H04 9629   3.282   2.158   0.426  0.3426 -0.6578 -3.1786
  104GLOH    O2 9630   3.255   2.052   0.592 -0.0337  0.3894 -0.1881
  104GLOH   H05 9631   3.297   1.983   0.647 -1.1827  0.5412  0.9201
  104GLOH    C3 9632   3.471   2.055   0.465 -0.6117 -0.0159 -0.2418
  104GLOH   H06 9633   3.497   1.964   0.520  0.5626 -0.7957 -2.0440
  104GLOH   H07 9634   3.512   2.134   0.528  1.0217 -2.3193  1.6923
  104GLOH    O3 9635   3.535   2.051   0.328  0.3954  0.0784 -0.2698
  104GLOH   H01 9636   3.476   1.996   0.274  1.3485 -0.7202 -0.5087
  105GLOH   H03 9637   2.765   0.946   2.179  0.0590 -1.1311  1.1818
  105GLOH    O1 9638   2.746   0.882   2.108 -0.8131 -0.5060  0.8332
  105GLOH    C1 9639   2.844   0.779   2.123  0.4825 -0.1409  0.5464
  105GLOH   H02 9640   2.944   0.808   2.092 -0.5667  1.7933 -1.1789
  105GLOH   H08 9641   2.815   0.696   2.058  1.7888  0.4515 -0.8156
  105GLOH    C2 9642   2.857   0.726   2.276  0.4866 -0.6190  0.0358
  105GLOH   H04 9643   2.859   0.815   2.340  1.4509  0.8818 -1.9846
  105GLOH    O2 9644   2.747   0.647   2.317  0.6505 -0.0595 -0.1229
  105GLOH   H05 9645   2.751   0.565   2.265 -2.3344 -0.6816  0.5608
  105GLOH    C3 9646   2.989   0.649   2.298  0.6077 -0.4780 -0.1687
  105GLOH   H06 9647   2.992   0.563   2.231 -1.2352  0.8131 -1.9723
  105GLOH   H07 9648   3.004   0.614   2.400 -0.5480  0.1595  0.2159
  105GLOH    O3 9649   3.105   0.733   2.272  0.0148  0.7384 -0.4608
  105GLOH   H01 9650   3.181   0.677   2.247 -0.6768  0.1954 -1.4256
  106GLOH   H03 9651   2.342   1.131   2.292 -0.2081 -1.2597 -1.8193
  106GLOH    O1 9652   2.378   1.208   2.246  0.3620 -0.2130  0.3395
  106GLOH    C1 9653   2.284   1.243   2.137 -0.1135 -0.1849 -0.1092
  106GLOH   H02 9654   2.186   1.266   2.177  0.4104  2.2236 -0.1347
  106GLOH   H08 9655   2.277   1.163   2.063 -0.2645 -0.6109  0.3640
  106GLOH    C2 9656   2.335   1.377   2.068 -0.0923 -1.1611 -0.2188
  106GLOH   H04 9657   2.431   1.361   2.016  0.1220 -0.0730 -0.1737
  106GLOH    O2 9658   2.243   1.413   1.972 -0.5937 -0.4543 -0.2916
  106GLOH   H05 9659   2.267   1.347   1.905  2.9357 -1.7432  2.0769
  106GLOH    C3 9660   2.359   1.489   2.170  0.3934  0.0800 -0.0978
  106GLOH   H06 9661   2.269   1.514   2.225  1.2700 -1.0444  1.9077
  106GLOH   H07 9662   2.389   1.578   2.115  1.0968 -0.9769 -1.5045
  106GLOH    O3 9663   2.468   1.443   2.253  0.2483  0.5998 -0.2239
  106GLOH   H01 9664   2.444   1.350   2.272  0.8539  0.2710 -1.0792
  107GLOH   H03 9665   3.114   9.617   1.141 -1.0226  0.0017  0.7542
  107GLOH    O1 9666   3.134   9.643   1.232  0.5182  0.9099  0.1617
  107GLOH    C1 9667   3.013   9.650   1.307  0.4001 -0.1188  0.1233
  107GLOH   H02 9668   2.920   9.637   1.251 -0.1375 -0.1495  1.0040
  107GLOH   H08 9669   3.010   9.743   1.364  0.0243 -0.3857  0.5458
  107GLOH    C2 9670   2.995   9.525   1.392  0.1047 -0.0395  0.1023
  107GLOH   H04 9671   3.079   9.529   1.462  0.9279 -1.2556 -0.7924
  107GLOH    O2 9672   2.879   9.537   1.477 -0.1035  0.2416  0.2028
  107GLOH   H05 9673   2.802   9.502   1.429  0.8369  0.1512 -1.2878
  107GLOH    C3 9674   3.004   9.387   1.325 -0.1322 -0.7591 -0.4428
  107GLOH   H06 9675   2.929   9.375   1.246  0.3788 -0.7447 -0.9342
  107GLOH   H07 9676   2.972   9.317   1.402  1.7301  0.9370  1.9731
  107GLOH    O3 9677   3.130   9.349   1.264 -0.0488  0.4532  0.3122
  107GLOH   H01 9678   3.202   9.363   1.329  0.1334 -2.9400  0.9703
  108GLOH   H03 9679   2.493   0.462   1.790 -1.5451  0.1395 -0.3527
  108GLOH    O1 9680   2.499   0.438   1.696 -0.1983 -0.1470 -0.1987
  108GLOH    C1 9681   2.508   0.561   1.627  0.3069 -0.2233 -0.6054
  108GLOH   H02 9682   2.607   0.588   1.593  0.3982  2.1181  1.3366
  108GLOH   H08 9683   2.491   0.643   1.697  1.1930 -0.7288  0.2163
  108GLOH    C2 9684   2.422   0.577   1.504  0.8340  0.6679  0.1416
  108GLOH   H04 9685   2.415   0.485   1.444 -1.9911  1.7559 -1.3078
  108GLOH    O2 9686   2.289   0.609   1.547  1.0409 -0.4518  0.0756
  108GLOH   H05 9687   2.278   0.613   1.643 -0.9049 -2.3081 -0.0295
  108GLOH    C3 9688   2.477   0.686   1.407  1.0387 -0.0335  0.0019
  108GLOH   H06 9689   2.578   0.663   1.374  1.6943  0.3242  1.7264
  108GLOH   H07 9690   2.488   0.771   1.473  1.3787 -2.3692  3.0540
  108GLOH    O3 9691   2.399   0.706   1.289 -0.3668  0.1324 -0.7223
  108GLOH   H01 9692   2.465   0.711   1.216  0.7975  1.7516  0.4108
  109GLOH   H03 9693   4.392   1.705   0.798  0.6971  0.6323 -1.1451
  109GLOH    O1 9694   4.466   1.642   0.797  0.1816 -0.0093  0.2086
  109GLOH    C1 9695   4.421   1.504   0.813  0.7590  0.8087  0.2563
  109GLOH   H02 9696   4.487   1.433   0.763 -2.6683 -2.3076 -0.0591
  109GLOH   H08 9697   4.323   1.491   0.766 -0.0673 -0.7946  2.3131
  109GLOH    C2 9698   4.392   1.452   0.954 -0.2972 -0.1469 -0.1529
  109GLOH   H04 9699   4.306   1.505   0.998  0.2371  1.2362 -0.7521
  109GLOH    O2 9700   4.362   1.312   0.948 -0.4520 -0.0404 -0.6319
  109GLOH   H05 9701   4.330   1.292   1.038 -1.2657 -0.2573 -0.9706
  109GLOH    C3 9702   4.505   1.465   1.053 -0.1858 -0.9283 -0.0418
  109GLOH   H06 9703   4.597   1.436   1.002  0.9501  1.1328  0.7920
  109GLOH   H07 9704   4.494   1.404   1.143  4.1593  0.0023  1.2442
  109GLOH    O3 9705   4.522   1.607   1.097 -0.0397 -0.2138 -0.3320
  109GLOH   H01 9706   4.541   1.668   1.023  3.3888 -0.8612 -0.0453
  110GLOH   H03 9707   2.497   2.019   0.986  1.5668 -0.4584  0.0483
  110GLOH    O1 9708   2.528   2.075   1.060  0.0967  0.1278  0.2504
  110GLOH    C1 9709   2.587   1.999   1.172 -0.0665 -0.3396 -0.4376
  110GLOH   H02 9710   2.692   2.027   1.181 -0.4665  1.8357 -2.2041
  110GLOH   H08 9711   2.586   1.890   1.159  0.9422 -0.2740 -1.1731
  110GLOH    C2 9712   2.508   2.019   1.297  0.3309 -1.0158 -0.5973
  110GLOH   H04 9713   2.407   1.981   1.280 -0.4118  0.0366  1.3976
  110GLOH    O2 9714   2.566   1.952   1.412  0.6462 -0.1664  0.0562
  110GLOH   H05 9715   2.624   2.014   1.459 -0.2812  0.1979  0.7322
  110GLOH    C3 9716   2.503   2.170   1.317  0.4541  0.6654 -0.1525
  110GLOH   H06 9717   2.447   2.177   1.411  0.5610  1.1423 -0.1199
  110GLOH   H07 9718   2.438   2.222   1.246 -1.3444 -1.6440 -0.2382
  110GLOH    O3 9719   2.626   2.244   1.339 -0.4295 -0.2101 -0.9655
  110GLOH   H01 9720   2.650   2.231   1.433 -1.9190  0.0170 -0.5344
  111GLOH   H03 9721   2.774   1.653   2.787  1.4918  1.7541  0.3376
  111GLOH    O1 9722   2.753   1.684   2.697 -0.0808 -0.2918 -0.0209
  111GLOH    C1 9723   2.835   1.781   2.638 -0.2206 -0.1363 -0.4473
  111GLOH   H02 9724   2.895   1.832   2.713  0.1637 -0.0229 -0.8308
  111GLOH   H08 9725   2.767   1.851   2.587 -1.3256 -1.6971 -1.1599
  111GLOH    C2 9726   2.939   1.732   2.532 -0.0266 -0.7604  0.4144
  111GLOH   H04 9727   3.010   1.677   2.596  1.6776 -1.8475 -2.3457
  111GLOH    O2 9728   2.885   1.648   2.432 -0.4271  0.5849  0.4273
  111GLOH   H05 9729   2.953   1.596   2.386 -1.4141  0.3158 -0.7554
  111GLOH    C3 9730   3.007   1.851   2.463 -0.1331  0.4275 -0.0915
  111GLOH   H06 9731   2.929   1.919   2.430  0.1342 -0.9260 -3.7358
  111GLOH   H07 9732   3.054   1.816   2.371 -0.4096 -2.3061  0.7618
  111GLOH    O3 9733   3.097   1.927   2.546  0.6845  0.0987 -0.1882
  111GLOH   H01 9734   3.161   1.985   2.500  2.2119 -0.4534  1.1812
  112GLOH   H03 9735   2.562   1.449   1.246 -2.8680  1.6817  2.4864
  112GLOH    O1 9736   2.519   1.362   1.248 -0.1227  0.2050  0.1534
  112GLOH    C1 9737   2.558   1.275   1.140  0.0645 -0.3331  0.2020
  112GLOH   H02 9738   2.497   1.185   1.148  1.4700 -1.3732 -0.4382
  112GLOH   H08 9739   2.663   1.246   1.147  0.0148 -0.3096  1.2062
  112GLOH    C2 9740   2.529   1.344   1.005  0.0502 -0.3496  0.0113
  112GLOH   H04 9741   2.420   1.344   0.991 -0.0599 -0.7949  0.8548
  112GLOH    O2 9742   2.575   1.479   0.993  0.0301 -0.2023 -0.5036
  112GLOH   H05 9743   2.498   1.523   0.953  0.4459  0.4404 -0.6047
  112GLOH    C3 9744   2.565   1.251   0.893 -0.2071 -0.0297  0.0708
  112GLOH   H06 9745   2.564   1.309   0.800  0.3927 -1.6699 -0.9826
  112GLOH   H07 9746   2.478   1.188   0.871  0.3351 -0.6820 -0.2066
  112GLOH    O3 9747   2.680   1.170   0.913  0.2719 -0.3177  0.3705
  112GLOH   H01 9748   2.638   1.086   0.939 -2.3598  0.8696  0.0843
  113GLOH   H03 9749   3.191   2.161   2.041  4.8366 -0.2854  1.1175
  113GLOH    O1 9750   3.163   2.134   2.131  0.1956 -0.2964 -0.2107
  113GLOH    C1 9751   3.044   2.055   2.128 -0.1398  0.5090  0.4503
  113GLOH   H02 9752   3.058   1.966   2.189  2.0739  0.5894  0.0776
  113GLOH   H08 9753   3.014   2.015   2.031 -0.2108  0.4148  0.5111
  113GLOH    C2 9754   2.927   2.127   2.188  0.0833  0.6069  0.3991
  113GLOH   H04 9755   2.844   2.055   2.183  0.2643  0.3791  0.6026
  113GLOH    O2 9756   2.965   2.148   2.329  0.0233 -0.2890  1.1122
  113GLOH   H05 9757   3.061   2.134   2.327  0.4112  2.3658 -1.6064
  113GLOH    C3 9758   2.885   2.257   2.109  0.1050  0.2901  0.3311
  113GLOH   H06 9759   2.934   2.351   2.138  1.3729 -0.8676  2.0926
  113GLOH   H07 9760   2.783   2.287   2.135 -0.0074  1.0351 -0.9491
  113GLOH    O3 9761   2.900   2.244   1.968  0.2531  0.3181 -0.1771
  113GLOH   H01 9762   2.995   2.226   1.955 -0.1182 -1.8781 -0.1120
  114GLOH   H03 9763   3.829   1.502   1.121  3.2568  1.4725 -0.4589
  114GLOH    O1 9764   3.874   1.415   1.125  0.0515 -0.2436 -0.1453
  114GLOH    C1 9765   3.815   1.343   1.239 -0.2747  0.2652 -0.4131
  114GLOH   H02 9766   3.843   1.237   1.239  1.3191  0.6793 -0.7268
  114GLOH   H08 9767   3.706   1.348   1.229 -0.3814 -1.4584 -0.3133
  114GLOH    C2 9768   3.853   1.404   1.374  0.2375  0.0172  0.6206
  114GLOH   H04 9769   3.961   1.422   1.360 -0.0860  1.5684  0.0972
  114GLOH    O2 9770   3.791   1.538   1.381  0.2753 -0.5622  0.2342
  114GLOH   H05 9771   3.695   1.532   1.380  0.2623 -0.2971 -0.1114
  114GLOH    C3 9772   3.813   1.313   1.488 -0.5394  0.0642 -0.3535
  114GLOH   H06 9773   3.707   1.291   1.481 -0.2800 -0.7259 -1.8517
  114GLOH   H07 9774   3.834   1.375   1.576 -2.0747 -0.2702  0.2723
  114GLOH    O3 9775   3.886   1.194   1.492 -0.4955 -0.3626  0.5987
  114GLOH   H01 9776   3.979   1.217   1.473 -1.1303 -0.2987 -2.6797
  115GLOH   H03 9777   3.679   0.711   0.643  0.5627  0.4836 -0.2936
  115GLOH    O1 9778   3.602   0.680   0.695  0.4849  0.4095 -0.4542
  115GLOH    C1 9779   3.634   0.545   0.732 -0.0782  0.5087  0.2888
  115GLOH   H02 9780   3.678   0.542   0.832 -0.2035  0.4115  0.3404
  115GLOH   H08 9781   3.713   0.508   0.666  0.7881  0.2191  1.4678
  115GLOH    C2 9782   3.511   0.456   0.713  0.2762 -0.5568 -0.7005
  115GLOH   H04 9783   3.547   0.352   0.713  0.9274 -0.3448  0.6988
  115GLOH    O2 9784   3.409   0.471   0.813  0.9456  0.0670  0.3625
  115GLOH   H05 9785   3.455   0.469   0.899  1.8299  0.3598 -0.0936
  115GLOH    C3 9786   3.447   0.485   0.577 -0.3910 -0.3511 -1.0175
  115GLOH   H06 9787   3.424   0.591   0.573  0.7338  0.0076  1.1159
  115GLOH   H07 9788   3.351   0.433   0.567  0.3344 -1.7805 -0.7156
  115GLOH    O3 9789   3.525   0.454   0.465  0.5695 -0.5117 -0.2476
  115GLOH   H01 9790   3.552   0.361   0.474  0.3196 -0.3956  1.9502
  116GLOH   H03 9791   2.724   0.258   0.444 -0.1830  0.0281  0.0284
  116GLOH    O1 9792   2.793   0.189   0.437  0.0845  0.2442  0.4794
  116GLOH    C1 9793   2.907   0.232   0.511 -0.3212 -0.1648 -0.1987
  116GLOH   H02 9794   2.987   0.159   0.495  1.5231  1.7322  0.1461
  116GLOH   H08 9795   2.901   0.236   0.619 -0.6535 -0.6801 -0.1985
  116GLOH    C2 9796   2.957   0.366   0.455 -0.5173  0.2109 -0.1905
  116GLOH   H04 9797   2.876   0.440   0.458 -1.4970 -0.8343 -0.6280
  116GLOH    O2 9798   3.055   0.417   0.543 -0.0356 -0.0382  0.3194
  116GLOH   H05 9799   3.059   0.514   0.531  0.2260 -0.3218 -2.0221
  116GLOH    C3 9800   3.008   0.347   0.311 -0.5312  0.2977 -0.5278
  116GLOH   H06 9801   2.927   0.294   0.260 -0.4592  0.0912 -0.4237
  116GLOH   H07 9802   3.091   0.277   0.305  0.1591  1.0697  0.0605
  116GLOH    O3 9803   3.046   0.466   0.242  0.5719 -0.2721  0.6089
  116GLOH   H01 9804   3.143   0.463   0.241  0.6336  1.5225 -0.2839
  117GLOH   H03 9805   3.778   1.014   0.992  0.3703 -0.0983 -1.3224
  117GLOH    O1 9806   3.750   1.103   0.963  0.2048  0.1327 -0.4732
  117GLOH    C1 9807   3.620   1.094   0.906  0.8127 -0.9785  0.2210
  117GLOH   H02 9808   3.558   1.047   0.982 -0.6520  0.9513  0.2476
  117GLOH   H08 9809   3.614   1.035   0.814  1.8349 -0.5089 -0.1506
  117GLOH    C2 9810   3.566   1.235   0.877 -0.1670 -0.4350 -0.1580
  117GLOH   H04 9811   3.624   1.290   0.801 -1.5454 -0.0143 -0.9346
  117GLOH    O2 9812   3.436   1.228   0.814 -0.3176  0.0651 -0.0330
  117GLOH   H05 9813   3.364   1.244   0.877 -2.2864 -1.9536 -1.6885
  117GLOH    C3 9814   3.567   1.316   1.005 -0.3120  0.6999  0.7333
  117GLOH   H06 9815   3.545   1.420   0.984  0.8666  0.6474 -0.7795
  117GLOH   H07 9816   3.669   1.309   1.043 -0.0224  0.2828 -0.1003
  117GLOH    O3 9817   3.486   1.270   1.108 -0.2737 -0.2515  0.7808
  117GLOH   H01 9818   3.394   1.296   1.087 -0.1432 -1.0065 -0.7874
  118GLOH   H03 9819   3.968   0.187   2.010 -0.0237 -0.0868 -0.8380
  118GLOH    O1 9820   3.900   0.257   2.002 -0.6708 -0.6619 -0.4540
  118GLOH    C1 9821   3.943   0.370   2.078 -0.1919 -0.0236  0.2681
  118GLOH   H02 9822   3.984   0.344   2.175  1.1362  2.2460  0.3478
  118GLOH   H08 9823   3.862   0.441   2.098  1.7103  1.6950  2.0828
  118GLOH    C2 9824   4.058   0.444   2.013  0.4364 -0.0795  0.0124
  118GLOH   H04 9825   4.037   0.446   1.905  0.7367 -1.5274 -0.0725
  118GLOH    O2 9826   4.064   0.577   2.070 -0.0223 -0.6969 -0.9341
  118GLOH   H05 9827   4.069   0.633   1.991  2.3777 -0.6078 -0.7660
  118GLOH    C3 9828   4.188   0.373   2.021  0.1416  0.5354  0.2235
  118GLOH   H06 9829   4.208   0.332   2.120 -0.2012 -1.5444 -0.5416
  118GLOH   H07 9830   4.270   0.443   2.001  0.5021  0.3024  0.8641
  118GLOH    O3 9831   4.188   0.269   1.924  0.8681  0.4375 -0.1608
  118GLOH   H01 9832   4.189   0.314   1.837  2.1820  0.6217 -0.0633
  119GLOH   H03 9833   2.231   1.261   1.403  1.5418  1.3751  0.8319
  119GLOH    O1 9834   2.235   1.205   1.483  0.0882  0.2473  0.1335
  119GLOH    C1 9835   2.199   1.072   1.437  0.1512  0.0736  0.3047
  119GLOH   H02 9836   2.268   1.052   1.355  0.0072 -1.9409  0.6573
  119GLOH   H08 9837   2.098   1.075   1.397  0.1947 -0.0876  0.1810
  119GLOH    C2 9838   2.200   0.980   1.563 -0.6422 -0.2553  0.0600
  119GLOH   H04 9839   2.119   1.018   1.628 -1.3669  0.9063 -1.4991
  119GLOH    O2 9840   2.157   0.851   1.512 -0.6027  0.1433  0.4606
  119GLOH   H05 9841   2.191   0.783   1.573  0.7910  2.1904  2.0987
  119GLOH    C3 9842   2.344   0.985   1.620  0.3440  0.1360 -0.3768
  119GLOH   H06 9843   2.379   1.086   1.638  2.1750  0.1353 -3.4621
  119GLOH   H07 9844   2.413   0.942   1.546 -0.3403 -1.1403 -0.2831
  119GLOH    O3 9845   2.356   0.907   1.738  0.3545 -0.3885 -0.6167
  119GLOH   H01 9846   2.421   0.959   1.789  0.1898 -1.3143  0.5475
  120GLOH   H03 9847   3.683   1.660   1.169  1.0048 -1.3447  1.7729
  120GLOH    O1 9848   3.714   1.618   1.087 -0.9633  0.3224  0.0914
  120GLOH    C1 9849   3.727   1.727   0.987  0.3571  0.9625  0.2729
  120GLOH   H02 9850   3.644   1.712   0.918 -0.1860  1.8781  0.7057
  120GLOH   H08 9851   3.823   1.720   0.936  1.6258  0.8184  2.6241
  120GLOH    C2 9852   3.715   1.866   1.052 -0.0351  0.6737 -0.1888
  120GLOH   H04 9853   3.616   1.877   1.100  0.7685  0.8554  1.4640
  120GLOH    O2 9854   3.813   1.877   1.160 -0.6225 -0.3579  0.3671
  120GLOH   H05 9855   3.886   1.817   1.137  1.1918  2.4951 -1.7651
  120GLOH    C3 9856   3.751   1.978   0.945 -0.0555  0.1763 -0.6699
  120GLOH   H06 9857   3.856   2.004   0.947 -0.2472  0.8251  1.9169
  120GLOH   H07 9858   3.695   2.064   0.980 -0.6579 -0.5824  0.2629
  120GLOH    O3 9859   3.702   1.949   0.815  0.0900 -0.4848  0.6040
  120GLOH   H01 9860   3.703   2.033   0.766 -1.5482 -0.3848  0.7351
  122ACOH    H4 9861   2.787   0.048   0.957  0.0402 -0.4596 -0.6295
  122ACOH    O2 9862   2.843  -0.014   1.007  0.0723  0.4061  0.4251
  122ACOH    C2 9863   2.952   0.053   1.044  0.0176  0.6056 -0.1927
  122ACOH    O1 9864   2.993   0.156   0.994  0.0004 -0.2277  0.0142
  122ACOH    C1 9865   3.019  -0.025   1.150  0.3441  0.7222  0.1717
  122ACOH    H1 9866   2.987  -0.129   1.140  0.0874  0.7802  0.4037
  122ACOH    H2 9867   2.973   0.013   1.240 -0.8138  0.2993 -0.2272
  122ACOH    H3 9868   3.128  -0.017   1.149  0.3863  0.1789  0.1845
  123ACOH    H4 9869   3.575   8.723   0.990 -0.2754  0.4261  0.2868
  123ACOH    O2 9870   3.596   8.640   0.946  0.2336  0.1373  1.0607
  123ACOH    C2 9871   3.734   8.649   0.929 -0.6957  0.5522 -0.0426
  123ACOH    O1 9872   3.812   8.715   0.997  0.1010  0.4769 -0.4875
  123ACOH    C1 9873   3.784   8.533   0.851 -0.0468  0.3574 -0.1959
  123ACOH    H1 9874   3.852   8.554   0.769  0.1171 -0.3688 -0.2530
  123ACOH    H2 9875   3.700   8.488   0.798  2.6468 -2.5633 -2.1708
  123ACOH    H3 9876   3.817   8.462   0.927  2.3379  1.8833  0.2230
  125ACOH    H4 9877   3.734   1.340   0.282 -0.2865 -1.0267 -0.1887
  125ACOH    O2 9878   3.825   1.366   0.304 -0.6713  0.2420 -0.0553
  125ACOH    C2 9879   3.836   1.381   0.439 -0.1685 -0.0181 -0.0850
  125ACOH    O1 9880   3.746   1.381   0.522 -0.3759 -0.0300 -0.4900
  125ACOH    C1 9881   3.978   1.401   0.490 -0.6306  0.1535 -0.7719
  125ACOH    H1 9882   4.017   1.500   0.466  1.3401 -0.1862  0.9008
  125ACOH    H2 9883   4.044   1.320   0.462 -2.7227 -1.5633 -0.8430
  125ACOH    H3 9884   3.977   1.408   0.599  0.4425  0.4113 -0.7731
  126ACOH    H4 9885   2.673   9.396   0.350 -0.0942  0.5191 -2.0313
  126ACOH    O2 9886   2.670   9.304   0.317 -0.7392 -0.4105  0.4481
  126ACOH    C2 9887   2.575   9.291   0.222  0.2429 -0.0587  0.4201
  126ACOH    O1 9888   2.497   9.375   0.172  0.1481  0.0138 -0.1495
  126ACOH    C1 9889   2.552   9.147   0.185 -0.3088 -0.8398 -0.2422
  126ACOH    H1 9890   2.463   9.113   0.238 -1.5483  1.2282 -0.9207
  126ACOH    H2 9891   2.643   9.091   0.206 -0.8840 -1.3827  0.8674
  126ACOH    H3 9892   2.528   9.136   0.079 -0.3744  1.3129 -0.4698
  127ACOH    H4 9893   3.659   2.525   1.227  1.8929 -0.5691  1.6580
  127ACOH    O2 9894   3.717   2.541   1.150 -0.0238 -0.4053  0.2254
  127ACOH    C2 9895   3.829   2.587   1.201 -0.2791  0.1981 -0.1982
  127ACOH    O1 9896   3.843   2.635   1.311 -0.4878 -0.1246 -0.1052
  127ACOH    C1 9897   3.931   2.613   1.099  0.0836 -0.1931 -0.2696
  127ACOH    H1 9898   4.000   2.695   1.114  0.3501 -0.6489  1.1017
  127ACOH    H2 9899   3.891   2.639   1.001 -0.4840 -0.0968 -0.0171
  127ACOH    H3 9900   3.985   2.519   1.091  0.5004  0.0446 -0.2463
  128ACOH    H4 9901   3.788   9.557   2.610  0.3101 -0.6148  0.2323
  128ACOH    O2 9902   3.717   9.582   2.671  0.2934 -0.0179 -0.0351
  128ACOH    C2 9903   3.761   9.584   2.797 -0.7980 -0.3567 -0.1094
  128ACOH    O1 9904   3.878   9.586   2.835  0.3012 -0.3713  0.1992
  128ACOH    C1 9905   3.653   9.631   2.887 -0.7138 -0.0968  0.0079
  128ACOH    H1 9906   3.570   9.562   2.870  0.5989 -1.3604 -1.3067
  128ACOH    H2 9907   3.624   9.730   2.852  0.5243  1.1936  2.4692
  128ACOH    H3 9908   3.690   9.640   2.989  1.1536 -0.3892 -0.6280
  129ACOH    H4 9909   4.228   9.547   1.672  2.1368  0.3551 -2.7061
  129ACOH    O2 9910   4.299   9.576   1.731  0.4703 -0.5208 -0.2081
  129ACOH    C2 9911   4.361   9.688   1.682  0.1206 -0.3100  0.6406
  129ACOH    O1 9912   4.339   9.731   1.567 -0.1518  0.0697 -0.1904
  129ACOH    C1 9913   4.456   9.751   1.782  0.7630  0.0249 -0.3213
  129ACOH    H1 9914   4.498   9.673   1.846  1.8965 -2.0353 -3.5012
  129ACOH    H2 9915   4.401   9.816   1.850 -0.6556 -1.8715  0.3856
  129ACOH    H3 9916   4.538   9.804   1.734 -0.7662  2.4685 -0.3246
  130ACOH    H4 9917   4.496   0.752   1.468 -1.4969 -0.4195  0.7053
  130ACOH    O2 9918   4.557   0.717   1.535 -0.3075  0.0068 -0.1520
  130ACOH    C2 9919   4.664   0.679   1.466  1.0226  0.6145  0.6381
  130ACOH    O1 9920   4.666   0.663   1.345 -0.1225 -0.3387  0.2255
  130ACOH    C1 9921   4.763   0.619   1.557  0.4658 -0.4052  0.4315
  130ACOH    H1 9922   4.787   0.518   1.525  2.3486  0.3963 -0.8443
  130ACOH    H2 9923   4.722   0.590   1.653 -0.8479 -0.8061 -0.2417
  130ACOH    H3 9924   4.854   0.679   1.570 -0.3745  0.7361  1.1275
  131ACOH    H4 9925   3.055   9.359   2.180  1.2043 -2.1259  0.2668
  131ACOH    O2 9926   2.981   9.296   2.189 -0.7751  0.1382  0.4037
  131ACOH    C2 9927   2.907   9.281   2.082 -0.2996 -0.1580  0.0780
  131ACOH    O1 9928   2.930   9.333   1.974 -0.1821  0.5731  0.3895
  131ACOH    C1 9929   2.793   9.182   2.086  0.2979  0.7012 -0.3917
  131ACOH    H1 9930   2.719   9.190   2.006  0.1741 -0.0747 -0.3577
  131ACOH    H2 9931   2.741   9.188   2.181 -0.4086  1.7547 -0.8410
  131ACOH    H3 9932   2.840   9.084   2.077  0.8165  0.9072  0.0555
  132ACOH    H4 9933   3.864   9.078   1.808  0.7760  0.7650  0.3030
  132ACOH    O2 9934   3.946   9.027   1.799  0.1347 -0.3202  0.4596
  132ACOH    C2 9935   3.929   8.925   1.710  0.0182  0.3162 -0.0340
  132ACOH    O1 9936   3.822   8.883   1.669 -0.2332 -0.3014  0.6049
  132ACOH    C1 9937   4.058   8.857   1.681  0.0985  0.0080 -0.4291
  132ACOH    H1 9938   4.131   8.934   1.655 -2.0531  2.1448 -0.3433
  132ACOH    H2 9939   4.037   8.787   1.600 -0.9802 -0.6450  0.4091
  132ACOH    H3 9940   4.100   8.797   1.761 -0.5522 -1.7986 -1.4259
  133ACOH    H4 9941   3.705   2.100   0.269  0.0517  0.0437  0.6641
  133ACOH    O2 9942   3.759   2.170   0.230 -0.0278 -0.4234 -0.2949
  133ACOH    C2 9943   3.781   2.273   0.312 -0.1461 -0.2111  1.0816
  133ACOH    O1 9944   3.755   2.263   0.429  0.3777  0.1115  0.4673
  133ACOH    C1 9945   3.871   2.379   0.268  1.1791 -0.0229  0.2341
  133ACOH    H1 9946   3.819   2.474   0.280 -0.0501 -0.9892  3.2184
  133ACOH    H2 9947   3.900   2.356   0.166 -1.0364 -1.0860 -0.1957
  133ACOH    H3 9948   3.965   2.381   0.324  1.4401  2.3374 -0.2615
  134ACOH    H4 9949   4.090   2.719   2.210 -0.5646 -0.7395 -2.5533
  134ACOH    O2 9950   4.146   2.795   2.184 -0.1386 -0.1927 -0.1901
  134ACOH    C2 9951   4.152   2.792   2.052 -0.0211 -0.0032 -0.0594
  134ACOH    O1 9952   4.085   2.728   1.971  0.4726 -0.1392 -0.1008
  134ACOH    C1 9953   4.245   2.899   2.010 -0.1290 -0.1767 -0.3627
  134ACOH    H1 9954   4.304   2.874   1.922 -0.6379 -1.3136 -0.3950
  134ACOH    H2 9955   4.328   2.912   2.080 -0.6906 -1.9971  0.6923
  134ACOH    H3 9956   4.200   2.998   2.004  1.0533  0.2978 -1.4152
  135ACOH    H4 9957   3.773   8.789   0.384 -0.9084  2.1669  0.5473
  135ACOH    O2 9958   3.700   8.733   0.415  0.2007  0.3810  0.0515
  135ACOH    C2 9959   3.669   8.761   0.545  0.0930 -0.3267 -0.3922
  135ACOH    O1 9960   3.737   8.815   0.631 -0.2964  0.0071  0.1285
  135ACOH    C1 9961   3.561   8.667   0.587  0.1798 -0.2577  0.1321
  135ACOH    H1 9962   3.536   8.591   0.512 -1.9471  1.2328 -0.7286
  135ACOH    H2 9963   3.470   8.725   0.601 -0.0641  0.0998 -2.5663
  135ACOH    H3 9964   3.591   8.615   0.678  1.2350  1.7949  0.9618
  136ACOH    H4 9965   4.735   1.202   1.493  1.6987  0.8207 -0.2247
  136ACOH    O2 9966   4.753   1.230   1.584 -0.6526  0.2729  0.4264
  136ACOH    C2 9967   4.693   1.350   1.605 -0.4820  0.3782  0.3929
  136ACOH    O1 9968   4.626   1.411   1.525 -0.0283  0.2489 -0.6552
  136ACOH    C1 9969   4.726   1.396   1.740 -0.2636 -0.1393  0.0346
  136ACOH    H1 9970   4.784   1.488   1.739 -1.2036  0.4734  0.7644
  136ACOH    H2 9971   4.771   1.316   1.798  1.1262 -0.8230 -1.9266
  136ACOH    H3 9972   4.636   1.425   1.794 -0.9678 -1.5719 -0.3258
  138ACOH    H4 9973   4.154   9.237   0.293 -1.3161  0.3355 -0.1549
  138ACOH    O2 9974   4.172   9.332   0.304  0.1679  0.0186  0.2530
  138ACOH    C2 9975   4.133   9.366   0.429  0.4038  0.5345 -0.0719
  138ACOH    O1 9976   4.155   9.304   0.531  0.6364  0.0508  0.6990
  138ACOH    C1 9977   4.111   9.509   0.431  0.0379 -0.7945  0.5129
  138ACOH    H1 9978   4.208   9.559   0.441 -0.8059  1.3383 -1.5787
  138ACOH    H2 9979   4.050   9.528   0.520  0.3380  0.5306  0.4429
  138ACOH    H3 9980   4.060   9.549   0.344 -2.1515 -0.7052  1.7840
  139ACOH    H4 9981   4.833   1.246   0.809 -0.7240 -1.0854 -1.0667
  139ACOH    O2 9982   4.878   1.177   0.860 -0.0150  0.3812  0.3746
  139ACOH    C2 9983   4.872   1.065   0.785  0.3493 -0.2999  0.0071
  139ACOH    O1 9984   4.789   1.046   0.699  0.5945  0.3440 -0.1980
  139ACOH    C1 9985   4.950   0.958   0.849  0.1815 -0.2058 -0.2476
  139ACOH    H1 9986   4.882   0.881   0.886  0.0413  0.6414  1.2968
  139ACOH    H2 9987   5.008   0.992   0.934 -0.7671  0.3658  0.1757
  139ACOH    H3 9988   5.027   0.922   0.780  0.4914  1.2799 -0.6902
  141ACOH    H4 9989   4.127   2.458   1.486  0.6372  0.0569 -1.6467
  141ACOH    O2 9990   4.133   2.547   1.523  0.2882 -0.3377 -0.6107
  141ACOH    C2 9991   4.020   2.566   1.594 -0.2113  0.1385  0.4649
  141ACOH    O1 9992   3.952   2.484   1.649 -0.3374  0.1521 -0.4325
  141ACOH    C1 9993   3.997   2.704   1.628  0.0731 -0.2407 -0.6867
  141ACOH    H1 9994   3.894   2.726   1.653  0.6241 -0.0561  1.5064
  141ACOH    H2 9995   4.017   2.758   1.536  0.5255 -1.8028 -1.5361
  141ACOH    H3 9996   4.068   2.723   1.709 -1.3049 -2.0169  1.0083
  142ACOH    H4 9997   4.210   0.119   1.878 -0.2987  0.3169  1.7362
  142ACOH    O2 9998   4.188   0.034   1.837  0.8003  1.0638 -0.5022
  142ACOH    C2 9999   4.111  -0.029   1.935  0.2560 -0.3155 -0.1011
  142ACOH    O110000   4.061   0.020   2.035 -0.0232 -0.3386 -0.5209
  142ACOH    C110001   4.093  -0.167   1.881 -0.0276  0.2003 -0.5145
  142ACOH    H110002   4.161  -0.238   1.928  1.3686 -0.0557 -2.8465
  142ACOH    H210003   4.106  -0.174   1.773 -2.7807  0.8456 -0.9151
  142ACOH    H310004   3.990  -0.195   1.899 -0.0148  1.1758  1.1787
  147SOL     OW10005   3.892   1.327   0.886 -0.0597  0.7472 -0.0835
  147SOL    HW110006   3.820   1.258   0.891  0.1770  0.4403 -0.7520
  147SOL    HW210007   3.906   1.368   0.976 -1.2069  0.9498  0.0053
  149SOL     OW10008   2.218   0.968   0.892  0.2498  0.6835  0.0343
  149SOL    HW110009   2.205   0.959   0.990  1.0971  3.3707  0.4495
  149SOL    HW210010   2.265   0.887   0.856 -1.0950 -0.8236  1.6243
  150SOL     OW10011   2.159   1.402   1.011 -0.0446 -0.7955  0.2251
  150SOL    HW110012   2.172   1.345   0.930 -0.7380  1.8623 -1.8152
  150SOL    HW210013   2.085   1.468   0.995  0.9368  0.9068  2.3660
  151SOL     OW10014   2.309   0.318   2.246 -0.2899 -0.5663  0.3581
  151SOL    HW110015   2.301   0.218   2.243 -0.3220 -0.5202 -1.4931
  151SOL    HW210016   2.225   0.360   2.212 -0.2913  0.1069  1.1637
  152SOL     OW10017   3.619   2.236   1.989 -0.3955 -0.5509  0.2715
  152SOL    HW110018   3.688   2.214   1.920  0.1143 -1.5587  1.0881
  152SOL    HW210019   3.635   2.327   2.026  0.4743 -0.7660  0.4242
  153SOL     OW10020   3.481   1.248   1.458 -0.2381 -0.2997 -0.2350
  153SOL    HW110021   3.500   1.168   1.402 -1.6491 -0.9766  0.2357
  153SOL    HW210022   3.400   1.232   1.513  1.2296  0.2852  2.1674
  154SOL     OW10023   3.403   1.603   0.657  0.0835 -0.0737  0.4650
  154SOL    HW110024   3.498   1.593   0.685  0.0314  1.3483  1.1979
  154SOL    HW210025   3.379   1.530   0.593  1.6835 -0.3884  0.2040
  155SOL     OW10026   3.463   1.827   2.138  0.5967  0.1729  0.0550
  155SOL    HW110027   3.458   1.873   2.050  0.5107  1.3623  0.6671
  155SOL    HW210028   3.502   1.889   2.206 -0.6651 -0.2259  1.1794
  156SOL     OW10029   3.908   0.581   2.301 -0.3039  0.1877  0.4531
  156SOL    HW110030   3.821   0.631   2.295 -0.9692 -1.1442 -2.3387
  156SOL    HW210031   3.958   0.591   2.215  1.4771 -0.5436  1.3697
  158SOL     OW10032   2.563   0.695   1.094  0.7080  0.6415 -0.0845
  158SOL    HW110033   2.512   0.614   1.066  1.7661  0.4926 -1.5904
  158SOL    HW210034   2.660   0.684   1.071  1.1447  1.6592  1.1636
  160SOL     OW10035   2.052   0.710   1.317 -0.4054  0.8010  0.1346
  160SOL    HW110036   1.994   0.648   1.371  1.0119 -1.4606 -0.8934
  160SOL    HW210037   2.106   0.766   1.380  0.8441 -1.4383  1.1321
  161SOL     OW10038   2.226   0.564   1.807 -0.4295  0.6045  0.2008
  161SOL    HW110039   2.184   0.474   1.793  0.1777  0.0797  1.6678
  161SOL    HW210040   2.204   0.596   1.899  1.2107  0.9567  0.4714
  162SOL     OW10041   2.850   1.833   1.167  0.2320 -0.1156  0.2832
  162SOL    HW110042   2.896   1.874   1.088  1.7078  1.4134  1.8783
  162SOL    HW210043   2.851   1.897   1.243 -1.7787 -1.3030  1.3551
  163SOL     OW10044   3.107   2.402   1.131 -0.1268 -0.7207  0.5720
  163SOL    HW110045   3.148   2.353   1.054 -0.5812  0.1464 -0.2276
  163SOL    HW210046   3.018   2.362   1.152 -0.0299 -0.9173  0.6153
  165SOL     OW10047   3.726   1.826   1.422  0.1589  0.3961 -0.1358
  165SOL    HW110048   3.791   1.864   1.356  0.6281  1.2421  0.7971
  165SOL    HW210049   3.775   1.798   1.505 -0.7927  2.0517  1.0019
  166SOL     OW10050   2.593   0.374   0.405 -0.1317 -0.3751  0.4101
  166SOL    HW110051   2.576   0.403   0.311 -0.8978 -1.8450  0.0920
  166SOL    HW210052   2.606   0.455   0.462  1.5076  0.5267 -1.1600
  167SOL     OW10053   3.706   9.154   1.956 -0.1805  0.0902 -0.9435
  167SOL    HW110054   3.771   9.143   2.032  0.6541  0.6929 -1.5651
  167SOL    HW210055   3.616   9.174   1.993  0.3077  0.8073 -0.1067
  168SOL     OW10056   3.178   1.303   0.706 -0.2806  0.7936 -0.8440
  168SOL    HW110057   3.095   1.358   0.709 -0.5819  0.3033 -0.0556
  168SOL    HW210058   3.191   1.267   0.614 -0.9919  0.7904 -0.9447
  171SOL     OW10059   3.049   0.437   1.059  0.5905  0.1234  1.0057
  171SOL    HW110060   3.136   0.446   1.108  1.1828 -0.1826  0.0239
  171SOL    HW210061   3.035   0.341   1.035  0.8449  0.4172 -0.3742
  172SOL     OW10062   2.228  -0.010   2.206 -0.1140 -0.4395  0.4662
  172SOL    HW110063   2.316  -0.038   2.167 -0.0016  0.6103 -0.0470
  172SOL    HW210064   2.231  -0.020   2.306  1.5947  2.2364  0.7490
  173SOL     OW10065   2.369   0.150   1.454  0.1951 -0.1403 -0.4222
  173SOL    HW110066   2.290   0.209   1.468 -0.8144 -1.2838 -1.2487
  173SOL    HW210067   2.452   0.201   1.476 -0.7096  1.3122 -0.2903
  174SOL     OW10068   3.356   9.731   2.006  0.4102 -0.5746  0.3703
  174SOL    HW110069   3.431   9.752   2.069  0.5780  0.1239 -0.0610
  174SOL    HW210070   3.390   9.731   1.912 -0.2039  0.0950  0.1439
  176SOL     OW10071   2.422   0.165   0.387  0.2156 -0.6521 -0.5152
  176SOL    HW110072   2.482   0.086   0.377 -0.4017 -1.0331 -1.2523
  176SOL    HW210073   2.475   0.244   0.419  0.8212 -1.3805  0.3255
  177SOL     OW10074   2.598   9.553   2.023 -0.3197  0.7753  0.4679
  177SOL    HW110075   2.621   9.624   2.090  0.8158  0.2231  0.6833
  177SOL    HW210076   2.555   9.476   2.069 -0.4076  0.7963  0.4196
  178SOL     OW10077   3.339   9.395   1.397  0.1129  0.3874 -0.2982
  178SOL    HW110078   3.376   9.302   1.394  0.5138  0.5321  0.0776
  178SOL    HW210079   3.371   9.441   1.480  0.3420  1.0304 -0.7385
  179SOL     OW10080   2.511   9.430   2.254 -0.0058  0.0578 -0.2679
  179SOL    HW110081   2.451   9.358   2.290  0.1158  0.1475  0.1212
  179SOL    HW210082   2.596   9.431   2.307  0.0252  0.4373 -0.3247
  180SOL     OW10083   2.241   0.868   1.179 -0.0014 -0.4932 -0.0281
  180SOL    HW110084   2.153   0.829   1.206 -0.3332  0.8607  0.8771
  180SOL    HW210085   2.314   0.831   1.237 -0.3899  0.5890  1.1852
  181SOL     OW10086   3.452   9.250   0.892 -0.1890  0.0559  0.0825
  181SOL    HW110087   3.371   9.263   0.948  0.2110  0.4315  0.5782
  181SOL    HW210088   3.534   9.262   0.948  0.2373  1.7523 -0.8513
  182SOL     OW10089   3.918   2.509   1.954 -0.0579  0.2565 -0.3881
  182SOL    HW110090   3.892   2.453   1.875 -1.1402  1.5299 -0.9434
  182SOL    HW210091   3.981   2.581   1.925  1.0210 -0.4124  0.2563
  183SOL     OW10092   2.049   1.567   0.431 -0.3578  0.1731 -0.0019
  183SOL    HW110093   1.985   1.491   0.440 -0.4192 -0.0230 -1.8623
  183SOL    HW210094   2.034   1.612   0.342 -0.9077  2.8901  1.4076
  184SOL     OW10095   3.495   9.781   2.232 -0.0946 -0.0121  0.0747
  184SOL    HW110096   3.435   9.861   2.233  0.7630  0.7353 -3.0056
  184SOL    HW210097   3.590   9.811   2.239  0.0480 -1.1388  4.1926
  185SOL     OW10098   4.574   0.482   1.810 -0.3787  0.5174 -0.2114
  185SOL    HW110099   4.544   0.571   1.843  1.1174  0.8743  0.2236
  185SOL    HW210100   4.548   0.411   1.877  1.1496  1.0250  0.9406
  186SOL     OW10101   2.569   1.702   1.486 -0.0324  0.2918  0.0181
  186SOL    HW110102   2.551   1.800   1.484 -1.2870  0.0513 -0.4337
  186SOL    HW210103   2.537   1.660   1.402  1.1592 -0.4000 -0.0967
  187SOL     OW10104   4.109   1.232   0.776 -0.2165  0.1218 -0.2445
  187SOL    HW110105   4.178   1.269   0.838 -0.0065 -0.4770 -0.1236
  187SOL    HW210106   4.019   1.266   0.804 -0.2847 -1.1796  1.2004
  188SOL     OW10107   2.867   9.711   0.951  0.4374 -0.5876 -0.0878
  188SOL    HW110108   2.965   9.697   0.935  0.1449 -1.8000 -0.9159
  188SOL    HW210109   2.842   9.804   0.924  0.8166 -1.1901 -2.5797
  189SOL     OW10110   2.552   9.206   1.357 -0.8634 -0.2125 -0.0314
  189SOL    HW110111   2.621   9.141   1.390 -0.4713 -0.4190 -1.2164
  189SOL    HW210112   2.465   9.159   1.344 -0.8252 -0.2939  0.0102
  191SOL     OW10113   1.964   1.139   0.673 -0.0449 -0.5210 -0.2246
  191SOL    HW110114   1.938   1.190   0.591  0.5493 -0.0965 -0.1556
  191SOL    HW210115   2.047   1.179   0.711 -0.5298 -0.4808  0.7967
  194SOL     OW10116   2.542   1.067   1.874  0.4987  0.9605 -0.3263
  194SOL    HW110117   2.627   1.015   1.859 -0.5108 -0.6712 -0.4786
  194SOL    HW210118   2.544   1.107   1.965  0.7186 -0.4995  0.3363
  195SOL     OW10119   3.199   1.742   2.078  0.4211 -0.2316 -0.4745
  195SOL    HW110120   3.186   1.670   2.146  1.6135 -0.8419 -0.8922
  195SOL    HW210121   3.276   1.800   2.104 -1.3210  1.7157  0.5430
  196SOL     OW10122   2.634   9.762   2.209 -0.1429  0.9311  0.0655
  196SOL    HW110123   2.729   9.792   2.213 -0.0947  1.4383 -3.7397
  196SOL    HW210124   2.575   9.840   2.189 -0.5761 -0.4189 -4.4904
  197SOL     OW10125   2.929   1.958   0.941  0.0008  0.1145  0.4807
  197SOL    HW110126   2.870   2.036   0.958  2.4250  1.9012  0.9200
  197SOL    HW210127   2.917   1.927   0.846  0.2676  2.1034 -0.2273
  198SOL     OW10128   2.891   1.997   0.280 -0.0960  0.1507 -1.1358
  198SOL    HW110129   2.798   1.963   0.271 -0.8081  1.9208 -0.5601
  198SOL    HW210130   2.922   1.986   0.374  0.8880 -1.9215 -1.6676
  199SOL     OW10131   1.978   1.330   1.856  0.0248 -0.0137 -0.2986
  199SOL    HW110132   1.926   1.314   1.772 -0.3629 -1.5616  0.2163
  199SOL    HW210133   2.076   1.335   1.834 -0.1438  0.4216 -0.9500
  200SOL     OW10134   3.079  -0.059   0.195 -0.3961  0.7555 -0.2358
  200SOL    HW110135   3.010  -0.006   0.146 -0.9682 -0.3139 -0.5976
  200SOL    HW210136   3.120  -0.125   0.132 -0.0399  0.4294  0.3398
  201SOL     OW10137   3.689   0.329   1.839  0.0723  0.3476  0.3323
  201SOL    HW110138   3.767   0.295   1.892 -0.8631 -1.5339  0.5170
  201SOL    HW210139   3.689   0.429   1.841  3.6896  0.4780 -1.4095
  202SOL     OW10140   4.388   0.467   1.603 -0.3200  0.4966 -0.2538
  202SOL    HW110141   4.465   0.459   1.666  0.0062 -1.8266 -0.9178
  202SOL    HW210142   4.415   0.436   1.512 -1.6123  1.0562 -0.8428
  203SOL     OW10143   2.220   0.854   0.201  0.6192 -0.6881 -0.2189
  203SOL    HW110144   2.314   0.822   0.207  0.1622 -2.3561 -1.6352
  203SOL    HW210145   2.183   0.835   0.110 -0.7203  1.0056 -0.0631
  204SOL     OW10146   3.495   0.393   1.052 -0.0293 -0.3931 -0.5024
  204SOL    HW110147   3.476   0.398   1.150 -0.4873  1.1144 -0.6616
  204SOL    HW210148   3.502   0.297   1.025  1.9131 -0.8029  1.3430
  205SOL     OW10149   2.801   2.248   0.538  0.6331 -0.7592 -0.4722
  205SOL    HW110150   2.828   2.296   0.455 -0.0416 -2.6201 -1.7878
  205SOL    HW210151   2.863   2.171   0.554  0.1420 -1.0271  0.1791
  207SOL     OW10152   3.782   9.143   2.249  0.6906  0.5992 -0.5751
  207SOL    HW110153   3.816   9.237   2.238 -0.3763  1.1714  0.8661
  207SOL    HW210154   3.818   9.104   2.334  1.4627 -0.4624 -1.3742
  208SOL     OW10155   4.241  -0.037   1.468  0.0504 -0.0365  0.0029
  208SOL    HW110156   4.274  -0.010   1.378  1.3603  0.8724  0.7436
  208SOL    HW210157   4.284  -0.122   1.496  0.3862  0.1987  0.1968
  209SOL     OW10158   2.403   0.618   0.493 -0.6849 -0.3759 -0.3159
  209SOL    HW110159   2.497   0.600   0.521 -0.1087  0.1762 -1.7968
  209SOL    HW210160   2.340   0.580   0.560  0.5923 -0.5898  0.7945
  210SOL     OW10161   2.254   1.330   1.262  0.0996  0.4768  0.0614
  210SOL    HW110162   2.203   1.346   1.177  0.6102 -1.2003 -0.5861
  210SOL    HW210163   2.352   1.339   1.243  0.1741  0.9570  0.6783
  211SOL     OW10164   2.857   2.000   1.632 -0.1672 -0.1386 -0.0547
  211SOL    HW110165   2.871   1.902   1.642  0.8919 -0.0850 -0.9371
  211SOL    HW210166   2.942   2.048   1.656  0.2824  0.3819 -2.6136
  212SOL     OW10167   3.106   1.550   2.291  0.9994  0.8167 -0.3909
  212SOL    HW110168   3.122   1.455   2.264  1.5668  1.0169 -0.7518
  212SOL    HW210169   3.178   1.581   2.352  0.7134  0.9576 -0.1219
  213SOL     OW10170   3.087   0.143   1.704  0.3758 -0.3261  0.2607
  213SOL    HW110171   3.061   0.076   1.634  0.0093 -0.2321  0.3029
  213SOL    HW210172   3.102   0.232   1.661  0.3938 -0.3255  0.2685
  214SOL     OW10173   3.824   0.890   2.239  0.0178  0.0323  0.2219
  214SOL    HW110174   3.865   0.926   2.323 -0.3077 -1.6482  1.1185
  214SOL    HW210175   3.734   0.850   2.260  0.7649 -2.1375 -0.5687
  217SOL     OW10176   4.603   0.867   1.754  0.7364  0.4121  0.0677
  217SOL    HW110177   4.610   0.812   1.671 -1.5497  0.6578 -0.3262
  217SOL    HW210178   4.545   0.820   1.821  0.0865  1.5598  0.3397
  218SOL     OW10179   3.668   1.534   0.736  0.1922 -0.1532  0.2499
  218SOL    HW110180   3.692   1.497   0.825  0.3601  0.6073  0.5142
  218SOL    HW210181   3.703   1.473   0.664  0.9185 -0.2333  0.6748
  219SOL     OW10182   2.738   0.143   0.838  0.0941 -0.1715 -0.3917
  219SOL    HW110183   2.765   0.239   0.834 -0.2031 -0.1038 -0.7607
  219SOL    HW210184   2.639   0.136   0.832  0.1413 -0.5253 -0.7646
  220SOL     OW10185   2.604   2.020   0.235 -0.1957  0.4384 -0.4368
  220SOL    HW110186   2.618   2.047   0.140  0.0531  1.9414  0.0155
  220SOL    HW210187   2.588   2.101   0.291 -0.4147 -0.4381  0.7993
  221SOL     OW10188   2.339   0.810   1.995  0.2990 -0.1792 -0.0935
  221SOL    HW110189   2.336   0.839   1.899 -1.9573 -2.9414 -0.9174
  221SOL    HW210190   2.257   0.841   2.042 -0.0678 -1.4976  0.1371
  223SOL     OW10191   3.548   8.896   0.966  0.4894  0.0620  0.3103
  223SOL    HW110192   3.559   8.971   1.031  1.9858  0.8763 -0.8431
  223SOL    HW210193   3.489   8.926   0.890  0.7702 -0.0589  0.0445
  224SOL     OW10194   1.971   0.571   0.526  0.1285  0.0945  0.1506
  224SOL    HW110195   1.944   0.645   0.465  1.6270  0.3449 -0.2204
  224SOL    HW210196   1.923   0.580   0.613 -0.2309  1.0773 -0.1484
  225SOL     OW10197   4.434   0.727   1.908 -0.4709 -0.1643 -0.4445
  225SOL    HW110198   4.422   0.803   1.972 -1.0979 -1.4563  1.0262
  225SOL    HW210199   4.373   0.740   1.830 -1.4424  0.2675  0.3668
  227SOL     OW10200   2.832   9.331   0.723  0.4120  0.1689  0.0219
  227SOL    HW110201   2.810   9.356   0.817 -1.5818  0.6731 -0.5586
  227SOL    HW210202   2.808   9.406   0.662  2.3406  0.1131 -0.8345
  228SOL     OW10203   2.632   0.925   1.354  0.5100 -0.0608 -0.4554
  228SOL    HW110204   2.683   0.892   1.433  0.2007  0.3618 -0.0774
  228SOL    HW210205   2.586   1.011   1.377  0.0779 -0.1519 -0.9629
  229SOL     OW10206   3.662  -0.059   1.911 -0.5964 -0.4442  0.4248
  229SOL    HW110207   3.633   0.015   1.971 -0.3784  0.2438 -0.3142
  229SOL    HW210208   3.702  -0.132   1.966  0.3710  0.5406  1.0600
  230SOL     OW10209   2.736   0.065   2.162  0.1070 -0.3686  0.1412
  230SOL    HW110210   2.834   0.067   2.178  0.0683 -3.3424  0.9916
  230SOL    HW210211   2.689   0.121   2.231  1.0904 -0.2444  0.7113
  231SOL     OW10212   3.425   0.773   0.872  0.5195  0.4821  0.0020
  231SOL    HW110213   3.494   0.731   0.813 -0.5246 -3.1433  1.2714
  231SOL    HW210214   3.337   0.729   0.858 -0.7312  2.5124  1.1909
  232SOL     OW10215   4.154   0.371   1.679  0.7432  0.1397 -0.2991
  232SOL    HW110216   4.245   0.403   1.652 -0.2373  1.2579 -2.4601
  232SOL    HW210217   4.114   0.318   1.604 -0.7410  0.4479  0.2525
  233SOL     OW10218   3.900   0.984   0.644  0.4092 -0.4464 -0.4304
  233SOL    HW110219   3.873   1.067   0.693  1.1125 -0.3133 -0.2717
  233SOL    HW210220   3.999   0.972   0.650  0.1762 -1.9156  0.5173
  234SOL     OW10221   3.576   0.198   0.484 -0.4365  0.3165  0.2165
  234SOL    HW110222   3.534   0.143   0.557 -1.1315  0.2539 -0.2311
  234SOL    HW210223   3.535   0.173   0.396  0.5125  0.2803 -0.2198
  235SOL     OW10224   2.181   0.350   1.480  0.0561  0.0420 -0.0212
  235SOL    HW110225   2.133   0.340   1.567 -0.2357  0.8671 -0.0834
  235SOL    HW210226   2.241   0.430   1.485  0.3120 -0.1244 -0.4542
  236SOL     OW10227   2.923   2.001   1.367  0.2906  0.3474  0.1864
  236SOL    HW110228   3.013   2.044   1.357  0.7598 -0.4935  0.7566
  236SOL    HW210229   2.890   2.015   1.460 -0.0128  0.3456  0.0791
  237SOL     OW10230   2.625   2.290   0.744 -0.7164  0.1817  0.4140
  237SOL    HW110231   2.686   2.279   0.665  1.7892  1.7124  2.0787
  237SOL    HW210232   2.541   2.336   0.715  0.5603  1.5598 -1.2104
  238SOL     OW10233   3.484   9.525   1.181  0.3007  0.3348  0.9347
  238SOL    HW110234   3.508   9.602   1.241 -0.7377  0.0274  1.7607
  238SOL    HW210235   3.403   9.479   1.217 -1.2258  1.0105 -1.5066
  239SOL     OW10236   3.675   2.492   2.070 -0.0371 -0.1880  0.1791
  239SOL    HW110237   3.621   2.576   2.069  0.6637  0.2717  0.6748
  239SOL    HW210238   3.770   2.514   2.047  0.1866 -0.8221  0.5080
  240SOL     OW10239   3.498   1.198   0.550 -0.2335  0.6778 -0.2247
  240SOL    HW110240   3.595   1.218   0.538 -0.1478 -0.5022 -1.6714
  240SOL    HW210241   3.471   1.215   0.645  1.2021  1.7525 -0.0011
  241SOL     OW10242   2.845   9.303   1.663  0.5439 -0.8968  0.2842
  241SOL    HW110243   2.863   9.387   1.611 -0.1524  0.9721  2.9334
  241SOL    HW210244   2.914   9.292   1.734  0.9517 -2.9137 -0.4029
  242SOL     OW10245   3.485  -0.080   1.414 -0.1442  0.6756 -0.3197
  242SOL    HW110246   3.421  -0.156   1.421  0.0537  0.4551 -0.8694
  242SOL    HW210247   3.537  -0.088   1.329  0.5578  0.8941  0.0797
  243SOL     OW10248   2.780   0.837   1.560 -0.3484  0.0643 -0.2607
  243SOL    HW110249   2.769   0.866   1.655 -0.6409 -1.9673  0.3458
  243SOL    HW210250   2.855   0.888   1.518 -0.0044  0.7565  1.1561
  245SOL     OW10251   3.425   9.845   1.735 -0.4451  0.9909 -0.0735
  245SOL    HW110252   3.409   9.911   1.809  0.7762 -0.0154  1.1044
  245SOL    HW210253   3.456   9.894   1.654  2.2765  1.7335  1.3559
  246SOL     OW10254   2.852   2.247   1.175 -0.1106 -0.4198 -0.5112
  246SOL    HW110255   2.830   2.217   1.082  0.7142  2.2465 -1.6170
  246SOL    HW210256   2.767   2.262   1.225 -0.6570  1.2927 -1.9099
  247SOL     OW10257   3.078   9.274   0.572 -0.4148  0.0798  0.0490
  247SOL    HW110258   2.993   9.285   0.623  0.1774  1.6961  0.7088
  247SOL    HW210259   3.151   9.325   0.617  0.5618 -0.0578 -1.3473
  248SOL     OW10260   4.011   9.069   0.606 -0.0331 -0.6080  0.7320
  248SOL    HW110261   4.098   9.114   0.625  0.8688 -1.8497 -0.4043
  248SOL    HW210262   3.947   9.087   0.681  0.5348  1.9704  0.6171
  249SOL     OW10263   3.796   1.748   0.620 -0.4487  0.0306 -0.0897
  249SOL    HW110264   3.780   1.818   0.690  1.6999  0.6594 -0.1828
  249SOL    HW210265   3.752   1.663   0.647 -0.2289  0.4707  1.6922
  251SOL     OW10266   3.392   1.625   1.227  0.0411  0.6042  0.1605
  251SOL    HW110267   3.369   1.644   1.131  1.1243 -0.9543 -0.4231
  251SOL    HW210268   3.382   1.709   1.280 -0.4608  1.5232 -1.3334
  252SOL     OW10269   2.772   9.430   0.989 -0.1142  0.7319  0.3541
  252SOL    HW110270   2.755   9.414   1.086 -0.0335 -0.3531  0.2043
  252SOL    HW210271   2.794   9.526   0.974  0.0445  0.8739  1.4356
  254SOL     OW10272   2.784   0.391   2.198 -0.0287 -0.5664 -0.2045
  254SOL    HW110273   2.743   0.380   2.107 -0.9946 -2.6532  0.4566
  254SOL    HW210274   2.745   0.324   2.261  0.7728  0.7189  1.7242
  255SOL     OW10275   2.471   0.403   0.976  0.0228 -0.0731 -0.2686
  255SOL    HW110276   2.396   0.420   1.040 -0.8959 -3.3894 -0.3450
  255SOL    HW210277   2.541   0.347   1.020  1.3887  1.1296 -0.8892
  256SOL     OW10278   2.062   0.409   2.101 -0.0227 -0.0679 -0.2166
  256SOL    HW110279   2.018   0.322   2.124  0.9680  0.1002  2.4246
  256SOL    HW210280   2.005   0.485   2.132 -0.3758  0.2533 -1.5828
  257SOL     OW10281   3.313   9.734   1.388 -0.1446  0.0127  0.3612
  257SOL    HW110282   3.246   9.705   1.320 -0.9523  2.0225  0.2653
  257SOL    HW210283   3.312   9.670   1.465 -1.0187 -0.8752 -0.3838
  258SOL     OW10284   2.474   0.167   1.128  0.4859  0.2617 -0.0367
  258SOL    HW110285   2.477   0.122   1.038 -0.5826 -0.9760  0.5406
  258SOL    HW210286   2.415   0.115   1.189  1.8252  0.6823  1.6373
  259SOL     OW10287   3.764   9.873   2.225 -0.5583 -0.0430  0.2276
  259SOL    HW110288   3.834   9.863   2.155 -0.3862 -0.7631  0.4966
  259SOL    HW210289   3.807   9.880   2.315 -0.8456 -1.0912  0.4550
  260SOL     OW10290   3.846   2.034   1.626  0.1196  1.0098  0.1187
  260SOL    HW110291   3.816   1.942   1.650  0.2244  0.8234 -0.4665
  260SOL    HW210292   3.945   2.042   1.643 -0.2557  1.6541  2.1371
  261SOL     OW10293   2.527   0.690   2.137  0.0644 -0.1782 -0.3392
  261SOL    HW110294   2.607   0.748   2.126  0.3430 -0.6439 -0.7591
  261SOL    HW210295   2.451   0.728   2.084  0.7868 -1.2319 -2.1906
  263SOL     OW10296   4.488   1.814   2.112  0.3459  0.2981  0.6339
  263SOL    HW110297   4.468   1.718   2.133 -1.3264  0.8156  1.5224
  263SOL    HW210298   4.495   1.865   2.198 -0.9030  1.3666  0.1165
  264SOL     OW10299   2.625   9.468   1.737  0.0214  0.4048  0.3668
  264SOL    HW110300   2.614   9.503   1.830 -0.7963 -1.5482  1.0427
  264SOL    HW210301   2.698   9.398   1.737  1.2206  1.6261 -0.8190
  265SOL     OW10302   2.646   2.205   1.588 -0.2243  0.2788  0.1574
  265SOL    HW110303   2.699   2.131   1.630  2.1592  1.8808  0.0766
  265SOL    HW210304   2.591   2.250   1.658 -0.9155 -0.9131  0.3920
  266SOL     OW10305   4.382   0.795   1.364 -0.0493 -0.0251  0.3991
  266SOL    HW110306   4.282   0.794   1.356 -0.0184 -1.2778 -0.0296
  266SOL    HW210307   4.420   0.862   1.301 -0.5514 -0.5592 -0.4879
  267SOL     OW10308   3.495   2.445   1.563  0.0293 -0.5382  0.0063
  267SOL    HW110309   3.568   2.488   1.616  0.6421  0.3979 -1.5532
  267SOL    HW210310   3.406   2.466   1.604  0.4655  0.4957  0.4318
  268SOL     OW10311   4.112   0.381   0.422 -0.2157  0.0658  0.4479
  268SOL    HW110312   4.013   0.366   0.430 -0.2972  0.4147  0.1180
  268SOL    HW210313   4.142   0.355   0.330 -0.3211  1.6810 -0.0558
  269SOL     OW10314   1.933   0.729   1.021 -0.0504  0.1900  0.4003
  269SOL    HW110315   1.908   0.825   1.014 -0.0573  0.1778  0.2600
  269SOL    HW210316   1.941   0.704   1.118  0.4784  0.4655  0.4256
  270SOL     OW10317   3.212   0.048   1.377  0.4062 -0.5164  0.1269
  270SOL    HW110318   3.150   0.006   1.442 -0.3100 -0.9236 -0.8016
  270SOL    HW210319   3.297  -0.005   1.372 -0.0033 -1.1465 -0.1372
  271SOL     OW10320   3.017   1.775   1.891  0.3630 -0.5645  0.4788
  271SOL    HW110321   3.088   1.763   1.960 -1.0615 -2.2519  1.6988
  271SOL    HW210322   2.928   1.753   1.931 -0.6862  0.1473 -1.4114
  272SOL     OW10323   3.253   1.292   0.975  0.1724  0.3799  0.3244
  272SOL    HW110324   3.187   1.315   1.046  0.3238  0.9840  0.2795
  272SOL    HW210325   3.218   1.321   0.886  0.3583  0.4256  0.2650
  273SOL     OW10326   2.794   9.547   0.190  0.0718 -0.2854  0.2078
  273SOL    HW110327   2.880   9.589   0.160  0.4100 -0.0933  1.4483
  273SOL    HW210328   2.722   9.570   0.125  0.4345  1.5153  0.4292
  274SOL     OW10329   4.107   0.781   1.393  0.0068 -0.2170  0.4823
  274SOL    HW110330   4.071   0.830   1.313  0.5321  0.9279  0.9309
  274SOL    HW210331   4.082   0.684   1.387 -2.6690  0.4173  0.5127
  275SOL     OW10332   4.236   0.595   2.285  0.2107  0.2943 -0.1855
  275SOL    HW110333   4.178   0.588   2.204 -0.7822 -1.7703  0.6426
  275SOL    HW210334   4.178   0.606   2.366  1.0564 -0.2529  0.5021
  276SOL     OW10335   3.510   0.501   1.582 -0.2817 -0.6874 -0.4417
  276SOL    HW110336   3.591   0.532   1.532 -0.1793 -1.8629 -1.0085
  276SOL    HW210337   3.533   0.422   1.639 -0.6469 -0.0076  0.6757
  277SOL     OW10338   2.383   1.764   1.931  0.6964  0.3974  0.4182
  277SOL    HW110339   2.302   1.713   1.902  0.0964  1.5196  0.0761
  277SOL    HW210340   2.378   1.780   2.030  0.0180  1.2703  0.2533
  278SOL     OW10341   3.246   0.999   0.819  0.4209 -0.5568  0.0957
  278SOL    HW110342   3.336   1.019   0.856  0.4878 -0.4729 -0.1129
  278SOL    HW210343   3.215   1.075   0.762  1.3139 -1.6619 -1.9190
  279SOL     OW10344   2.939   2.360   1.429 -0.3127  0.4971 -0.5928
  279SOL    HW110345   2.852   2.344   1.476 -0.4160 -0.2425 -1.0269
  279SOL    HW210346   2.939   2.311   1.342  0.7808 -0.0053 -0.3101
  281SOL     OW10347   2.217   1.230   0.789  0.2371  0.5271 -0.5780
  281SOL    HW110348   2.289   1.235   0.720 -0.4059  0.4039 -1.2697
  281SOL    HW210349   2.207   1.136   0.821  0.3195  0.5256 -0.5587
  282SOL     OW10350   2.279  -0.084   1.671  0.1373 -0.3156  0.6446
  282SOL    HW110351   2.360  -0.028   1.658  0.8545 -1.4203  0.2539
  282SOL    HW210352   2.283  -0.164   1.611 -0.7498 -0.8988  1.3342
  283SOL     OW10353   2.370   0.898   0.585 -0.1035  0.3090 -0.4970
  283SOL    HW110354   2.355   0.842   0.666  1.3927  0.2884 -0.2137
  283SOL    HW210355   2.389   0.838   0.507  3.5989  0.3988  0.2429
  284SOL     OW10356   3.731   1.137   1.699  0.2862  0.5139 -0.0191
  284SOL    HW110357   3.779   1.163   1.615  1.5130  0.0979  0.5389
  284SOL    HW210358   3.798   1.122   1.772 -0.7544  0.6282  0.9690
  285SOL     OW10359   2.745   2.164   0.945  0.0022 -0.0212 -0.6460
  285SOL    HW110360   2.703   2.209   0.866 -1.3087 -0.5217 -0.2486
  285SOL    HW210361   2.676   2.147   1.014  1.0490 -0.0560  0.4128
  286SOL     OW10362   2.706   9.425   1.259  0.4322 -0.2305  0.0019
  286SOL    HW110363   2.634   9.492   1.276  0.0825 -0.1653 -1.6324
  286SOL    HW210364   2.674   9.334   1.283  0.2775 -0.0479  0.5067
  287SOL     OW10365   2.309   1.552   0.355  0.0357  0.0428 -0.2116
  287SOL    HW110366   2.219   1.571   0.394 -0.7932 -0.9561 -1.5782
  287SOL    HW210367   2.349   1.637   0.321  0.2802  0.7350  1.7702
  288SOL     OW10368   2.426   9.616   1.596 -0.7241 -0.4931 -0.4292
  288SOL    HW110369   2.347   9.577   1.643 -0.0157 -0.0847  1.1182
  288SOL    HW210370   2.510   9.589   1.642 -0.0059 -0.0643 -1.4492
  289SOL     OW10371   1.970   0.459   0.961 -0.0177 -0.4910 -0.4267
  289SOL    HW110372   1.879   0.439   1.000 -1.5706  0.1844 -3.5574
  289SOL    HW210373   1.987   0.557   0.969 -0.1654 -0.4132 -1.0288
  290SOL     OW10374   4.019   9.646   0.896  0.2501  0.0128  0.4386
  290SOL    HW110375   3.939   9.663   0.839  1.1179 -1.0124 -1.1577
  290SOL    HW210376   4.075   9.729   0.900  0.2732  0.0423 -0.3813
  291SOL     OW10377   3.813   2.262   1.764  0.9262  0.5025 -0.1627
  291SOL    HW110378   3.802   2.183   1.703 -0.8130  0.7762 -0.2255
  291SOL    HW210379   3.846   2.340   1.711 -1.0778  0.8847 -0.8937
  292SOL     OW10380   2.326   0.742   0.808 -0.5713 -0.2790  0.4418
  292SOL    HW110381   2.283   0.666   0.757  0.1857 -1.5210  1.6260
  292SOL    HW210382   2.425   0.731   0.805 -0.2331  2.7893 -2.6012
  293SOL     OW10383   3.803   0.840   1.041  0.6250 -0.1597 -0.1696
  293SOL    HW110384   3.848   0.813   0.955  0.6214 -0.6428 -0.0198
  293SOL    HW210385   3.722   0.783   1.055  0.6340 -0.0885  0.1649
  294SOL     OW10386   4.198   0.803   0.722  0.4321  0.4822 -0.5574
  294SOL    HW110387   4.214   0.748   0.640  0.2892 -1.4700  0.6945
  294SOL    HW210388   4.278   0.798   0.781 -0.2883  0.1554  0.3938
  295SOL     OW10389   3.283   0.719   0.312  0.0374  0.3038 -0.3099
  295SOL    HW110390   3.280   0.622   0.340 -2.1690 -0.9929 -4.6524
  295SOL    HW210391   3.377   0.752   0.321  0.9995 -2.4561  0.6074
  297SOL     OW10392   3.157   0.325   1.317 -0.2840 -0.2096 -0.2267
  297SOL    HW110393   3.176   0.227   1.324 -0.6395 -0.1655  1.3784
  297SOL    HW210394   3.123   0.360   1.404 -1.6553  1.0254 -1.2124
  298SOL     OW10395   4.510   1.113   1.815  0.0324  0.4527  0.0314
  298SOL    HW110396   4.418   1.077   1.796  0.2787  0.1350 -0.5914
  298SOL    HW210397   4.578   1.046   1.785  0.5035  1.5093 -1.3110
  299SOL     OW10398   1.973   1.289   0.432 -0.9038  0.1907 -0.9843
  299SOL    HW110399   2.068   1.282   0.403 -0.9429 -1.2576 -0.7796
  299SOL    HW210400   1.914   1.251   0.361 -1.3788  1.6265 -1.3738
  300SOL     OW10401   2.510   9.773   0.822  0.1073  0.0838  0.0109
  300SOL    HW110402   2.514   9.811   0.915 -0.3437  1.6782 -0.6226
  300SOL    HW210403   2.477   9.679   0.827  1.1884 -0.2390  1.5779
  301SOL     OW10404   3.492   0.957   1.839  0.1603  0.6827 -0.6125
  301SOL    HW110405   3.521   1.051   1.821 -0.5186  0.7674 -1.2780
  301SOL    HW210406   3.525   0.897   1.767 -0.6323  0.6503 -0.9504
  302SOL     OW10407   3.585   0.356   2.144  0.3888 -0.1016  0.1956
  302SOL    HW110408   3.660   0.294   2.123  0.5133 -0.3928  1.4715
  302SOL    HW210409   3.511   0.342   2.079  1.8207  0.8742 -1.7025
  303SOL     OW10410   3.018   1.472   1.940 -0.3627  0.3783  0.0704
  303SOL    HW110411   2.937   1.509   1.895 -0.4847  1.2639  0.9960
  303SOL    HW210412   3.094   1.536   1.929 -0.2124  0.2820  0.5465
  304SOL     OW10413   3.591   9.881   0.375 -0.1052 -0.5014  0.5620
  304SOL    HW110414   3.561   9.930   0.294 -0.0235 -0.8603  0.3153
  304SOL    HW210415   3.528   9.805   0.394 -0.2782 -0.2563  0.9900
  305SOL     OW10416   2.120   1.630   1.845 -0.5787 -0.3614 -0.8944
  305SOL    HW110417   2.163   1.552   1.892  0.3437  0.4956 -0.3021
  305SOL    HW210418   2.025   1.608   1.825 -0.7052 -1.1484  0.4720
  306SOL     OW10419   3.126   2.547   1.462  0.3419  0.1402 -0.3601
  306SOL    HW110420   3.135   2.610   1.385  0.8259  0.9541  0.3627
  306SOL    HW210421   3.054   2.481   1.442 -0.1403  0.8894 -1.1371
  308SOL     OW10422   3.594   0.669   1.062  0.6574  0.2630  0.0450
  308SOL    HW110423   3.566   0.573   1.072 -0.5357  0.7542  1.5513
  308SOL    HW210424   3.528   0.717   1.005  0.6195  0.4637  0.2585
  309SOL     OW10425   2.378   1.171   0.595  0.3322  0.1744  0.1863
  309SOL    HW110426   2.373   1.072   0.585 -1.0720  0.2073  0.5117
  309SOL    HW210427   2.385   1.213   0.504 -0.7386 -0.1495 -0.0580
  310SOL     OW10428   3.440   2.244   0.789 -0.4353 -0.1545  0.3146
  310SOL    HW110429   3.416   2.268   0.883 -0.4499  0.5262  0.1373
  310SOL    HW210430   3.357   2.223   0.738 -0.5985  1.4079 -0.0790
  311SOL     OW10431   2.987   0.964   1.442  0.4598 -0.5989  0.3815
  311SOL    HW110432   3.068   0.907   1.454  0.9497 -0.3757 -1.7601
  311SOL    HW210433   3.008   1.038   1.379 -1.1272  0.0624  0.6212
  313SOL     OW10434   2.922   2.314   0.304  0.2229  0.0522  0.5205
  313SOL    HW110435   3.021   2.317   0.293 -0.0904 -0.3849 -3.1290
  313SOL    HW210436   2.887   2.230   0.262 -1.8871  1.2192 -0.1166
  314SOL     OW10437   4.493   0.968   0.266  0.5365 -0.3001 -0.0881
  314SOL    HW110438   4.552   1.009   0.336  0.4703 -1.1914  0.4919
  314SOL    HW210439   4.474   1.036   0.195  1.2774  0.3613  0.3369
  317SOL     OW10440   3.293   0.082   0.320 -0.4360 -0.3832 -0.4082
  317SOL    HW110441   3.263   0.100   0.414 -1.2187 -1.2023 -0.4924
  317SOL    HW210442   3.230   0.018   0.277  0.5156 -0.8259 -1.1521
  318SOL     OW10443   3.597   9.184   1.706  0.0087 -0.5107 -0.5895
  318SOL    HW110444   3.631   9.182   1.800 -0.2454 -3.4177 -0.5161
  318SOL    HW210445   3.601   9.092   1.667 -1.6663  0.3024 -2.7847
  320SOL     OW10446   1.993   0.818   0.378 -0.2586  0.0208  0.1619
  320SOL    HW110447   2.073   0.840   0.323 -1.8581  3.1686 -1.0250
  320SOL    HW210448   2.008   0.847   0.473  0.0658  0.4625 -0.0246
  321SOL     OW10449   3.853   0.314   0.459  0.1429  0.3272 -0.3877
  321SOL    HW110450   3.770   0.263   0.480  1.9730 -2.4953  0.2385
  321SOL    HW210451   3.852   0.401   0.509 -1.3954 -0.6901  1.4064
  322SOL     OW10452   3.061   0.665   0.616 -0.3499  0.2812 -0.0649
  322SOL    HW110453   3.114   0.674   0.701 -1.4192  0.1117  0.6177
  322SOL    HW210454   3.074   0.748   0.562 -0.0416  0.5940  0.4730
  325SOL     OW10455   2.769   1.625   0.244 -0.3253 -0.6757 -0.0802
  325SOL    HW110456   2.728   1.569   0.316  0.1728 -0.2116  0.5643
  325SOL    HW210457   2.867   1.635   0.261 -0.4218  0.4523 -0.1634
  327SOL     OW10458   3.432   0.385   1.319 -0.5813 -0.1171 -0.1394
  327SOL    HW110459   3.461   0.362   1.412  0.8259 -1.9539 -1.0206
  327SOL    HW210460   3.333   0.401   1.319 -0.3578  1.5742  1.9829
  328SOL     OW10461   4.247   1.678   2.289 -0.4531 -0.1451  0.2694
  328SOL    HW110462   4.234   1.701   2.386 -0.8114  2.5705 -0.3882
  328SOL    HW210463   4.159   1.656   2.248 -0.9324  2.9812 -0.4554
  329SOL     OW10464   2.486   0.463   1.970 -0.6055  0.5155  0.4483
  329SOL    HW110465   2.492   0.549   2.021 -0.1927  0.9045 -0.2305
  329SOL    HW210466   2.391   0.442   1.951 -0.6764  1.1949  0.0194
  330SOL     OW10467   3.517   1.514   1.428 -0.4618 -0.7969  0.1575
  330SOL    HW110468   3.488   1.421   1.450 -0.8547 -0.4864  0.9849
  330SOL    HW210469   3.464   1.548   1.350 -0.9217 -0.9493  0.4052
  333SOL     OW10470   4.016   0.548   1.035 -0.1891  0.5170 -0.0028
  333SOL    HW110471   4.116   0.543   1.045 -0.2715 -1.3772  0.0515
  333SOL    HW210472   3.993   0.619   0.969  1.1647  1.3432  0.3704
  334SOL     OW10473   1.916   1.324   2.127 -0.6702  0.1817 -0.6584
  334SOL    HW110474   1.841   1.378   2.165 -0.2564  1.3532 -1.4755
  334SOL    HW210475   1.940   1.359   2.036 -0.6099 -1.5907 -1.3458
  336SOL     OW10476   3.999   0.513   0.662  0.2979  0.0752 -0.2686
  336SOL    HW110477   4.061   0.568   0.606  0.6950 -0.2800 -0.1820
  336SOL    HW210478   4.027   0.417   0.657 -1.9510 -0.5116 -2.5333
  339SOL     OW10479   3.160   2.165   1.364 -0.1502  0.2468 -0.0080
  339SOL    HW110480   3.158   2.242   1.300  0.1507  0.8321  0.6926
  339SOL    HW210481   3.238   2.105   1.342  0.2315  0.6999  0.1116
  341SOL     OW10482   4.453   2.478   1.901 -0.1882  0.5254 -0.0448
  341SOL    HW110483   4.495   2.496   1.812  0.1633 -1.2588 -0.2569
  341SOL    HW210484   4.405   2.390   1.898 -1.4677  1.1557  1.0806
  343SOL     OW10485   2.012   0.611   0.187 -0.0831 -0.4910 -0.4206
  343SOL    HW110486   2.002   0.688   0.250  1.3192 -0.8008  0.2238
  343SOL    HW210487   2.099   0.564   0.206 -1.1378 -2.5395 -0.4544
  344SOL     OW10488   2.303   0.027   1.920  0.7497  0.1106  0.0963
  344SOL    HW110489   2.288  -0.015   1.830 -0.8976  0.2294  0.3034
  344SOL    HW210490   2.216   0.034   1.968  1.6034  0.2326  1.6338
  346SOL     OW10491   3.694   0.917   1.445  0.3090 -0.4666 -0.0976
  346SOL    HW110492   3.730   0.993   1.499 -0.0742  0.8254 -1.6245
  346SOL    HW210493   3.660   0.951   1.357 -1.5853 -2.1218 -0.0540
  347SOL     OW10494   3.048   1.657   0.275 -0.8341 -0.3518 -0.0319
  347SOL    HW110495   3.084   1.566   0.296  0.3717  0.3116  0.8439
  347SOL    HW210496   3.110   1.704   0.213 -1.9380 -0.4738 -1.2401
  349SOL     OW10497   3.142   0.442   1.612  0.1025 -0.4182  0.6011
  349SOL    HW110498   3.230   0.485   1.593 -0.4886  1.1496  1.3409
  349SOL    HW210499   3.069   0.509   1.599 -0.9151 -1.4536  0.8955
  351SOL     OW10500   4.288   0.583   0.949  0.1046 -0.2820  0.4814
  351SOL    HW110501   4.371   0.539   0.914 -0.6823 -1.0736 -0.4318
  351SOL    HW210502   4.285   0.678   0.919  0.0183 -0.6313 -0.6456
  352SOL     OW10503   1.904   0.990   0.943  0.2787  0.2945  0.4630
  352SOL    HW110504   2.001   1.010   0.930 -0.1021  1.2595 -0.9597
  352SOL    HW210505   1.855   1.004   0.857 -0.9174 -1.4644  0.8206
  353SOL     OW10506   1.933   1.047   2.118 -0.6201  0.0007  0.0341
  353SOL    HW110507   1.927   1.145   2.135  1.8601  0.2383 -0.3418
  353SOL    HW210508   1.930   1.031   2.019 -1.2205 -0.3285  0.1031
  354SOL     OW10509   3.120   1.631   0.613 -0.2388  0.3052 -0.3791
  354SOL    HW110510   3.108   1.607   0.516 -0.0134  2.0720 -0.8601
  354SOL    HW210511   3.216   1.655   0.629 -0.6487  1.8164 -0.1398
  355SOL     OW10512   4.120  -0.110   0.945  0.1505  0.0241 -0.2418
  355SOL    HW110513   4.089  -0.036   1.004  0.1686  1.0498 -1.5043
  355SOL    HW210514   4.149  -0.073   0.856  0.0187 -1.5015 -0.9406
  356SOL     OW10515   4.097   9.394   0.845  0.0282 -0.3346 -0.4149
  356SOL    HW110516   4.100   9.492   0.861  0.7468 -0.4984  0.5201
  356SOL    HW210517   4.142   9.374   0.758 -0.2783  0.1866 -0.6924
  357SOL     OW10518   3.031   0.234   1.974 -0.6855 -0.0911  0.4199
  357SOL    HW110519   3.050   0.181   1.892  0.6982  0.2303  0.5064
  357SOL    HW210520   2.949   0.289   1.961 -0.1525  0.3865 -0.9498
  358SOL     OW10521   2.930   1.822   0.711 -0.0738  0.3399  0.3246
  358SOL    HW110522   3.010   1.767   0.687  0.8740  2.3357 -1.2615
  358SOL    HW210523   2.849   1.785   0.666  0.1941 -0.9058  0.8570
  359SOL     OW10524   2.685   2.126   1.874 -0.4430  0.0864  0.2047
  359SOL    HW110525   2.758   2.184   1.909  0.6070 -1.0501 -0.0641
  359SOL    HW210526   2.724   2.042   1.835 -1.9772 -1.1754  1.3136
  361SOL     OW10527   2.558   1.204   0.192  0.1832  0.3560  0.0066
  361SOL    HW110528   2.521   1.231   0.103 -0.3559 -0.1117  0.0911
  361SOL    HW210529   2.601   1.114   0.185  1.2450  0.8597 -0.0734
  362SOL     OW10530   2.949  -0.002   0.723  0.2390  0.0348  0.1384
  362SOL    HW110531   2.894   0.073   0.760 -0.6016 -0.9864  0.9571
  362SOL    HW210532   2.936  -0.007   0.624 -0.5552  0.2628  0.2315
  364SOL     OW10533   2.106   0.825   2.124  0.0431 -0.4026  0.0752
  364SOL    HW110534   2.088   0.755   2.193 -0.9516  0.3082  0.5530
  364SOL    HW210535   2.033   0.893   2.126  1.2277  0.9124 -0.0524
  365SOL     OW10536   2.763   9.074   1.470  0.5208 -0.4007  0.2018
  365SOL    HW110537   2.850   9.032   1.443  0.2979 -0.3638 -0.5708
  365SOL    HW210538   2.780   9.140   1.544  1.2925  0.2978 -0.5793
  366SOL     OW10539   3.559   0.767   1.655  0.0601  0.5070 -0.4439
  366SOL    HW110540   3.520   0.686   1.610  1.4283 -0.3177 -0.1819
  366SOL    HW210541   3.621   0.814   1.592  0.9634  0.0972  0.1296
  367SOL     OW10542   2.584   1.680   1.758 -0.2112  0.4803 -0.2444
  367SOL    HW110543   2.510   1.709   1.819 -0.3776  0.9271 -0.6529
  367SOL    HW210544   2.555   1.693   1.663 -0.1930 -0.7730 -0.4381
  368SOL     OW10545   3.202   1.279   1.283  0.1002  0.8288 -0.5270
  368SOL    HW110546   3.206   1.179   1.291  2.0052  1.0287  1.5165
  368SOL    HW210547   3.123   1.314   1.333  0.8174  0.5270  0.8210
  369SOL     OW10548   2.972   2.022   0.542  0.0818 -0.2007 -0.6037
  369SOL    HW110549   3.065   2.059   0.552 -0.0503 -0.1071  0.3867
  369SOL    HW210550   2.960   1.948   0.609 -1.3352  1.3497  0.9082
  371SOL     OW10551   2.900   1.390   0.562  0.4784 -0.1128  0.0934
  371SOL    HW110552   2.818   1.354   0.517  0.2913  0.7674 -0.2679
  371SOL    HW210553   2.888   1.384   0.661 -0.1386  0.2842  0.0424
  372SOL     OW10554   2.143   0.266   1.001  0.1022 -0.2014  0.4491
  372SOL    HW110555   2.078   0.340   0.986  0.4714  0.1601  0.6134
  372SOL    HW210556   2.200   0.287   1.081  2.3679  0.8648 -1.3832
  373SOL     OW10557   2.888   0.671   0.323  0.1419 -0.5880  0.3945
  373SOL    HW110558   2.961   0.721   0.369  1.9384 -1.9096 -0.9444
  373SOL    HW210559   2.928   0.598   0.267 -2.1307 -0.6007 -1.2761
  374SOL     OW10560   3.543   0.187   1.519  0.2282  0.4067  0.6414
  374SOL    HW110561   3.584   0.137   1.595  0.7016 -0.6824 -0.3177
  374SOL    HW210562   3.522   0.123   1.444 -1.0261  1.3211  0.1886
  375SOL     OW10563   3.442   0.288   1.910 -0.0468  0.2686  0.4752
  375SOL    HW110564   3.535   0.295   1.875  0.3239 -0.0947  1.3470
  375SOL    HW210565   3.397   0.208   1.870  0.4358 -0.2494  0.9524
  376SOL     OW10566   3.046   9.034   1.417  0.1792  0.3255  0.2723
  376SOL    HW110567   3.120   9.025   1.484 -0.5805  1.6785  1.3317
  376SOL    HW210568   3.070   9.103   1.349  0.1191  0.3798  0.3058
  378SOL     OW10569   4.068   0.089   1.137  0.1719 -0.0921  0.0658
  378SOL    HW110570   4.164   0.112   1.146  0.1732  0.1840 -0.5812
  378SOL    HW210571   4.016   0.171   1.113 -0.0746 -0.4255 -0.5699
  379SOL     OW10572   2.458   2.009   2.132  0.2360  0.3529  0.2204
  379SOL    HW110573   2.531   2.069   2.165  1.3769 -0.8807 -0.0013
  379SOL    HW210574   2.435   2.032   2.037  1.1974 -0.0489 -0.1140
  380SOL     OW10575   2.494   0.110   0.755 -0.7063 -0.4154  0.3758
  380SOL    HW110576   2.400   0.143   0.754 -0.9322 -1.0602  0.5441
  380SOL    HW210577   2.495   0.010   0.748 -0.0061 -0.3410 -0.7309
  381SOL     OW10578   2.490  -0.012   2.115  0.0213  0.5246 -0.2208
  381SOL    HW110579   2.581   0.028   2.113  0.8736 -1.3922 -0.7328
  381SOL    HW210580   2.445  -0.000   2.026  0.1203  0.6933 -0.2465
  382SOL     OW10581   2.004   0.103   2.151  0.1731  0.2687  0.5526
  382SOL    HW110582   2.085   0.045   2.159 -0.5641 -0.9497 -0.6213
  382SOL    HW210583   1.932   0.069   2.212  0.3826  1.0973  1.2776
  383SOL     OW10584   2.500   9.507   0.864  0.6619  0.2685  0.2865
  383SOL    HW110585   2.409   9.467   0.847  0.2410  1.1933  0.3336
  383SOL    HW210586   2.559   9.439   0.906 -0.0536 -0.3052  0.3663
  385SOL     OW10587   2.531   0.947   1.009  0.0335 -0.1259 -0.0710
  385SOL    HW110588   2.557   0.882   1.081  2.1046  0.1076 -0.5787
  385SOL    HW210589   2.441   0.922   0.974  0.1694 -1.8757  0.7415
  386SOL     OW10590   2.760   9.498   0.515 -0.0920 -0.8604  0.4596
  386SOL    HW110591   2.746   9.589   0.553 -0.9602  0.2456 -2.3884
  386SOL    HW210592   2.802   9.505   0.425 -1.5459 -3.1679 -0.4577
  387SOL     OW10593   3.007  -0.060   1.533 -0.0825 -0.5144 -0.7924
  387SOL    HW110594   2.917  -0.052   1.490 -0.9613  1.2739  1.2778
  387SOL    HW210595   3.012  -0.147   1.583 -1.0800 -0.1502 -0.0369
  388SOL     OW10596   3.799   9.123   0.761  0.0045  0.3585 -0.1777
  388SOL    HW110597   3.746   9.043   0.789  1.0709 -0.0038  0.8125
  388SOL    HW210598   3.828   9.175   0.842  1.0005  0.6584 -0.7208
  389SOL     OW10599   3.779   1.774   1.710  0.0983 -0.4366 -0.4733
  389SOL    HW110600   3.702   1.710   1.707 -0.3065  0.0790 -1.2683
  389SOL    HW210601   3.829   1.762   1.796  0.3158 -2.1675 -0.8076
  390SOL     OW10602   3.684   2.199   0.708  0.1759 -0.0075 -0.2285
  390SOL    HW110603   3.588   2.221   0.725  0.8002  2.2931  0.5404
  390SOL    HW210604   3.711   2.235   0.619  0.2186 -1.0416 -0.6404
  391SOL     OW10605   3.648   9.358   1.073  0.0157 -0.0039  0.2598
  391SOL    HW110606   3.742   9.391   1.077 -0.5037  1.5466  0.1892
  391SOL    HW210607   3.586   9.429   1.107 -1.1894 -0.7175 -0.3897
  392SOL     OW10608   3.086   2.128   1.634 -0.2037 -0.0704 -0.1649
  392SOL    HW110609   3.170   2.124   1.688 -0.0004 -0.8279 -0.5266
  392SOL    HW210610   3.104   2.175   1.548 -0.7943  2.1313  0.8879
  393SOL     OW10611   2.255   0.489   1.183 -0.0275  0.0377  0.3550
  393SOL    HW110612   2.282   0.583   1.204 -2.4653  1.4816 -2.4829
  393SOL    HW210613   2.210   0.448   1.262 -0.7169  1.9854  0.9975
  395SOL     OW10614   2.175   0.197   0.253  0.2064  0.4297 -0.2302
  395SOL    HW110615   2.260   0.154   0.282 -0.3899  0.6685  2.0281
  395SOL    HW210616   2.116   0.210   0.333 -1.7416  0.7273 -1.6684
  396SOL     OW10617   2.536   9.778   1.831  0.0984 -0.3500 -0.9385
  396SOL    HW110618   2.575   9.697   1.876 -0.7463 -0.4462 -0.3741
  396SOL    HW210619   2.455   9.808   1.881 -0.7117 -0.3043 -2.2752
  397SOL     OW10620   2.478   0.767   0.244  0.0318  0.2311  0.2756
  397SOL    HW110621   2.456   0.719   0.328  1.8481  1.0343  1.2257
  397SOL    HW210622   2.548   0.836   0.262 -0.8087  1.6101 -1.5324
  398SOL     OW10623   3.198   0.615   0.837 -0.1721 -0.0489  0.4077
  398SOL    HW110624   3.142   0.581   0.912  0.9605 -0.6219  1.0070
  398SOL    HW210625   3.274   0.552   0.820 -0.4508  0.0435 -1.2634
  399SOL     OW10626   4.653   1.584   0.604 -0.0957 -0.1920  0.4036
  399SOL    HW110627   4.609   1.624   0.684 -0.8124 -1.7929  0.8071
  399SOL    HW210628   4.614   1.624   0.521 -0.1244  0.6546  0.8196
  400SOL     OW10629   1.882   0.724   0.745 -0.0179  0.3232 -0.2726
  400SOL    HW110630   1.945   0.785   0.696  0.2707  0.3796  0.1717
  400SOL    HW210631   1.897   0.731   0.843  0.0868 -0.5357 -0.2175
  401SOL     OW10632   2.182   1.504   0.682  0.0528 -0.0168  0.1019
  401SOL    HW110633   2.164   1.515   0.585  2.0810 -1.5425 -0.4750
  401SOL    HW210634   2.145   1.417   0.714  2.5715 -1.2417 -0.1698
  402SOL     OW10635   2.957   0.615   1.553  0.2386  0.6691 -0.8650
  402SOL    HW110636   2.903   0.687   1.597  0.2757 -0.9499  1.9533
  402SOL    HW210637   2.895   0.547   1.513  0.1485  0.3631 -0.2312
  404SOL     OW10638   2.619   1.631   1.225  0.0633 -0.1755  0.2529
  404SOL    HW110639   2.624   1.571   1.145  1.7206 -0.9832  0.9380
  404SOL    HW210640   2.699   1.691   1.227 -0.5132  0.5868  0.7281
  405SOL     OW10641   3.284   0.050   1.854 -0.2818  0.3897 -0.1720
  405SOL    HW110642   3.221   0.079   1.782 -0.9998 -0.2845  0.1757
  405SOL    HW210643   3.237   0.052   1.942  0.1692 -0.1659  0.0843
  406SOL     OW10644   2.369   1.832   0.289  0.0941  1.1453 -0.3194
  406SOL    HW110645   2.463   1.853   0.260 -0.0319  0.4933 -1.2489
  406SOL    HW210646   2.357   1.857   0.385  1.7005 -0.2125  0.2690
  407SOL     OW10647   2.072   0.893   0.621  0.0248  0.0499 -0.0459
  407SOL    HW110648   2.034   0.984   0.635  1.2538  0.9112 -2.1338
  407SOL    HW210649   2.172   0.896   0.631 -0.0989 -1.5463  2.1653
  408SOL     OW10650   3.591   9.323   0.415  0.2015 -0.4206 -0.5297
  408SOL    HW110651   3.626   9.336   0.508 -1.7654  1.1376  0.0367
  408SOL    HW210652   3.531   9.243   0.412 -2.7407  1.6539  0.4949
  409SOL     OW10653   2.284   1.275   1.747  0.2606 -0.0020 -0.2711
  409SOL    HW110654   2.381   1.299   1.760 -0.3874  2.5602  0.2390
  409SOL    HW210655   2.269   1.248   1.652  1.3269  0.5042 -0.5958
  410SOL     OW10656   3.440   1.865   1.394  0.5397 -0.1342  0.1820
  410SOL    HW110657   3.534   1.844   1.419  1.0302 -0.8888 -2.2037
  410SOL    HW210658   3.385   1.875   1.477  2.6310 -0.0211  1.5845
  411SOL     OW10659   3.954   0.748   0.836  0.5538  0.2647 -0.7446
  411SOL    HW110660   4.038   0.764   0.785  0.6370 -2.4698 -1.5528
  411SOL    HW210661   3.902   0.674   0.792 -1.7922  1.2471  0.2975
  412SOL     OW10662   2.821   0.407   1.899  0.1444  0.4284  0.0141
  412SOL    HW110663   2.751   0.461   1.852 -1.8245 -1.5837  0.5464
  412SOL    HW210664   2.868   0.465   1.966 -1.8187  1.5236  0.4917
  413SOL     OW10665   2.118   1.093   0.254  0.6389 -0.3988  0.5590
  413SOL    HW110666   2.188   1.152   0.295  0.2571 -0.9048  1.9556
  413SOL    HW210667   2.157   1.003   0.233  0.9457 -0.0059 -0.6063
  415SOL     OW10668   2.640   1.466   0.409  0.4101  0.6996 -1.0876
  415SOL    HW110669   2.553   1.495   0.448  1.1584  0.0610  1.1367
  415SOL    HW210670   2.643   1.366   0.403  1.2287  0.6907 -0.5724
  416SOL     OW10671   3.065   2.671   1.231  0.0681 -0.3346 -1.0698
  416SOL    HW110672   3.054   2.584   1.183  2.2047 -0.2890 -1.7020
  416SOL    HW210673   2.994   2.735   1.203 -1.1592 -1.6716 -1.0470
  417SOL     OW10674   4.778   1.362   0.715 -0.2922  0.1246 -0.0720
  417SOL    HW110675   4.871   1.374   0.680 -0.2327  0.2799  0.1354
  417SOL    HW210676   4.716   1.424   0.668 -0.2322  0.2536  0.0202
  418SOL     OW10677   3.114   1.429   0.376  0.3869  0.5996  0.3959
  418SOL    HW110678   3.039   1.397   0.434  0.9134  1.3251  1.4779
  418SOL    HW210679   3.197   1.378   0.397  0.3163  0.1078 -0.4907
  419SOL     OW10680   3.967   2.027   0.613 -0.1567 -0.3464  0.7760
  419SOL    HW110681   3.952   2.036   0.514 -2.1316 -2.7154  0.7931
  419SOL    HW210682   3.894   2.074   0.662  0.5993  0.4805  1.1179
  420SOL     OW10683   2.304   1.288   0.333  0.3158 -0.7709 -0.6014
  420SOL    HW110684   2.300   1.388   0.332  1.4624 -0.7309 -2.3778
  420SOL    HW210685   2.359   1.255   0.257  0.7772 -2.7364  0.5261
  421SOL     OW10686   2.342   1.610   0.922  0.2712 -0.1582 -0.1506
  421SOL    HW110687   2.286   1.575   0.847 -0.2724 -0.0962  0.2221
  421SOL    HW210688   2.308   1.574   1.009 -0.8110  1.9362  0.3169
  423SOL     OW10689   2.773   0.929   1.831 -0.1443  0.0672  0.2590
  423SOL    HW110690   2.845   0.987   1.792 -0.6073 -0.0967 -0.8767
  423SOL    HW210691   2.792   0.911   1.927  0.8849  0.7231  0.1811
  426SOL     OW10692   2.111   0.317   1.819  0.3420 -0.7498  0.5604
  426SOL    HW110693   2.080   0.228   1.785 -1.4116 -0.6329  1.7935
  426SOL    HW210694   2.114   0.315   1.919 -0.6784  0.8763  0.6340
  427SOL     OW10695   4.229   0.723   1.646  0.7613 -0.3265  0.1859
  427SOL    HW110696   4.283   0.641   1.627  0.2918 -0.5956  0.0080
  427SOL    HW210697   4.188   0.756   1.561  0.9912  0.1234  0.2499
  431SOL     OW10698   2.710   1.717   0.580 -0.2445 -0.3928  0.2636
  431SOL    HW110699   2.729   1.643   0.515  0.3407  0.7739 -0.8925
  431SOL    HW210700   2.640   1.778   0.542  1.3456  1.2748 -0.0312
  10.00000  10.00000   2.87800
